<?xml version="1.0" encoding="UTF-8"?>
<module cmlx:templateRef="gaussian.log" xmlns="http://www.xml-cml.org/schema" xmlns:cmlx="http://www.xml-cml.org/schema/cmlx"> Entering Gaussian System, Link 0=/usr/local/Gaussian/g03/g03 Initial command: /usr/local/Gaussian/g03/l1.exe /export/scratch//webmo/3309/Gau-12885.inp -scrdir=/export/scratch//webmo/3309/ Entering Link 1 = /usr/local/Gaussian/g03/l1.exe PID=     12887.  <module cmlx:lineCount="60" cmlx:templateRef="l1.legal"><scalar dataType="xsd:string" dictRef="g:l1.legal">Copyright (c) 1988,1990,1992,1993,1995,1998,2003, Gaussian, Inc.</scalar></module>  <module cmlx:lineCount="20" cmlx:templateRef="l1.citation"><list cmlx:templateRef="citation"><scalar dataType="xsd:string" dictRef="g:l1.citation">Cite this work as:</scalar></list></module> <module cmlx:lineCount="25" cmlx:templateRef="l1.end"><scalar dataType="xsd:string" dictRef="cc:run.date">2-Sep-2006</scalar><scalar dataType="xsd:string" dictRef="cc:program">Gaussian 03</scalar><scalar dataType="xsd:string" dictRef="cc:version">Sun64-SVR4-Unix-G03RevB.04</scalar><scalar dataType="xsd:string" dictRef="cc:program.date">2-Jun-2003</scalar><list cmlx:templateRef="control"><scalar dataType="xsd:string" dictRef="g:control">1/14=-1,18=20,26=3,38=1/1,3</scalar><scalar dataType="xsd:string" dictRef="g:control">2/9=110,17=6,18=5,40=1/2</scalar><scalar dataType="xsd:string" dictRef="g:control">3/5=4,6=6,7=111,11=2,16=1,25=1,30=1,74=-5/1,2,3</scalar><scalar dataType="xsd:string" dictRef="g:control">4//1</scalar><scalar dataType="xsd:string" dictRef="g:control">5/5=2,38=5/2</scalar><scalar dataType="xsd:string" dictRef="g:control">6/7=2,8=2,9=2,10=2,28=1/1</scalar><scalar dataType="xsd:string" dictRef="g:control">7//1,2,3,16</scalar><scalar dataType="xsd:string" dictRef="g:control">1/14=-1,18=20/3(1)</scalar><scalar dataType="xsd:string" dictRef="g:control">99//99</scalar><scalar dataType="xsd:string" dictRef="g:control">2/9=110/2</scalar><scalar dataType="xsd:string" dictRef="g:control">3/5=4,6=6,7=111,11=2,16=1,25=1,30=1,74=-5/1,2,3</scalar><scalar dataType="xsd:string" dictRef="g:control">4/5=5,16=3/1</scalar><scalar dataType="xsd:string" dictRef="g:control">5/5=2,38=5/2</scalar><scalar dataType="xsd:string" dictRef="g:control">7//1,2,3,16</scalar><scalar dataType="xsd:string" dictRef="g:control">1/14=-1,18=20/3(-5)</scalar><scalar dataType="xsd:string" dictRef="g:control">2/9=110/2</scalar><scalar dataType="xsd:string" dictRef="g:control">6/7=2,8=2,9=2,10=2,19=2,28=1/1</scalar><scalar dataType="xsd:string" dictRef="g:control">99/9=1/99</scalar></list></module><module cmlx:lineCount="3" cmlx:templateRef="l101.title"><scalar dataType="xsd:string" dictRef="cc:title" cmlx:templateRef="title">fluorobz basis</scalar></module><module cmlx:lineCount="46" cmlx:templateRef="l101"><list cmlx:templateRef="rest"><scalar dataType="xsd:string" dictRef="x:l101"/></list></module>                    Isotopes and Nuclear Properties:<module cmlx:lineCount="8" cmlx:templateRef="l101.isotope">  Atom         1           2           3           4           5           6           7           8           9          10 IAtWgt=          12          12          12          12          12          12           1           1          19           1 AtmWgt=  12.0000000  12.0000000  12.0000000  12.0000000  12.0000000  12.0000000   1.0078250   1.0078250  18.9984032   1.0078250 IAtSpn=           0           0           0           0           0           0           1           1           1           1 AtZEff=   0.0000000   0.0000000   0.0000000   0.0000000   0.0000000   0.0000000   0.0000000   0.0000000   0.0000000   0.0000000 AtQMom=   0.0000000   0.0000000   0.0000000   0.0000000   0.0000000   0.0000000   0.0000000   0.0000000   0.0000000   0.0000000 AtGFac=   0.0000000   0.0000000   0.0000000   0.0000000   0.0000000   0.0000000   2.7928460   2.7928460   2.6288670   2.7928460</module><module cmlx:lineCount="8" cmlx:templateRef="l101.isotope">  Atom        11          12 IAtWgt=           1           1 AtmWgt=   1.0078250   1.0078250 IAtSpn=           1           1 AtZEff=   0.0000000   0.0000000 AtQMom=   0.0000000   0.0000000 AtGFac=   2.7928460   2.7928460</module><module cmlx:lineCount="67" cmlx:templateRef="l103"><list cmlx:templateRef="berny"><scalar dataType="xsd:string" dictRef="g:optimization">Initialization pass.</scalar></list><module cmlx:lineCount="60" cmlx:templateRef="l103.init"><list cmlx:templateRef="length"><array dataType="xsd:string" size="12" dictRef="g:symbol">R1 R2 R3 R4 R5 R6 R7 R8 R9 R10 R11 R12</array><array dataType="xsd:integer" size="12" dictRef="g:atom1">1 1 1 2 2 3 3 4 4 5 5 6</array><array dataType="xsd:integer" size="12" dictRef="g:atom2">2 6 12 3 11 4 10 5 9 6 8 7</array><array dataType="xsd:double" size="12" dictRef="cc:distance">1.3916 1.3916 1.0834 1.391 1.0838 1.3856 1.0828 1.3856 1.3463 1.391 1.0828 1.0838</array><array delimiter="|" dataType="xsd:string" size="12" dictRef="g:deriv">|estimate D2E/DX2|estimate D2E/DX2|estimate D2E/DX2|estimate D2E/DX2|estimate D2E/DX2|estimate D2E/DX2|estimate D2E/DX2|estimate D2E/DX2|estimate D2E/DX2|estimate D2E/DX2|estimate D2E/DX2|estimate D2E/DX2|</array></list><list cmlx:templateRef="angle"><array dataType="xsd:string" size="18" dictRef="g:symbol">A1 A2 A3 A4 A5 A6 A7 A8 A9 A10 A11 A12 A13 A14 A15 A16 A17 A18</array><array dataType="xsd:integer" size="18" dictRef="g:atom1">2 2 6 1 1 3 2 2 4 3 3 5 4 4 6 1 1 5</array><array dataType="xsd:integer" size="18" dictRef="g:atom2">1 1 1 2 2 2 3 3 3 4 4 4 5 5 5 6 6 6</array><array dataType="xsd:integer" size="18" dictRef="g:atom3">6 12 12 3 11 11 4 10 10 5 9 9 6 8 8 5 7 7</array><array dataType="xsd:double" size="18" dictRef="cc:angle">119.8156 120.0922 120.0922 120.4316 120.1191 119.4493 118.6304 121.8873 119.4823 122.0605 118.9697 118.9697 118.6304 119.4823 121.8873 120.4316 120.1191 119.4493</array><array delimiter="|" dataType="xsd:string" size="18" dictRef="g:deriv">|estimate D2E/DX2|estimate D2E/DX2|estimate D2E/DX2|estimate D2E/DX2|estimate D2E/DX2|estimate D2E/DX2|estimate D2E/DX2|estimate D2E/DX2|estimate D2E/DX2|estimate D2E/DX2|estimate D2E/DX2|estimate D2E/DX2|estimate D2E/DX2|estimate D2E/DX2|estimate D2E/DX2|estimate D2E/DX2|estimate D2E/DX2|estimate D2E/DX2|</array></list><list cmlx:templateRef="dihed"><array dataType="xsd:string" size="23" dictRef="g:symbol">D1 D2 D3 D4 D5 D6 D7 D8 D9 D10 D11 D12 D13 D14 D15 D16 D17 D18 D19 D20 D21 D22 D23</array><array dataType="xsd:integer" size="23" dictRef="g:atom1">6 6 12 12 2 2 12 12 1 1 11 11 2 2 10 10 3 3 9 9 4 4 8</array><array dataType="xsd:integer" size="23" dictRef="g:atom2">1 1 1 1 1 1 1 1 2 2 2 2 3 3 3 3 4 4 4 4 5 5 5</array><array dataType="xsd:integer" size="23" dictRef="g:atom3">2 2 2 2 6 6 6 6 3 3 3 3 4 4 4 4 5 5 5 5 6 6 6</array><array dataType="xsd:integer" size="23" dictRef="g:atom4">3 11 3 11 5 7 5 7 4 10 4 10 5 9 5 9 6 8 6 8 1 7 1</array><array dataType="xsd:double" size="23" dictRef="cc:dihed">-0.0411 179.9999 -179.9709 0.0701 0.0411 -179.9999 179.9709 -0.0701 0.0114 -179.9926 179.9707 -0.0333 0.019 179.9192 -179.9771 -0.0769 -0.019 179.9771 -179.9192 0.0769 -0.0114 -179.9707 179.9926</array><array delimiter="|" dataType="xsd:string" size="23" dictRef="g:deriv">|estimate D2E/DX2|estimate D2E/DX2|estimate D2E/DX2|estimate D2E/DX2|estimate D2E/DX2|estimate D2E/DX2|estimate D2E/DX2|estimate D2E/DX2|estimate D2E/DX2|estimate D2E/DX2|estimate D2E/DX2|estimate D2E/DX2|estimate D2E/DX2|estimate D2E/DX2|estimate D2E/DX2|estimate D2E/DX2|estimate D2E/DX2|estimate D2E/DX2|estimate D2E/DX2|estimate D2E/DX2|estimate D2E/DX2|estimate D2E/DX2|estimate D2E/DX2|</array></list> ! D24   D(8,5,6,7)              0.0333         estimate D2E/DX2                !</module> --------------------------------------------------------------------------------<module cmlx:lineCount="2" cmlx:templateRef="l103.trust"><scalar dataType="xsd:double" dictRef="g:trustrad">0.3</scalar><scalar dataType="xsd:double" dictRef="g:fncerr">1.0E-7</scalar><scalar dataType="xsd:double" dictRef="g:grderr">1.0E-6</scalar><scalar dataType="xsd:integer" dictRef="g:nstep">64</scalar><scalar dataType="xsd:integer" dictRef="g:allowedstep">100</scalar></module> GradGradGradGradGradGradGradGradGradGradGradGradGradGradGradGradGradGrad</module><module cmlx:lineCount="18" cmlx:templateRef="l202.orient"><molecule id="mol.l202.orient" cmlx:templateRef="atom"><atomArray><atom id="a1" elementType="C" x3="0.0" y3="0.0" z3="0.0"><scalar dataType="xsd:integer" dictRef="cc:serial">1</scalar><scalar dataType="xsd:integer" dictRef="g:atomicType">0</scalar><scalar dataType="xsd:integer" dictRef="compchem:atomicNumber">6</scalar></atom><atom id="a2" elementType="C" x3="0.0" y3="0.0" z3="1.391552"><scalar dataType="xsd:integer" dictRef="cc:serial">2</scalar><scalar dataType="xsd:integer" dictRef="g:atomicType">0</scalar><scalar dataType="xsd:integer" dictRef="compchem:atomicNumber">6</scalar></atom><atom id="a3" elementType="C" x3="1.199331" y3="0.0" z3="2.096085"><scalar dataType="xsd:integer" dictRef="cc:serial">3</scalar><scalar dataType="xsd:integer" dictRef="g:atomicType">0</scalar><scalar dataType="xsd:integer" dictRef="compchem:atomicNumber">6</scalar></atom><atom id="a4" elementType="C" x3="2.387803" y3="2.42E-4" z3="1.383728"><scalar dataType="xsd:integer" dictRef="cc:serial">4</scalar><scalar dataType="xsd:integer" dictRef="g:atomicType">0</scalar><scalar dataType="xsd:integer" dictRef="compchem:atomicNumber">6</scalar></atom><atom id="a5" elementType="C" x3="2.414946" y3="8.72E-4" z3="-0.001617"><scalar dataType="xsd:integer" dictRef="cc:serial">5</scalar><scalar dataType="xsd:integer" dictRef="g:atomicType">0</scalar><scalar dataType="xsd:integer" dictRef="compchem:atomicNumber">6</scalar></atom><atom id="a6" elementType="C" x3="1.207353" y3="8.66E-4" z3="-0.691893"><scalar dataType="xsd:integer" dictRef="cc:serial">6</scalar><scalar dataType="xsd:integer" dictRef="g:atomicType">0</scalar><scalar dataType="xsd:integer" dictRef="compchem:atomicNumber">6</scalar></atom><atom id="a7" elementType="H" x3="1.213095" y3="8.73E-4" z3="-1.775651"><scalar dataType="xsd:integer" dictRef="cc:serial">7</scalar><scalar dataType="xsd:integer" dictRef="g:atomicType">0</scalar><scalar dataType="xsd:integer" dictRef="compchem:atomicNumber">1</scalar></atom><atom id="a8" elementType="H" x3="3.367798" y3="0.001417" z3="-0.51596"><scalar dataType="xsd:integer" dictRef="cc:serial">8</scalar><scalar dataType="xsd:integer" dictRef="g:atomicType">0</scalar><scalar dataType="xsd:integer" dictRef="compchem:atomicNumber">1</scalar></atom><atom id="a9" elementType="F" x3="3.552669" y3="0.001905" z3="2.058766"><scalar dataType="xsd:integer" dictRef="cc:serial">9</scalar><scalar dataType="xsd:integer" dictRef="g:atomicType">0</scalar><scalar dataType="xsd:integer" dictRef="compchem:atomicNumber">9</scalar></atom><atom id="a10" elementType="H" x3="1.226839" y3="-1.19E-4" z3="3.178545"><scalar dataType="xsd:integer" dictRef="cc:serial">10</scalar><scalar dataType="xsd:integer" dictRef="g:atomicType">0</scalar><scalar dataType="xsd:integer" dictRef="compchem:atomicNumber">1</scalar></atom><atom id="a11" elementType="H" x3="-0.937447" y3="-6.7E-4" z3="1.935389"><scalar dataType="xsd:integer" dictRef="cc:serial">11</scalar><scalar dataType="xsd:integer" dictRef="g:atomicType">0</scalar><scalar dataType="xsd:integer" dictRef="compchem:atomicNumber">1</scalar></atom><atom id="a12" elementType="H" x3="-0.937339" y3="4.76E-4" z3="-0.543186"><scalar dataType="xsd:integer" dictRef="cc:serial">12</scalar><scalar dataType="xsd:integer" dictRef="g:atomicType">0</scalar><scalar dataType="xsd:integer" dictRef="compchem:atomicNumber">1</scalar></atom></atomArray><formula formalCharge="0" concise="C 6 H 5 F 1"><atomArray elementType="C H F" count="6.0 5.0 1.0"/></formula><bondArray><bond atomRefs2="a1 a2" id="a1_a2" order="2"/><bond atomRefs2="a1 a6" id="a1_a6" order="S"/><bond atomRefs2="a1 a12" id="a1_a12" order="S"/><bond atomRefs2="a2 a3" id="a2_a3" order="S"/><bond atomRefs2="a2 a11" id="a2_a11" order="S"/><bond atomRefs2="a3 a4" id="a3_a4" order="2"/><bond atomRefs2="a3 a10" id="a3_a10" order="S"/><bond atomRefs2="a4 a5" id="a4_a5" order="S"/><bond atomRefs2="a4 a9" id="a4_a9" order="S"/><bond atomRefs2="a5 a6" id="a5_a6" order="2"/><bond atomRefs2="a5 a8" id="a5_a8" order="S"/><bond atomRefs2="a6 a7" id="a6_a7" order="S"/></bondArray><property dictRef="cml:molmass"><scalar dataType="xsd:double" units="unit:dalton" xmlns:unit="http://www.xml-cml.org/unit/si/">96.1023032</scalar></property></molecule></module><module cmlx:lineCount="25" cmlx:templateRef="l202.distmat"><array dataType="xsd:double" size="75" dictRef="cc:distance">0.0 1.391552 0.0 2.414946 1.390956 0.0 2.759765 2.387815 1.385611 0.0 2.414946 2.787989 2.424474 1.385611 0.0 1.391552 2.407996 2.787989 2.387815 1.390957 0.0 2.150474 3.391575 3.871761 3.370699 2.142812 1.083774 0.0 3.407093 3.870487 3.394853 2.13757 1.082809 2.167597 2.495911 0.0 4.10609 3.61478 2.353635 1.346326 2.353634 3.61478 4.491811 2.581354 0.0 3.407093 2.167597 1.082809 2.13757 3.394853 3.870487 4.954215 4.27002 2.581354 0.0 2.150474 1.083774 2.142811 3.370699 3.871761 3.391575 4.289132 4.954215 4.491811 2.49591 1.083354 2.149841 3.395749 3.843119 3.395749 2.149841 2.478576 4.305224 5.189444 4.305224</array></module><module cmlx:lineCount="6" cmlx:templateRef="l202.stoich"><scalar dataType="xsd:string" dictRef="cc:formula" cmlx:templateRef="stoich">C6H5F</scalar><scalar dataType="xsd:string" dictRef="cc:frameworkgroup" cmlx:templateRef="framework">CS[SG(C2HF),X(C4H4)]</scalar><scalar dataType="xsd:integer" dictRef="cc:degfreedom" cmlx:templateRef="degfreedom">17</scalar><scalar dataType="xsd:string" dictRef="cc:pointgroup">CS</scalar><scalar dataType="xsd:integer" dictRef="cc:operatorcount">2</scalar><scalar dataType="xsd:string" dictRef="cc:largestabelian">CS</scalar><scalar dataType="xsd:integer" dictRef="cc:operatorcount">2</scalar><scalar dataType="xsd:string" dictRef="cc:largestconciseabelian">CS</scalar><scalar dataType="xsd:integer" dictRef="cc:operatorcount">2</scalar></module><module cmlx:lineCount="18" cmlx:templateRef="l202.orient"><molecule id="a12" cmlx:templateRef="atom"><atomArray><atom id="a1" elementType="C" x3="6.16E-4" y3="-1.829907" z3="0.0"><scalar dataType="xsd:integer" dictRef="cc:serial">1</scalar><scalar dataType="xsd:integer" dictRef="g:atomicType">0</scalar><scalar dataType="xsd:integer" dictRef="compchem:atomicNumber">6</scalar></atom><atom id="a2" elementType="C" x3="1.85E-4" y3="-1.132192" z3="1.203998"><scalar dataType="xsd:integer" dictRef="cc:serial">2</scalar><scalar dataType="xsd:integer" dictRef="g:atomicType">0</scalar><scalar dataType="xsd:integer" dictRef="compchem:atomicNumber">6</scalar></atom><atom id="a3" elementType="C" x3="1.85E-4" y3="0.25874" z3="1.212237"><scalar dataType="xsd:integer" dictRef="cc:serial">3</scalar><scalar dataType="xsd:integer" dictRef="g:atomicType">0</scalar><scalar dataType="xsd:integer" dictRef="compchem:atomicNumber">6</scalar></atom><atom id="a4" elementType="C" x3="3.8E-4" y3="0.929858" z3="0.0"><scalar dataType="xsd:integer" dictRef="cc:serial">4</scalar><scalar dataType="xsd:integer" dictRef="g:atomicType">0</scalar><scalar dataType="xsd:integer" dictRef="compchem:atomicNumber">6</scalar></atom><atom id="a5" elementType="C" x3="1.85E-4" y3="0.25874" z3="-1.212237"><scalar dataType="xsd:integer" dictRef="cc:serial">5</scalar><scalar dataType="xsd:integer" dictRef="g:atomicType">0</scalar><scalar dataType="xsd:integer" dictRef="compchem:atomicNumber">6</scalar></atom><atom id="a6" elementType="C" x3="1.85E-4" y3="-1.132192" z3="-1.203998"><scalar dataType="xsd:integer" dictRef="cc:serial">6</scalar><scalar dataType="xsd:integer" dictRef="g:atomicType">0</scalar><scalar dataType="xsd:integer" dictRef="compchem:atomicNumber">6</scalar></atom><atom id="a7" elementType="H" x3="5.15E-4" y3="-1.670613" z3="-2.144566"><scalar dataType="xsd:integer" dictRef="cc:serial">7</scalar><scalar dataType="xsd:integer" dictRef="g:atomicType">0</scalar><scalar dataType="xsd:integer" dictRef="compchem:atomicNumber">1</scalar></atom><atom id="a8" elementType="H" x3="-2.7E-5" y3="0.825279" z3="-2.13501"><scalar dataType="xsd:integer" dictRef="cc:serial">8</scalar><scalar dataType="xsd:integer" dictRef="g:atomicType">0</scalar><scalar dataType="xsd:integer" dictRef="compchem:atomicNumber">1</scalar></atom><atom id="a9" elementType="F" x3="-0.00128" y3="2.276183" z3="0.0"><scalar dataType="xsd:integer" dictRef="cc:serial">9</scalar><scalar dataType="xsd:integer" dictRef="g:atomicType">0</scalar><scalar dataType="xsd:integer" dictRef="compchem:atomicNumber">9</scalar></atom><atom id="a10" elementType="H" x3="-2.7E-5" y3="0.825279" z3="2.13501"><scalar dataType="xsd:integer" dictRef="cc:serial">10</scalar><scalar dataType="xsd:integer" dictRef="g:atomicType">0</scalar><scalar dataType="xsd:integer" dictRef="compchem:atomicNumber">1</scalar></atom><atom id="a11" elementType="H" x3="5.15E-4" y3="-1.670613" z3="2.144566"><scalar dataType="xsd:integer" dictRef="cc:serial">11</scalar><scalar dataType="xsd:integer" dictRef="g:atomicType">0</scalar><scalar dataType="xsd:integer" dictRef="compchem:atomicNumber">1</scalar></atom><atom id="a12" elementType="H" x3="1.38E-4" y3="-2.913261" z3="0.0"><scalar dataType="xsd:integer" dictRef="cc:serial">12</scalar><scalar dataType="xsd:integer" dictRef="g:atomicType">0</scalar><scalar dataType="xsd:integer" dictRef="compchem:atomicNumber">1</scalar></atom></atomArray><formula formalCharge="0" concise="C 6 H 5 F 1"><atomArray elementType="C H F" count="6.0 5.0 1.0"/></formula><bondArray><bond atomRefs2="a1 a2" id="a1_a2" order="2"/><bond atomRefs2="a1 a6" id="a1_a6" order="S"/><bond atomRefs2="a1 a12" id="a1_a12" order="S"/><bond atomRefs2="a2 a3" id="a2_a3" order="S"/><bond atomRefs2="a2 a11" id="a2_a11" order="S"/><bond atomRefs2="a3 a4" id="a3_a4" order="2"/><bond atomRefs2="a3 a10" id="a3_a10" order="S"/><bond atomRefs2="a4 a5" id="a4_a5" order="S"/><bond atomRefs2="a4 a9" id="a4_a9" order="S"/><bond atomRefs2="a5 a6" id="a5_a6" order="2"/><bond atomRefs2="a5 a8" id="a5_a8" order="S"/><bond atomRefs2="a6 a7" id="a6_a7" order="S"/></bondArray><property dictRef="cml:molmass"><scalar dataType="xsd:double" units="unit:dalton" xmlns:unit="http://www.xml-cml.org/unit/si/">96.1023032</scalar></property></molecule></module><module cmlx:lineCount="1" cmlx:templateRef="l202.rotconst"><array dataType="xsd:double" size="3" dictRef="cc:rotconst" cmlx:templateRef="rotconst">5.7093806 2.5728819 1.7736172</array></module><scalar dataType="xsd:integer" dictRef="g:buffer" cmlx:templateRef="buffer">131072</scalar><scalar dataType="xsd:string" dictRef="g:raffenetti" cmlx:templateRef="raff">Raffenetti</scalar><scalar dataType="xsd:string" dictRef="g:twoe" cmlx:templateRef="twoe">Two-electron</scalar><module cmlx:lineCount="13" cmlx:templateRef="l301.basis"><scalar dataType="xsd:string" dictRef="cc:basis">6-311+G(d,p)</scalar><scalar dataType="xsd:string" dictRef="cc:diffuse">(5D, 7F)</scalar><list cmlx:lineCount="2" cmlx:templateRef="symmadapt"><array dataType="xsd:integer" dictRef="cc:adapted" size="2">109 75</array><array dataType="xsd:string" dictRef="cc:symm" size="2">A' A"</array></list><scalar dataType="xsd:integer" dictRef="cc:basiscount">184</scalar><scalar dataType="xsd:integer" dictRef="g:primbasis">292</scalar><scalar dataType="xsd:integer" dictRef="cc:cartesianbasis">191</scalar><scalar dataType="xsd:integer" dictRef="cc:alphae">25</scalar><scalar dataType="xsd:integer" dictRef="cc:betae">25</scalar> IExCor= 402 DFT=T Ex=B+HF Corr=LYP ExCW=0 ScaHFX=  0.200000 ScaDFX=  0.800000  0.720000  1.000000  0.810000 IRadAn=      0 IRanWt=     -1 IRanGd=            0 ICorTp=0 NAtoms=   12 NActive=   12 NUniq=    8 SFac= 2.76D+00 NAtFMM=   60 Big=F</module> NPDir=0 NMtPBC=     1 NCelOv=     1 NCel=       1 NClECP=     1 NCelD=      1         NCelK=      1 NCelE2=     1 NClLst=     1 CellRange=     0.0.<module cmlx:lineCount="1" cmlx:templateRef="l302.basis"><list cmlx:templateRef="onee"><scalar dataType="xsd:string" dictRef="g:onee">One-electron integrals</scalar></list></module> One-electron integral symmetry used in STVInt NBasis=   184 RedAO= T  NBF=   109    75 NBsUse=   184 1.00D-06 NBFU=   109    75 Precomputing XC quadrature grid using IXCGrd= 2 IRadAn=           0 IRanWt=          -1 IRanGd=           0. NRdTot=     769 NPtTot=       97600 NUsed=      103032 NTot=      103064 NSgBfM=   191   191   191   191.<module cmlx:lineCount="1" cmlx:templateRef="l303.basis"><list cmlx:templateRef="l303"><scalar dataType="xsd:integer" dictRef="g:dipdrv">1</scalar></list></module> Harris functional with IExCor=  402 diagonalized for initial guess. ExpMin= 4.38D-02 ExpMax= 1.14D+04 ExpMxC= 1.72D+03 IAcc=2 IRadAn=         4 AccDes= 0.00D+00 HarFok:  IExCor= 402 AccDes= 0.00D+00 IRadAn=         4 IDoV=1 ScaDFX=  1.000000  1.000000  1.000000  1.000000 Harris En= -331.683489006726     Initial guess orbital symmetries:       Occupied  (A') (A") (A') (A') (A") (A') (A') (A') (A') (A")                 (A') (A") (A') (A') (A") (A') (A') (A") (A') (A')                 (A") (A') (A") (A") (A')       Virtual   (A") (A') (A') (A') (A") (A') (A') (A") (A') (A')                 (A') (A") (A') (A') (A") (A") (A') (A') (A") (A")                 (A') (A') (A") (A") (A') (A') (A') (A') (A") (A')                 (A") (A') (A") (A") (A') (A') (A") (A') (A') (A')                 (A") (A') (A') (A") (A") (A') (A") (A') (A") (A')                 (A') (A") (A") (A') (A') (A") (A') (A') (A') (A")                 (A') (A') (A") (A') (A") (A") (A') (A') (A') (A")                 (A") (A") (A') (A") (A') (A") (A') (A') (A') (A")                 (A') (A") (A') (A') (A') (A") (A") (A') (A') (A')                 (A") (A') (A") (A') (A") (A") (A') (A') (A") (A")                 (A') (A") (A') (A') (A") (A') (A") (A') (A") (A')                 (A") (A') (A") (A') (A") (A') (A') (A') (A') (A')                 (A") (A") (A') (A") (A') (A') (A") (A') (A") (A")                 (A') (A") (A') (A") (A') (A") (A') (A') (A') (A")                 (A') (A") (A') (A') (A") (A') (A") (A") (A') (A')                 (A") (A') (A') (A') (A") (A") (A') (A') (A') The electronic state of the initial guess is 1-A'.<module cmlx:lineCount="189" cmlx:templateRef="l502"><list cmlx:templateRef="l502.type"><scalar dataType="xsd:string" dictRef="g:l502.type">Closed</scalar></list> Requested convergence on RMS density matrix=1.00D-08 within 128 cycles. Requested convergence on MAX density matrix=1.00D-06. Requested convergence on             energy=1.00D-06. No special actions if energy rises. Using DIIS extrapolation, IDIIS=  1040. Integral symmetry usage will be decided dynamically.       103031 words used for storage of precomputed grid. IEnd=    250344 IEndB=    250344 NGot=   6291456 MDV=   6094425 LenX=   6094425 Fock matrices will be formed incrementally for  20 cycles.<module cmlx:lineCount="172" cmlx:templateRef="l502.cycle"><list cmlx:templateRef="cycle"><list><scalar dataType="xsd:integer" dictRef="cc:cycle">1</scalar><scalar dataType="xsd:integer" dictRef="g:pass">1</scalar><scalar dataType="xsd:integer" dictRef="g:idiag">1</scalar></list></list><module cmlx:lineCount="1" cmlx:templateRef="l502.e"><list cmlx:templateRef="l502.e"><scalar dataType="xsd:double" dictRef="g:l502.e">-331.359661969951</scalar></list></module> Cycle   2  Pass 1  IDiag  1:<module cmlx:lineCount="1" cmlx:templateRef="l502.ediff"><list cmlx:templateRef="l502.ediff"><list><scalar dataType="xsd:double" dictRef="g:l502.e">-331.448139959357</scalar><scalar dataType="xsd:double" dictRef="g:l502.deltae">-0.088477989406</scalar></list></list></module> Cycle   3  Pass 1  IDiag  1:<module cmlx:lineCount="1" cmlx:templateRef="l502.ediff"><list cmlx:templateRef="l502.ediff"><list><scalar dataType="xsd:double" dictRef="g:l502.e">-331.567757985987</scalar><scalar dataType="xsd:double" dictRef="g:l502.deltae">-0.11961802663</scalar></list></list></module> Cycle   4  Pass 1  IDiag  1:<module cmlx:lineCount="1" cmlx:templateRef="l502.ediff"><list cmlx:templateRef="l502.ediff"><list><scalar dataType="xsd:double" dictRef="g:l502.e">-331.576579121476</scalar><scalar dataType="xsd:double" dictRef="g:l502.deltae">-0.008821135489</scalar></list></list></module> Cycle   5  Pass 1  IDiag  1:<module cmlx:lineCount="1" cmlx:templateRef="l502.ediff"><list cmlx:templateRef="l502.ediff"><list><scalar dataType="xsd:double" dictRef="g:l502.e">-331.579906454157</scalar><scalar dataType="xsd:double" dictRef="g:l502.deltae">-0.003327332681</scalar></list></list></module> Cycle   6  Pass 1  IDiag  1:<module cmlx:lineCount="1" cmlx:templateRef="l502.ediff"><list cmlx:templateRef="l502.ediff"><list><scalar dataType="xsd:double" dictRef="g:l502.e">-331.5799709962</scalar><scalar dataType="xsd:double" dictRef="g:l502.deltae">-6.4542043E-5</scalar></list></list></module> Cycle   7  Pass 1  IDiag  1:                    CP:  5.93D-01<module cmlx:lineCount="1" cmlx:templateRef="l502.ediff"><list cmlx:templateRef="l502.ediff"><list><scalar dataType="xsd:double" dictRef="g:l502.e">-331.57999146844</scalar><scalar dataType="xsd:double" dictRef="g:l502.deltae">-2.047224E-5</scalar></list></list></module> Cycle   8  Pass 1  IDiag  1:                    CP:  6.33D-01  8.42D-01<module cmlx:lineCount="1" cmlx:templateRef="l502.ediff"><list cmlx:templateRef="l502.ediff"><list><scalar dataType="xsd:double" dictRef="g:l502.e">-331.579991573429</scalar><scalar dataType="xsd:double" dictRef="g:l502.deltae">-1.04989E-7</scalar></list></list></module> Cycle   9  Pass 1  IDiag  1:                    CP:  6.38D-01  8.70D-01  8.44D-01<module cmlx:lineCount="1" cmlx:templateRef="l502.ediff"><list cmlx:templateRef="l502.ediff"><list><scalar dataType="xsd:double" dictRef="g:l502.e">-331.579991617179</scalar><scalar dataType="xsd:double" dictRef="g:l502.deltae">-4.375E-8</scalar></list></list></module> Cycle  10  Pass 1  IDiag  1:                    CP:  6.37D-01  8.77D-01  8.62D-01  8.95D-01<module cmlx:lineCount="1" cmlx:templateRef="l502.ediff"><list cmlx:templateRef="l502.ediff"><list><scalar dataType="xsd:double" dictRef="g:l502.e">-331.579991618432</scalar><scalar dataType="xsd:double" dictRef="g:l502.deltae">-1.253E-9</scalar></list></list></module> Cycle  11  Pass 1  IDiag  1:                    CP:  6.38D-01  8.77D-01  8.66D-01  9.16D-01  9.88D-01<module cmlx:lineCount="1" cmlx:templateRef="l502.ediff"><list cmlx:templateRef="l502.ediff"><list><scalar dataType="xsd:double" dictRef="g:l502.e">-331.579991618461</scalar><scalar dataType="xsd:double" dictRef="g:l502.deltae">-2.9E-11</scalar></list></list></module> Cycle  12  Pass 1  IDiag  1:                    CP:  6.38D-01  8.77D-01  8.67D-01  9.17D-01  1.00D+00                    CP:  8.90D-01<module cmlx:lineCount="1" cmlx:templateRef="l502.ediff"><list cmlx:templateRef="l502.ediff"><list><scalar dataType="xsd:double" dictRef="g:l502.e">-331.579991618474</scalar><scalar dataType="xsd:double" dictRef="g:l502.deltae">-1.3E-11</scalar></list></list></module> RMSDP=7.57D-09 MaxDP=2.22D-07 DE=-1.31D-11 OVMax= 2.23D-07</module><module cmlx:lineCount="4" cmlx:templateRef="l502.footer"><list cmlx:templateRef="l502"><scalar dataType="xsd:string" dictRef="g:l502">SCF Done:  E(RB+HF-LYP) =  -331.579991618     A.U. after   12 cycles</scalar><scalar dataType="xsd:string" dictRef="g:l502">Convg  =    0.7567D-08             -V/T =  2.0038</scalar><scalar dataType="xsd:string" dictRef="g:l502">S**2   =   0.0000</scalar><scalar dataType="xsd:string" dictRef="g:l502">KE= 3.303253779143D+02 PE=-1.315319881246D+03 EE= 3.836188801327D+02</scalar></list></module></module> Copying SCF densities to generalized density rwf, ISCF=0 IROHF=0.<module cmlx:lineCount="141" cmlx:templateRef="l601.popanal"> Orbital symmetries:<module cmlx:lineCount="3" cmlx:templateRef="l4601.occupied"><list cmlx:templateRef="occ"><scalar dataType="xsd:string" dictRef="g:occorbs">(A') (A') (A') (A") (A") (A') (A') (A') (A') (A")</scalar></list><list cmlx:templateRef="occ"><scalar dataType="xsd:string" dictRef="g:occorbs">(A') (A") (A') (A') (A') (A") (A') (A') (A") (A")</scalar><scalar dataType="xsd:string" dictRef="g:occorbs">(A') (A') (A") (A") (A')</scalar></list></module><module cmlx:lineCount="16" cmlx:templateRef="l4601.virtual"><list cmlx:templateRef="virt"><scalar dataType="xsd:string" dictRef="g:virtorbs">(A") (A') (A') (A") (A') (A') (A") (A') (A') (A')</scalar></list><list cmlx:templateRef="virt"><scalar dataType="xsd:string" dictRef="g:virtorbs">(A") (A') (A") (A') (A') (A") (A') (A") (A') (A")</scalar><scalar dataType="xsd:string" dictRef="g:virtorbs">(A') (A') (A") (A') (A") (A') (A') (A") (A') (A')</scalar><scalar dataType="xsd:string" dictRef="g:virtorbs">(A") (A") (A') (A') (A") (A') (A') (A") (A') (A")</scalar><scalar dataType="xsd:string" dictRef="g:virtorbs">(A') (A') (A") (A') (A') (A") (A') (A") (A") (A')</scalar><scalar dataType="xsd:string" dictRef="g:virtorbs">(A") (A') (A") (A') (A') (A') (A") (A') (A') (A")</scalar><scalar dataType="xsd:string" dictRef="g:virtorbs">(A') (A') (A") (A') (A') (A") (A") (A") (A') (A')</scalar><scalar dataType="xsd:string" dictRef="g:virtorbs">(A") (A') (A") (A") (A') (A") (A') (A') (A') (A')</scalar><scalar dataType="xsd:string" dictRef="g:virtorbs">(A') (A") (A") (A') (A") (A') (A") (A') (A') (A')</scalar><scalar dataType="xsd:string" dictRef="g:virtorbs">(A") (A') (A') (A") (A") (A") (A') (A') (A") (A")</scalar><scalar dataType="xsd:string" dictRef="g:virtorbs">(A') (A") (A') (A') (A") (A') (A') (A") (A') (A")</scalar><scalar dataType="xsd:string" dictRef="g:virtorbs">(A") (A') (A") (A') (A") (A') (A') (A') (A') (A")</scalar><scalar dataType="xsd:string" dictRef="g:virtorbs">(A') (A") (A') (A') (A") (A') (A") (A') (A") (A")</scalar><scalar dataType="xsd:string" dictRef="g:virtorbs">(A') (A") (A') (A") (A') (A") (A') (A') (A') (A")</scalar><scalar dataType="xsd:string" dictRef="g:virtorbs">(A') (A") (A') (A') (A") (A') (A") (A") (A') (A')</scalar><scalar dataType="xsd:string" dictRef="g:virtorbs">(A") (A') (A') (A') (A") (A') (A") (A') (A')</scalar></list></module><module cmlx:lineCount="1" cmlx:templateRef="l601.state"><scalar dataType="xsd:string" dictRef="g:l601.state">1-A'.</scalar></module><array dataType="xsd:double" size="25" dictRef="g:alphaocc">-24.69406 -10.26609 -10.19179 -10.19178 -10.18896 -10.18895 -10.185 -1.23583 -0.87562 -0.76945 -0.7604 -0.63537 -0.62418 -0.55799 -0.50812 -0.5003 -0.47714 -0.45792 -0.44378 -0.41122 -0.38415 -0.37499 -0.35873 -0.27392 -0.2597</array><array dataType="xsd:double" size="159" dictRef="g:alphavirt">-0.02957 -0.01818 0.00268 0.01994 0.02537 0.03798 0.04712 0.05799 0.06497 0.0838 0.08521 0.0884 0.09966 0.12418 0.12753 0.137 0.13802 0.13856 0.1439 0.14628 0.15097 0.18264 0.18976 0.19253 0.20089 0.20227 0.20809 0.20966 0.22069 0.22481 0.23065 0.26291 0.27184 0.29959 0.31126 0.3115 0.33329 0.34571 0.36102 0.38217 0.39364 0.45297 0.48427 0.50304 0.51607 0.51949 0.53108 0.56367 0.5637 0.56669 0.58638 0.59576 0.60802 0.61138 0.66355 0.66916 0.69079 0.71543 0.72005 0.73892 0.7821 0.81192 0.81498 0.81689 0.84519 0.84559 0.85174 0.90946 0.91369 0.96424 0.99278 1.00057 1.01314 1.06413 1.093 1.12292 1.1781 1.27066 1.33085 1.41624 1.42015 1.44497 1.48301 1.50085 1.52283 1.54639 1.55559 1.55786 1.60611 1.63219 1.63942 1.65959 1.72683 1.73292 1.76021 1.8048 1.84874 1.91013 1.91038 1.92392 1.9404 1.94202 1.98043 1.99401 2.01046 2.01318 2.06411 2.0719 2.27186 2.27979 2.32872 2.36557 2.3786 2.39079 2.47858 2.60449 2.62531 2.6397 2.65207 2.69629 2.71934 2.73808 2.75022 2.752 2.77843 2.81884 2.82752 2.86314 2.87453 2.92341 3.06485 3.11341 3.15909 3.3276 3.34583 3.47309 3.48664 3.61624 3.72054 3.78487 3.84792 3.96914 3.98794 4.03368 4.11118 4.13546 4.14811 4.83616 4.86987 6.31031 6.4378 6.73828 23.53758 23.91146 23.95887 24.07548 24.09445 24.19537 66.79344</array><module cmlx:lineCount="37" cmlx:templateRef="l601.alphabetaeigen"/><module cmlx:lineCount="26" cmlx:templateRef="l601.condensed"><array dataType="xsd:double" size="12" dictRef="x:floatArr">4.936357 0.486196 0.107402 -0.292499 0.107402 0.486196 -0.01892 -0.008217 -0.018747 -0.008217 -0.01892 0.374624</array><array dataType="xsd:double" size="12" dictRef="x:floatArr">0.486196 5.01147 0.292122 0.1487 -0.247206 0.041437 -0.001283 0.007798 0.009744 0.023284 0.396423 7.29E-4</array><array dataType="xsd:double" size="12" dictRef="x:floatArr">0.107402 0.292122 6.722324 -0.220476 -0.828184 -0.247206 -0.001287 -0.028939 -0.244632 0.383518 -0.030278 -0.017758</array><array dataType="xsd:double" size="12" dictRef="x:floatArr">-0.292499 0.1487 -0.220476 6.17044 -0.220476 0.1487 0.005945 -0.017946 0.511634 -0.017946 0.005945 0.01179</array><array dataType="xsd:double" size="12" dictRef="x:floatArr">0.107402 -0.247206 -0.828184 -0.220476 6.722324 0.292122 -0.030278 0.383518 -0.244632 -0.028939 -0.001287 -0.017758</array><array dataType="xsd:double" size="12" dictRef="x:floatArr">0.486196 0.041437 -0.247206 0.1487 0.292122 5.01147 0.396423 0.023284 0.009744 0.007798 -0.001283 7.29E-4</array><array dataType="xsd:double" size="12" dictRef="x:floatArr">-0.01892 -0.001283 -0.001287 0.005945 -0.030278 0.396423 0.531326 -0.007311 -4.71E-4 5.7E-5 -2.98E-4 -0.007725</array><array dataType="xsd:double" size="12" dictRef="x:floatArr">-0.008217 0.007798 -0.028939 -0.017946 0.383518 0.023284 -0.007311 0.519216 -0.007247 -1.22E-4 5.7E-5 -1.81E-4</array><array dataType="xsd:double" size="12" dictRef="x:floatArr">-0.018747 0.009744 -0.244632 0.511634 -0.244632 0.009744 -4.71E-4 -0.007247 9.181452 -0.007247 -4.71E-4 6.4E-5</array><array dataType="xsd:double" size="12" dictRef="x:floatArr">-0.008217 0.023284 0.383518 -0.017946 -0.028939 0.007798 5.7E-5 -1.22E-4 -0.007247 0.519216 -0.007311 -1.81E-4</array><array dataType="xsd:double" size="12" dictRef="x:floatArr">-0.01892 0.396423 -0.030278 0.005945 -0.001287 -0.001283 -2.98E-4 5.7E-5 -4.71E-4 -0.007311 0.531326 -0.007725</array><array dataType="xsd:double" size="6" dictRef="x:floatArr" cmlx:idx="12">0.374624 7.29E-4 -0.017758 0.01179 -0.017758 7.29E-4</array></module><list cmlx:templateRef="popanal"><scalar dataType="xsd:string" dictRef="x:popanal">12  H   -0.007725  -0.000181   0.000064  -0.000181  -0.007725   0.535525</scalar></list><module cmlx:lineCount="32" cmlx:templateRef="mulliken"><module cmlx:lineCount="15" cmlx:templateRef="l601.mullik"><scalar dataType="xsd:string" dictRef="g:title">Mulliken atomic charges:</scalar><scalar dataType="xsd:integer" dictRef="cc:serial">1</scalar><list cmlx:lineCount="12" cmlx:templateRef="row"><array dataType="xsd:integer" dictRef="cc:serial" size="12">1 2 3 4 5 6 7 8 9 10 11 12</array><array dataType="xsd:string" dictRef="cc:elementType" size="12">C C C C C C H H F H H H</array><array dataType="xsd:double" dictRef="x:charge" size="12">-0.132657 -0.169414 0.113394 -0.23381 0.113394 -0.169414 0.133824 0.136091 -0.18919 0.136091 0.133824 0.127867</array></list><scalar dataType="xsd:string" dictRef="x:type">Mulliken</scalar><scalar dataType="xsd:double" dictRef="x:charge.sum">0.0</scalar></module><module cmlx:lineCount="15" cmlx:templateRef="l601.mullik"><scalar dataType="xsd:string" dictRef="g:title">Atomic charges with hydrogens summed into heavy atoms:</scalar><scalar dataType="xsd:integer" dictRef="cc:serial">1</scalar><list cmlx:lineCount="12" cmlx:templateRef="row"><array dataType="xsd:integer" dictRef="cc:serial" size="12">1 2 3 4 5 6 7 8 9 10 11 12</array><array dataType="xsd:string" dictRef="cc:elementType" size="12">C C C C C C H H F H H H</array><array dataType="xsd:double" dictRef="x:charge" size="12">-0.00479 -0.03559 0.249485 -0.23381 0.249485 -0.03559 0.0 0.0 -0.18919 0.0 0.0 0.0</array></list><scalar dataType="xsd:string" dictRef="x:type">Mulliken</scalar><scalar dataType="xsd:double" dictRef="x:charge.sum">0.0</scalar></module><scalar dataType="xsd:double" dictRef="g:electextent2">649.0673</scalar> Charge=     0.0000 electrons</module><module cmlx:lineCount="18" cmlx:templateRef="multipole"><array dataType="xsd:double" size="3" dictRef="cc:dipole">8.0E-4 -1.6822 0.0</array><scalar dataType="xsd:double" dictRef="x:dipole">1.6822</scalar><array dataType="xsd:double" size="3" dictRef="cc:quadrupole">-43.6277 -41.2345 -34.6792</array><array dataType="xsd:double" size="3" dictRef="cc:quadrupole">0.0029 0.0 0.0</array><array dataType="xsd:double" size="6" dictRef="cc:quadrupole">-3.7805 -1.3874 5.1679 0.0029 0.0 0.0</array><array dataType="xsd:double" size="10" dictRef="cc:octapole">-0.0159 -2.5732 0.0 0.0028 8.8955 0.0 -0.0027 4.7679 0.0 0.0</array><array dataType="xsd:double" size="15" dictRef="cc:hexadecapole">-49.953 -482.673 -268.1073 0.0678 0.0 0.084 0.0 0.0 0.0 -94.1432 -64.8556 -118.0173 0.0 0.0 0.0148</array></module></module> Symmetry A'   KE= 2.431694839789D+02 Symmetry A"   KE= 8.715589393539D+01<module cmlx:lineCount="2" cmlx:templateRef="l601.nonmr"> Leave Link  601 at Sun Sep  3 00:12:29 2006, MaxMem=    6291456 cpu:       1.3</module><module cmlx:lineCount="1" cmlx:templateRef="l701"/> ... and contract with generalized density number  0.<module cmlx:lineCount="1" cmlx:templateRef="l702"/><module cmlx:lineCount="1" cmlx:templateRef="l701"/> Integral derivatives from FoFDir, PRISM(SPDF). Petite list used in FoFDir. MinBra= 0 MaxBra= 2 Meth= 1. IRaf=       0 NMat=   1 IRICut=       1 DoRegI=T DoRafI=F ISym2E= 1 JSym2E=1.<module cmlx:lineCount="2" cmlx:templateRef="l716.dipole"><array dataType="xsd:double" size="3" dictRef="x:d" cmlx:templateRef="dipole">3.33215289E-4 -0.661826309 4.39648318E-14</array> ***** Axes restored to original set *****</module> ------------------------------------------------------------------- Center     Atomic                   Forces (Hartrees/Bohr) Number     Number              X              Y              Z -------------------------------------------------------------------    1          6          -0.002399215    0.000108262   -0.001390296    2          6          -0.002174369   -0.000090300    0.001057937    3          6           0.001742728   -0.000027299    0.003211141    4          6          -0.006457569    0.000164401   -0.003742082    5          6           0.003652595   -0.000025928   -0.000084583    6          6          -0.000163186   -0.000088857   -0.002412621    7          1           0.000079142    0.000024126   -0.000136417    8          1           0.000117184    0.000006970   -0.000367977    9          9           0.006076179   -0.000069110    0.003521106   10          1          -0.000261005    0.000006699    0.000284638   11          1          -0.000079018    0.000024013    0.000136509   12          1          -0.000133464   -0.000032976   -0.000077356 ------------------------------------------------------------------- Cartesian Forces:  Max     0.006457569 RMS     0.002051676<module cmlx:lineCount="86" cmlx:templateRef="l103"><list cmlx:templateRef="berny"><scalar dataType="xsd:string" dictRef="g:optimization">Internal  Forces:  Max     0.007022596 RMS     0.001296675</scalar></list> Search for a local minimum. Step number   1 out of a maximum of  64 All quantities printed in internal units (Hartrees-Bohrs-Radians) Second derivative matrix not updated -- first step.     Eigenvalues ---    0.02201   0.02203   0.02204   0.02205   0.02221     Eigenvalues ---    0.02239   0.02246   0.02265   0.02279   0.16000     Eigenvalues ---    0.16000   0.16000   0.16000   0.16000   0.22000     Eigenvalues ---    0.22000   0.23504   0.25000   0.35542   0.35542     Eigenvalues ---    0.35592   0.35657   0.35657   0.42810   0.43081     Eigenvalues ---    0.47070   0.47153   0.47614   0.47959   0.55811     Eigenvalues --- 1000.000001000.000001000.000001000.000001000.00000     Eigenvalues --- 1000.000001000.000001000.000001000.000001000.00000     Eigenvalues --- 1000.000001000.000001000.000001000.000001000.00000     Eigenvalues --- 1000.000001000.000001000.000001000.000001000.00000     Eigenvalues --- 1000.000001000.000001000.000001000.00000<module cmlx:lineCount="5" cmlx:templateRef="rfo"><list cmlx:templateRef="rfo"><scalar dataType="xsd:double" dictRef="g:lambda">-1.84991972E-4</scalar></list><list cmlx:templateRef="nolinear"><scalar dataType="xsd:string" dictRef="g:linear">Linear search</scalar></list><list cmlx:lineCount="3" cmlx:templateRef="iteration"><array dataType="xsd:integer" dictRef="cc:serial" size="3">1 2 3</array><array dataType="xsd:double" dictRef="g:rmscart" size="3">0.00330258 3.72E-6 0.0</array><array dataType="xsd:double" dictRef="g:rmsint" size="3">3.73E-6 6.7E-7 6.7E-7</array></list></module><module cmlx:lineCount="56" cmlx:templateRef="l103.deltas"><list cmlx:lineCount="54" cmlx:templateRef="delta"><array dataType="xsd:string" dictRef="cc:variable" size="54">R1 R2 R3 R4 R5 R6 R7 R8 R9 R10 R11 R12 A1 A2 A3 A4 A5 A6 A7 A8 A9 A10 A11 A12 A13 A14 A15 A16 A17 A18 D1 D2 D3 D4 D5 D6 D7 D8 D9 D10 D11 D12 D13 D14 D15 D16 D17 D18 D19 D20 D21 D22 D23 D24</array><array dataType="xsd:double" dictRef="g:lastval" size="54">2.62965 2.62965 2.04724 2.62853 2.04804 2.61843 2.04621 2.61843 2.54419 2.62853 2.04621 2.04804 2.09118 2.096 2.096 2.10193 2.09647 2.08478 2.07049 2.12734 2.08536 2.13036 2.07641 2.07641 2.07049 2.08536 2.12734 2.10193 2.09647 2.08478 -7.2E-4 3.14159 -3.14109 0.00122 7.2E-4 -3.14159 3.14109 -0.00122 2.0E-4 -3.14146 3.14108 -5.8E-4 3.3E-4 3.14018 -3.14119 -0.00134 -3.3E-4 3.14119 -3.14018 0.00134 -2.0E-4 -3.14108 3.14146 5.8E-4</array><array dataType="xsd:double" dictRef="cc:deriv" size="54">0.00284 0.00284 1.5E-4 0.00282 1.4E-4 0.00165 2.8E-4 0.00165 0.00702 0.00282 2.8E-4 1.4E-4 -1.2E-4 6.0E-5 6.0E-5 1.0E-5 8.0E-5 -8.0E-5 -5.8E-4 2.0E-5 5.6E-4 0.00127 -6.4E-4 -6.4E-4 -5.8E-4 5.6E-4 2.0E-5 1.0E-5 8.0E-5 -8.0E-5 3.0E-5 1.0E-5 -1.0E-5 -2.0E-5 -3.0E-5 -1.0E-5 1.0E-5 2.0E-5 0.0 0.0 1.0E-5 1.0E-5 -2.0E-5 4.0E-5 -2.0E-5 4.0E-5 2.0E-5 2.0E-5 -4.0E-5 -4.0E-5 0.0 -1.0E-5 0.0 -1.0E-5</array><array dataType="xsd:double" dictRef="cc:delta.linear" size="54">0.0 0.0 0.0 0.0 0.0 0.0 0.0 0.0 0.0 0.0 0.0 0.0 0.0 0.0 0.0 0.0 0.0 0.0 0.0 0.0 0.0 0.0 0.0 0.0 0.0 0.0 0.0 0.0 0.0 0.0 0.0 0.0 0.0 0.0 0.0 0.0 0.0 0.0 0.0 0.0 0.0 0.0 0.0 0.0 0.0 0.0 0.0 0.0 0.0 0.0 0.0 0.0 0.0 0.0</array><array dataType="xsd:double" dictRef="cc:delta.quad" size="54">0.00613 0.00613 4.3E-4 0.00597 3.8E-4 0.00334 7.8E-4 0.00334 0.01258 0.00597 7.8E-4 3.8E-4 -8.0E-5 4.0E-5 4.0E-5 3.2E-4 3.4E-4 -6.6E-4 -0.0027 -3.6E-4 0.00306 0.00486 -0.00243 -0.00243 -0.0027 0.00306 -3.6E-4 3.2E-4 3.4E-4 -6.6E-4 0.00112 3.5E-4 -2.7E-4 -0.00105 -0.00112 -3.5E-4 2.7E-4 0.00105 -1.8E-4 -1.3E-4 5.9E-4 6.4E-4 -8.0E-4 0.00192 -8.4E-4 0.00187 8.0E-4 8.4E-4 -0.00192 -0.00187 1.8E-4 -5.9E-4 1.3E-4 -6.4E-4</array><array dataType="xsd:double" dictRef="cc:delta.total" size="54">0.00613 0.00613 4.3E-4 0.00597 3.8E-4 0.00334 7.8E-4 0.00334 0.01258 0.00597 7.8E-4 3.8E-4 -9.0E-5 4.0E-5 4.0E-5 3.2E-4 3.4E-4 -6.6E-4 -0.0027 -3.6E-4 0.00306 0.00486 -0.00243 -0.00243 -0.0027 0.00306 -3.6E-4 3.2E-4 3.4E-4 -6.6E-4 0.00112 3.5E-4 -2.7E-4 -0.00105 -0.00112 -3.5E-4 2.7E-4 0.00105 -1.8E-4 -1.3E-4 5.9E-4 6.4E-4 -8.0E-4 0.00192 -8.4E-4 0.00187 8.0E-4 8.4E-4 -0.00192 -0.00187 1.8E-4 -5.9E-4 1.3E-4 -6.4E-4</array><array dataType="xsd:double" dictRef="cc:newval" size="54">2.63578 2.63578 2.04768 2.6345 2.04842 2.62177 2.04699 2.62177 2.55677 2.6345 2.04699 2.04842 2.09109 2.09605 2.09605 2.10224 2.09682 2.08412 2.06779 2.12697 2.08842 2.13521 2.07399 2.07399 2.06779 2.08842 2.12697 2.10224 2.09682 2.08412 4.1E-4 -3.14125 -3.14136 1.8E-4 -4.1E-4 3.14125 3.14136 -1.8E-4 2.0E-5 3.14159 -3.14151 6.0E-5 -4.6E-4 -3.14108 3.14115 5.3E-4 4.6E-4 -3.14115 3.14108 -5.3E-4 -2.0E-5 3.14151 -3.14159 -6.0E-5</array></list></module><module cmlx:lineCount="5" cmlx:templateRef="l103.itemconverge"><list cmlx:lineCount="4" cmlx:templateRef="row"><array dataType="xsd:string" dictRef="g:item"/><array dataType="xsd:double" dictRef="g:value" size="4">4.5E-4 3.0E-4 0.0018 0.0012</array><array dataType="xsd:double" dictRef="g:threshold" size="4">0.0 0.0 0.0 0.0</array><array dataType="xsd:string" dictRef="g:converged" size="4">NO NO NO NO</array></list></module><module cmlx:lineCount="1" cmlx:templateRef="preddelta"><list cmlx:templateRef="predicted"><scalar dataType="xsd:double" dictRef="g:predchange">-9.253558E-5</scalar></list></module> GradGradGradGradGradGradGradGradGradGradGradGradGradGradGradGradGradGrad</module><module cmlx:lineCount="18" cmlx:templateRef="l202.orient"><molecule id="a12" cmlx:templateRef="atom"><atomArray><atom id="a1" elementType="C" x3="-0.002722" y3="3.02E-4" z3="-0.001577"><scalar dataType="xsd:integer" dictRef="cc:serial">1</scalar><scalar dataType="xsd:integer" dictRef="g:atomicType">0</scalar><scalar dataType="xsd:integer" dictRef="compchem:atomicNumber">6</scalar></atom><atom id="a2" elementType="C" x3="-0.002661" y3="-1.65E-4" z3="1.393218"><scalar dataType="xsd:integer" dictRef="cc:serial">2</scalar><scalar dataType="xsd:integer" dictRef="g:atomicType">0</scalar><scalar dataType="xsd:integer" dictRef="compchem:atomicNumber">6</scalar></atom><atom id="a3" elementType="C" x3="1.1992" y3="2.55E-4" z3="2.09968"><scalar dataType="xsd:integer" dictRef="cc:serial">3</scalar><scalar dataType="xsd:integer" dictRef="g:atomicType">0</scalar><scalar dataType="xsd:integer" dictRef="compchem:atomicNumber">6</scalar></atom><atom id="a4" elementType="C" x3="2.387453" y3="0.001169" z3="1.383525"><scalar dataType="xsd:integer" dictRef="cc:serial">4</scalar><scalar dataType="xsd:integer" dictRef="g:atomicType">0</scalar><scalar dataType="xsd:integer" dictRef="compchem:atomicNumber">6</scalar></atom><atom id="a5" elementType="C" x3="2.417999" y3="0.00113" z3="-0.003518"><scalar dataType="xsd:integer" dictRef="cc:serial">5</scalar><scalar dataType="xsd:integer" dictRef="g:atomicType">0</scalar><scalar dataType="xsd:integer" dictRef="compchem:atomicNumber">6</scalar></atom><atom id="a6" elementType="C" x3="1.207475" y3="7.03E-4" z3="-0.69503"><scalar dataType="xsd:integer" dictRef="cc:serial">6</scalar><scalar dataType="xsd:integer" dictRef="g:atomicType">0</scalar><scalar dataType="xsd:integer" dictRef="compchem:atomicNumber">6</scalar></atom><atom id="a7" elementType="H" x3="1.213637" y3="7.43E-4" z3="-1.77899"><scalar dataType="xsd:integer" dictRef="cc:serial">7</scalar><scalar dataType="xsd:integer" dictRef="g:atomicType">0</scalar><scalar dataType="xsd:integer" dictRef="compchem:atomicNumber">1</scalar></atom><atom id="a8" elementType="H" x3="3.370888" y3="0.001447" z3="-0.518661"><scalar dataType="xsd:integer" dictRef="cc:serial">8</scalar><scalar dataType="xsd:integer" dictRef="g:atomicType">0</scalar><scalar dataType="xsd:integer" dictRef="compchem:atomicNumber">1</scalar></atom><atom id="a9" elementType="F" x3="3.558079" y3="9.79E-4" z3="2.061901"><scalar dataType="xsd:integer" dictRef="cc:serial">9</scalar><scalar dataType="xsd:integer" dictRef="g:atomicType">0</scalar><scalar dataType="xsd:integer" dictRef="compchem:atomicNumber">9</scalar></atom><atom id="a10" elementType="H" x3="1.226032" y3="-9.2E-5" z3="3.182569"><scalar dataType="xsd:integer" dictRef="cc:serial">10</scalar><scalar dataType="xsd:integer" dictRef="g:atomicType">0</scalar><scalar dataType="xsd:integer" dictRef="compchem:atomicNumber">1</scalar></atom><atom id="a11" elementType="H" x3="-0.940074" y3="-8.02E-4" z3="1.937519"><scalar dataType="xsd:integer" dictRef="cc:serial">11</scalar><scalar dataType="xsd:integer" dictRef="g:atomicType">0</scalar><scalar dataType="xsd:integer" dictRef="compchem:atomicNumber">1</scalar></atom><atom id="a12" elementType="H" x3="-0.940259" y3="1.94E-4" z3="-0.544878"><scalar dataType="xsd:integer" dictRef="cc:serial">12</scalar><scalar dataType="xsd:integer" dictRef="g:atomicType">0</scalar><scalar dataType="xsd:integer" dictRef="compchem:atomicNumber">1</scalar></atom></atomArray><formula formalCharge="0" concise="C 6 H 5 F 1"><atomArray elementType="C H F" count="6.0 5.0 1.0"/></formula><bondArray><bond atomRefs2="a1 a2" id="a1_a2" order="2"/><bond atomRefs2="a1 a6" id="a1_a6" order="S"/><bond atomRefs2="a1 a12" id="a1_a12" order="S"/><bond atomRefs2="a2 a3" id="a2_a3" order="S"/><bond atomRefs2="a2 a11" id="a2_a11" order="S"/><bond atomRefs2="a3 a4" id="a3_a4" order="2"/><bond atomRefs2="a3 a10" id="a3_a10" order="S"/><bond atomRefs2="a4 a5" id="a4_a5" order="S"/><bond atomRefs2="a4 a9" id="a4_a9" order="S"/><bond atomRefs2="a5 a6" id="a5_a6" order="2"/><bond atomRefs2="a5 a8" id="a5_a8" order="S"/><bond atomRefs2="a6 a7" id="a6_a7" order="S"/></bondArray><property dictRef="cml:molmass"><scalar dataType="xsd:double" units="unit:dalton" xmlns:unit="http://www.xml-cml.org/unit/si/">96.1023032</scalar></property></molecule></module><module cmlx:lineCount="25" cmlx:templateRef="l202.distmat"><array dataType="xsd:double" size="75" dictRef="cc:distance">0.0 1.394795 0.0 2.420722 1.394116 0.0 2.762506 2.390134 1.38738 0.0 2.420722 2.794722 2.430826 1.38738 0.0 1.394795 2.413547 2.794722 2.390134 1.394116 0.0 2.15377 3.397394 3.878696 3.373329 2.145412 1.083977 0.0 3.413007 3.877643 3.401755 2.141368 1.083222 2.170591 2.498432 0.0 4.115488 3.622983 2.359181 1.352982 2.359181 3.622983 4.499873 2.587343 0.0 3.413007 2.170591 1.083222 2.141368 3.401755 3.877643 4.961574 4.277793 2.587343 0.0 2.15377 1.083977 2.145412 3.373329 3.878696 3.397394 4.295452 4.961574 4.499873 2.498432 1.083584 2.152976 3.401613 3.84609 3.401613 2.152976 2.482398 4.311227 5.199072 4.311227</array></module><module cmlx:lineCount="6" cmlx:templateRef="l202.stoich"><scalar dataType="xsd:string" dictRef="cc:formula" cmlx:templateRef="stoich">C6H5F</scalar><scalar dataType="xsd:string" dictRef="cc:frameworkgroup" cmlx:templateRef="framework">CS[SG(C2HF),X(C4H4)]</scalar><scalar dataType="xsd:integer" dictRef="cc:degfreedom" cmlx:templateRef="degfreedom">17</scalar><scalar dataType="xsd:string" dictRef="cc:pointgroup">CS</scalar><scalar dataType="xsd:integer" dictRef="cc:operatorcount">2</scalar><scalar dataType="xsd:string" dictRef="cc:largestabelian">CS</scalar><scalar dataType="xsd:integer" dictRef="cc:operatorcount">2</scalar><scalar dataType="xsd:string" dictRef="cc:largestconciseabelian">CS</scalar><scalar dataType="xsd:integer" dictRef="cc:operatorcount">2</scalar></module><module cmlx:lineCount="18" cmlx:templateRef="l202.orient"><molecule id="a12" cmlx:templateRef="atom"><atomArray><atom id="a1" elementType="C" x3="-2.45E-4" y3="-1.833742" z3="0.0"><scalar dataType="xsd:integer" dictRef="cc:serial">1</scalar><scalar dataType="xsd:integer" dictRef="g:atomicType">0</scalar><scalar dataType="xsd:integer" dictRef="compchem:atomicNumber">6</scalar></atom><atom id="a2" elementType="C" x3="0.0" y3="-1.134349" z3="1.206774"><scalar dataType="xsd:integer" dictRef="cc:serial">2</scalar><scalar dataType="xsd:integer" dictRef="g:atomicType">0</scalar><scalar dataType="xsd:integer" dictRef="compchem:atomicNumber">6</scalar></atom><atom id="a3" elementType="C" x3="0.0" y3="0.25974" z3="1.215413"><scalar dataType="xsd:integer" dictRef="cc:serial">3</scalar><scalar dataType="xsd:integer" dictRef="g:atomicType">0</scalar><scalar dataType="xsd:integer" dictRef="compchem:atomicNumber">6</scalar></atom><atom id="a4" elementType="C" x3="-2.73E-4" y3="0.928764" z3="0.0"><scalar dataType="xsd:integer" dictRef="cc:serial">4</scalar><scalar dataType="xsd:integer" dictRef="g:atomicType">0</scalar><scalar dataType="xsd:integer" dictRef="compchem:atomicNumber">6</scalar></atom><atom id="a5" elementType="C" x3="0.0" y3="0.25974" z3="-1.215413"><scalar dataType="xsd:integer" dictRef="cc:serial">5</scalar><scalar dataType="xsd:integer" dictRef="g:atomicType">0</scalar><scalar dataType="xsd:integer" dictRef="compchem:atomicNumber">6</scalar></atom><atom id="a6" elementType="C" x3="0.0" y3="-1.134349" z3="-1.206774"><scalar dataType="xsd:integer" dictRef="cc:serial">6</scalar><scalar dataType="xsd:integer" dictRef="g:atomicType">0</scalar><scalar dataType="xsd:integer" dictRef="compchem:atomicNumber">6</scalar></atom><atom id="a7" elementType="H" x3="1.35E-4" y3="-1.672508" z3="-2.147726"><scalar dataType="xsd:integer" dictRef="cc:serial">7</scalar><scalar dataType="xsd:integer" dictRef="g:atomicType">0</scalar><scalar dataType="xsd:integer" dictRef="compchem:atomicNumber">1</scalar></atom><atom id="a8" elementType="H" x3="1.86E-4" y3="0.825908" z3="-2.138897"><scalar dataType="xsd:integer" dictRef="cc:serial">8</scalar><scalar dataType="xsd:integer" dictRef="g:atomicType">0</scalar><scalar dataType="xsd:integer" dictRef="compchem:atomicNumber">1</scalar></atom><atom id="a9" elementType="F" x3="3.27E-4" y3="2.281746" z3="0.0"><scalar dataType="xsd:integer" dictRef="cc:serial">9</scalar><scalar dataType="xsd:integer" dictRef="g:atomicType">0</scalar><scalar dataType="xsd:integer" dictRef="compchem:atomicNumber">9</scalar></atom><atom id="a10" elementType="H" x3="1.86E-4" y3="0.825908" z3="2.138897"><scalar dataType="xsd:integer" dictRef="cc:serial">10</scalar><scalar dataType="xsd:integer" dictRef="g:atomicType">0</scalar><scalar dataType="xsd:integer" dictRef="compchem:atomicNumber">1</scalar></atom><atom id="a11" elementType="H" x3="1.35E-4" y3="-1.672508" z3="2.147726"><scalar dataType="xsd:integer" dictRef="cc:serial">11</scalar><scalar dataType="xsd:integer" dictRef="g:atomicType">0</scalar><scalar dataType="xsd:integer" dictRef="compchem:atomicNumber">1</scalar></atom><atom id="a12" elementType="H" x3="-4.66E-4" y3="-2.917326" z3="0.0"><scalar dataType="xsd:integer" dictRef="cc:serial">12</scalar><scalar dataType="xsd:integer" dictRef="g:atomicType">0</scalar><scalar dataType="xsd:integer" dictRef="compchem:atomicNumber">1</scalar></atom></atomArray><formula formalCharge="0" concise="C 6 H 5 F 1"><atomArray elementType="C H F" count="6.0 5.0 1.0"/></formula><bondArray><bond atomRefs2="a1 a2" id="a1_a2" order="2"/><bond atomRefs2="a1 a6" id="a1_a6" order="S"/><bond atomRefs2="a1 a12" id="a1_a12" order="S"/><bond atomRefs2="a2 a3" id="a2_a3" order="S"/><bond atomRefs2="a2 a11" id="a2_a11" order="S"/><bond atomRefs2="a3 a4" id="a3_a4" order="2"/><bond atomRefs2="a3 a10" id="a3_a10" order="S"/><bond atomRefs2="a4 a5" id="a4_a5" order="S"/><bond atomRefs2="a4 a9" id="a4_a9" order="S"/><bond atomRefs2="a5 a6" id="a5_a6" order="2"/><bond atomRefs2="a5 a8" id="a5_a8" order="S"/><bond atomRefs2="a6 a7" id="a6_a7" order="S"/></bondArray><property dictRef="cml:molmass"><scalar dataType="xsd:double" units="unit:dalton" xmlns:unit="http://www.xml-cml.org/unit/si/">96.1023032</scalar></property></molecule></module><module cmlx:lineCount="1" cmlx:templateRef="l202.rotconst"><array dataType="xsd:double" size="3" dictRef="cc:rotconst" cmlx:templateRef="rotconst">5.6832859 2.5625401 1.7661843</array></module><scalar dataType="xsd:integer" dictRef="g:buffer" cmlx:templateRef="buffer">131072</scalar><scalar dataType="xsd:string" dictRef="g:raffenetti" cmlx:templateRef="raff">Raffenetti</scalar><scalar dataType="xsd:string" dictRef="g:twoe" cmlx:templateRef="twoe">Two-electron</scalar><module cmlx:lineCount="13" cmlx:templateRef="l301.basis"><scalar dataType="xsd:string" dictRef="cc:basis">6-311+G(d,p)</scalar><scalar dataType="xsd:string" dictRef="cc:diffuse">(5D, 7F)</scalar><list cmlx:lineCount="2" cmlx:templateRef="symmadapt"><array dataType="xsd:integer" dictRef="cc:adapted" size="2">109 75</array><array dataType="xsd:string" dictRef="cc:symm" size="2">A' A"</array></list><scalar dataType="xsd:integer" dictRef="cc:basiscount">184</scalar><scalar dataType="xsd:integer" dictRef="g:primbasis">292</scalar><scalar dataType="xsd:integer" dictRef="cc:cartesianbasis">191</scalar><scalar dataType="xsd:integer" dictRef="cc:alphae">25</scalar><scalar dataType="xsd:integer" dictRef="cc:betae">25</scalar> IExCor= 402 DFT=T Ex=B+HF Corr=LYP ExCW=0 ScaHFX=  0.200000 ScaDFX=  0.800000  0.720000  1.000000  0.810000 IRadAn=      0 IRanWt=     -1 IRanGd=            0 ICorTp=0 NAtoms=   12 NActive=   12 NUniq=    8 SFac= 2.76D+00 NAtFMM=   60 Big=F</module> NPDir=0 NMtPBC=     1 NCelOv=     1 NCel=       1 NClECP=     1 NCelD=      1         NCelK=      1 NCelE2=     1 NClLst=     1 CellRange=     0.0.<module cmlx:lineCount="1" cmlx:templateRef="l302.basis"><list cmlx:templateRef="onee"><scalar dataType="xsd:string" dictRef="g:onee">One-electron integrals</scalar></list></module> One-electron integral symmetry used in STVInt NBasis=   184 RedAO= T  NBF=   109    75 NBsUse=   184 1.00D-06 NBFU=   109    75 Precomputing XC quadrature grid using IXCGrd= 2 IRadAn=           0 IRanWt=          -1 IRanGd=           0. NRdTot=     769 NPtTot=       97600 NUsed=      103032 NTot=      103064 NSgBfM=   191   191   191   191.<module cmlx:lineCount="1" cmlx:templateRef="l303.basis"><list cmlx:templateRef="l303"><scalar dataType="xsd:integer" dictRef="g:dipdrv">1</scalar></list></module> Initial guess read from the read-write file: Guess basis will be translated and rotated to current coordinates. Initial guess orbital symmetries:       Occupied  (A') (A') (A') (A") (A") (A') (A') (A') (A') (A")                 (A') (A") (A') (A') (A') (A") (A') (A') (A") (A")                 (A') (A') (A") (A") (A')       Virtual   (A") (A') (A') (A") (A') (A') (A") (A') (A') (A')                 (A") (A') (A") (A') (A') (A") (A') (A") (A') (A")                 (A') (A') (A") (A') (A") (A') (A') (A") (A') (A')                 (A") (A") (A') (A') (A") (A') (A') (A") (A') (A")                 (A') (A') (A") (A') (A') (A") (A') (A") (A") (A')                 (A") (A') (A") (A') (A') (A') (A") (A') (A') (A")                 (A') (A') (A") (A') (A') (A") (A") (A") (A') (A')                 (A") (A') (A") (A") (A') (A") (A') (A') (A') (A')                 (A') (A") (A") (A') (A") (A') (A") (A') (A') (A')                 (A") (A') (A') (A") (A") (A") (A') (A') (A") (A")                 (A') (A") (A') (A') (A") (A') (A') (A") (A') (A")                 (A") (A') (A") (A') (A") (A') (A') (A') (A') (A")                 (A') (A") (A') (A') (A") (A') (A") (A') (A") (A")                 (A') (A") (A') (A") (A') (A") (A') (A') (A') (A")                 (A') (A") (A') (A') (A") (A') (A") (A") (A') (A')                 (A") (A') (A') (A') (A") (A') (A") (A') (A') The electronic state of the initial guess is 1-A'.<module cmlx:lineCount="138" cmlx:templateRef="l502"><list cmlx:templateRef="l502.type"><scalar dataType="xsd:string" dictRef="g:l502.type">Closed</scalar></list> Requested convergence on RMS density matrix=1.00D-08 within 128 cycles. Requested convergence on MAX density matrix=1.00D-06. Requested convergence on             energy=1.00D-06. No special actions if energy rises. Using DIIS extrapolation, IDIIS=  1040. Integral symmetry usage will be decided dynamically.       103031 words used for storage of precomputed grid. IEnd=    250344 IEndB=    250344 NGot=   6291456 MDV=   6094425 LenX=   6094425 Fock matrices will be formed incrementally for  20 cycles.<module cmlx:lineCount="121" cmlx:templateRef="l502.cycle"><list cmlx:templateRef="cycle"><list><scalar dataType="xsd:integer" dictRef="cc:cycle">1</scalar><scalar dataType="xsd:integer" dictRef="g:pass">1</scalar><scalar dataType="xsd:integer" dictRef="g:idiag">1</scalar></list></list><module cmlx:lineCount="1" cmlx:templateRef="l502.e"><list cmlx:templateRef="l502.e"><scalar dataType="xsd:double" dictRef="g:l502.e">-331.580056171885</scalar></list></module> Cycle   2  Pass 1  IDiag  1:<module cmlx:lineCount="1" cmlx:templateRef="l502.ediff"><list cmlx:templateRef="l502.ediff"><list><scalar dataType="xsd:double" dictRef="g:l502.e">-331.580094340233</scalar><scalar dataType="xsd:double" dictRef="g:l502.deltae">-3.8168348E-5</scalar></list></list></module> Cycle   3  Pass 1  IDiag  1:<module cmlx:lineCount="1" cmlx:templateRef="l502.ediff"><list cmlx:templateRef="l502.ediff"><list><scalar dataType="xsd:double" dictRef="g:l502.e">-331.58009576579</scalar><scalar dataType="xsd:double" dictRef="g:l502.deltae">-1.425557E-6</scalar></list></list></module> Cycle   4  Pass 1  IDiag  1:<module cmlx:lineCount="1" cmlx:templateRef="l502.ediff"><list cmlx:templateRef="l502.ediff"><list><scalar dataType="xsd:double" dictRef="g:l502.e">-331.580098195426</scalar><scalar dataType="xsd:double" dictRef="g:l502.deltae">-2.429635E-6</scalar></list></list></module> Cycle   5  Pass 1  IDiag  1:<module cmlx:lineCount="1" cmlx:templateRef="l502.ediff"><list cmlx:templateRef="l502.ediff"><list><scalar dataType="xsd:double" dictRef="g:l502.e">-331.580098283669</scalar><scalar dataType="xsd:double" dictRef="g:l502.deltae">-8.8244E-8</scalar></list></list></module> Cycle   6  Pass 1  IDiag  1:<module cmlx:lineCount="1" cmlx:templateRef="l502.ediff"><list cmlx:templateRef="l502.ediff"><list><scalar dataType="xsd:double" dictRef="g:l502.e">-331.580098297811</scalar><scalar dataType="xsd:double" dictRef="g:l502.deltae">-1.4142E-8</scalar></list></list></module> Cycle   7  Pass 1  IDiag  1:                    CP:  8.53D-01<module cmlx:lineCount="1" cmlx:templateRef="l502.ediff"><list cmlx:templateRef="l502.ediff"><list><scalar dataType="xsd:double" dictRef="g:l502.e">-331.580098298494</scalar><scalar dataType="xsd:double" dictRef="g:l502.deltae">-6.83E-10</scalar></list></list></module> Cycle   8  Pass 1  IDiag  1:                    CP:  8.76D-01  5.55D-01<module cmlx:lineCount="1" cmlx:templateRef="l502.ediff"><list cmlx:templateRef="l502.ediff"><list><scalar dataType="xsd:double" dictRef="g:l502.e">-331.580098298692</scalar><scalar dataType="xsd:double" dictRef="g:l502.deltae">-1.99E-10</scalar></list></list></module> Cycle   9  Pass 1  IDiag  1:                    CP:  8.76D-01  6.25D-01  9.04D-01<module cmlx:lineCount="1" cmlx:templateRef="l502.ediff"><list cmlx:templateRef="l502.ediff"><list><scalar dataType="xsd:double" dictRef="g:l502.e">-331.580098298702</scalar><scalar dataType="xsd:double" dictRef="g:l502.deltae">-9.0E-12</scalar></list></list></module> RMSDP=5.55D-09 MaxDP=1.39D-07 DE=-9.21D-12 OVMax= 2.43D-07</module><module cmlx:lineCount="4" cmlx:templateRef="l502.footer"><list cmlx:templateRef="l502"><scalar dataType="xsd:string" dictRef="g:l502">SCF Done:  E(RB+HF-LYP) =  -331.580098299     A.U. after    9 cycles</scalar><scalar dataType="xsd:string" dictRef="g:l502">Convg  =    0.5550D-08             -V/T =  2.0040</scalar><scalar dataType="xsd:string" dictRef="g:l502">S**2   =   0.0000</scalar><scalar dataType="xsd:string" dictRef="g:l502">KE= 3.302690571905D+02 PE=-1.314142019242D+03 EE= 3.830662231553D+02</scalar></list></module></module><module cmlx:lineCount="1" cmlx:templateRef="l701"/> ... and contract with generalized density number  0.<module cmlx:lineCount="1" cmlx:templateRef="l702"/><module cmlx:lineCount="1" cmlx:templateRef="l701"/> Integral derivatives from FoFDir, PRISM(SPDF). Petite list used in FoFDir. MinBra= 0 MaxBra= 2 Meth= 1. IRaf=       0 NMat=   1 IRICut=       1 DoRegI=T DoRafI=F ISym2E= 1 JSym2E=1.<module cmlx:lineCount="2" cmlx:templateRef="l716.dipole"><array dataType="xsd:double" size="3" dictRef="x:d" cmlx:templateRef="dipole">-1.31093567E-5 -0.678742027 3.55271368E-15</array> ***** Axes restored to original set *****</module> ------------------------------------------------------------------- Center     Atomic                   Forces (Hartrees/Bohr) Number     Number              X              Y              Z -------------------------------------------------------------------    1          6           0.000169100   -0.000021138    0.000097984    2          6           0.000012531    0.000023677   -0.000321812    3          6           0.000895476    0.000019807    0.000408217    4          6          -0.003465636   -0.000092989   -0.002008369    5          6           0.000799413    0.000019738    0.000573985    6          6          -0.000272992    0.000023472    0.000170895    7          1           0.000000630    0.000002711    0.000048985    8          1          -0.000166865   -0.000001570    0.000000369    9          9           0.002008287    0.000033520    0.001163813   10          1          -0.000082647   -0.000001509   -0.000144962   11          1           0.000042814    0.000002741   -0.000023808   12          1           0.000059890   -0.000008459    0.000034703 ------------------------------------------------------------------- Cartesian Forces:  Max     0.003465636 RMS     0.000811241<module cmlx:lineCount="87" cmlx:templateRef="l103"><list cmlx:templateRef="berny"><scalar dataType="xsd:string" dictRef="g:optimization">Internal  Forces:  Max     0.002321133 RMS     0.000371442</scalar></list> Search for a local minimum. Step number   2 out of a maximum of  64 All quantities printed in internal units (Hartrees-Bohrs-Radians) Update second derivatives using D2CorX and points  1  2<module cmlx:lineCount="1" cmlx:templateRef="l103.trust"> Trust test= 1.15D+00 RLast= 2.06D-02 DXMaxT set to 3.00D-01</module>     Eigenvalues ---    0.02200   0.02203   0.02204   0.02205   0.02221     Eigenvalues ---    0.02239   0.02246   0.02266   0.02284   0.15852     Eigenvalues ---    0.16000   0.16000   0.16000   0.16002   0.21174     Eigenvalues ---    0.22000   0.22081   0.25000   0.35542   0.35548     Eigenvalues ---    0.35596   0.35657   0.35697   0.40293   0.42832     Eigenvalues ---    0.44935   0.47070   0.47960   0.48242   0.57914     Eigenvalues --- 1000.000001000.000001000.000001000.000001000.00000     Eigenvalues --- 1000.000001000.000001000.000001000.000001000.00000     Eigenvalues --- 1000.000001000.000001000.000001000.000001000.00000     Eigenvalues --- 1000.000001000.000001000.000001000.000001000.00000     Eigenvalues --- 1000.000001000.000001000.000001000.00000<module cmlx:lineCount="5" cmlx:templateRef="rfo"> Quartic linear search produced a step of  0.18931. Iteration  1 RMS(Cart)=  0.00070981 RMS(Int)=  0.00000120 Iteration  2 RMS(Cart)=  0.00000147 RMS(Int)=  0.00000044 Iteration  3 RMS(Cart)=  0.00000000 RMS(Int)=  0.00000044</module><module cmlx:lineCount="56" cmlx:templateRef="l103.deltas"><list cmlx:lineCount="54" cmlx:templateRef="delta"><array dataType="xsd:string" dictRef="cc:variable" size="54">R1 R2 R3 R4 R5 R6 R7 R8 R9 R10 R11 R12 A1 A2 A3 A4 A5 A6 A7 A8 A9 A10 A11 A12 A13 A14 A15 A16 A17 A18 D1 D2 D3 D4 D5 D6 D7 D8 D9 D10 D11 D12 D13 D14 D15 D16 D17 D18 D19 D20 D21 D22 D23 D24</array><array dataType="xsd:double" dictRef="g:lastval" size="54">2.63578 2.63578 2.04768 2.6345 2.04842 2.62177 2.04699 2.62177 2.55677 2.6345 2.04699 2.04842 2.09109 2.09605 2.09605 2.10224 2.09682 2.08412 2.06779 2.12697 2.08842 2.13521 2.07399 2.07399 2.06779 2.08842 2.12697 2.10224 2.09682 2.08412 4.1E-4 -3.14125 -3.14136 1.8E-4 -4.1E-4 3.14125 3.14136 -1.8E-4 2.0E-5 3.14159 -3.14151 6.0E-5 -4.6E-4 -3.14108 3.14115 5.3E-4 4.6E-4 -3.14115 3.14108 -5.3E-4 -2.0E-5 3.14151 -3.14159 -6.0E-5</array><array dataType="xsd:double" dictRef="cc:deriv" size="54">-2.3E-4 -2.3E-4 -7.0E-5 -1.0E-5 -5.0E-5 -6.9E-4 -1.5E-4 -6.9E-4 0.00232 -1.0E-5 -1.5E-4 -5.0E-5 2.0E-5 -1.0E-5 -1.0E-5 -2.0E-5 1.0E-5 1.0E-5 -3.2E-4 8.0E-5 2.4E-4 6.5E-4 -3.2E-4 -3.2E-4 -3.2E-4 2.4E-4 8.0E-5 -2.0E-5 1.0E-5 1.0E-5 -1.0E-5 -1.0E-5 -1.0E-5 0.0 1.0E-5 1.0E-5 1.0E-5 0.0 0.0 0.0 0.0 0.0 1.0E-5 -2.0E-5 1.0E-5 -2.0E-5 -1.0E-5 -1.0E-5 2.0E-5 2.0E-5 0.0 0.0 0.0 0.0</array><array dataType="xsd:double" dictRef="cc:delta.linear" size="54">0.00116 0.00116 8.0E-5 0.00113 7.0E-5 6.3E-4 1.5E-4 6.3E-4 0.00238 0.00113 1.5E-4 7.0E-5 -2.0E-5 1.0E-5 1.0E-5 6.0E-5 6.0E-5 -1.2E-4 -5.1E-4 -7.0E-5 5.8E-4 9.2E-4 -4.6E-4 -4.6E-4 -5.1E-4 5.8E-4 -7.0E-5 6.0E-5 6.0E-5 -1.2E-4 2.1E-4 7.0E-5 -5.0E-5 -2.0E-4 -2.1E-4 -7.0E-5 5.0E-5 2.0E-4 -3.0E-5 -2.0E-5 1.1E-4 1.2E-4 -1.5E-4 3.6E-4 -1.6E-4 3.5E-4 1.5E-4 1.6E-4 -3.6E-4 -3.5E-4 3.0E-5 -1.1E-4 2.0E-5 -1.2E-4</array><array dataType="xsd:double" dictRef="cc:delta.quad" size="54">-0.00114 -0.00114 -2.7E-4 -6.0E-4 -2.0E-4 -0.00207 -5.7E-4 -0.00207 0.0037 -6.0E-4 -5.7E-4 -2.0E-4 3.5E-4 -1.8E-4 -1.8E-4 3.0E-5 -6.0E-5 2.0E-5 -0.00147 3.0E-4 0.00118 0.00253 -0.00126 -0.00126 -0.00147 0.00118 3.0E-4 3.0E-5 -6.0E-5 2.0E-5 -7.6E-4 -5.3E-4 -2.8E-4 -5.0E-5 7.6E-4 5.3E-4 2.8E-4 5.0E-5 0.0 3.0E-5 -2.3E-4 -2.0E-4 7.9E-4 -0.00108 7.6E-4 -0.00111 -7.9E-4 -7.6E-4 0.00108 0.00111 0.0 2.3E-4 -3.0E-5 2.0E-4</array><array dataType="xsd:double" dictRef="cc:delta.total" size="54">2.0E-5 2.0E-5 -1.9E-4 5.3E-4 -1.3E-4 -0.00143 -4.2E-4 -0.00143 0.00608 5.3E-4 -4.2E-4 -1.3E-4 3.3E-4 -1.7E-4 -1.7E-4 9.0E-5 1.0E-5 -1.0E-4 -0.00198 2.3E-4 0.00175 0.00345 -0.00172 -0.00172 -0.00198 0.00175 2.3E-4 9.0E-5 1.0E-5 -1.0E-4 -5.5E-4 -4.7E-4 -3.3E-4 -2.5E-4 5.5E-4 4.7E-4 3.3E-4 2.5E-4 -3.0E-5 0.0 -1.1E-4 -8.0E-5 6.4E-4 -7.2E-4 6.0E-4 -7.5E-4 -6.4E-4 -6.0E-4 7.2E-4 7.5E-4 3.0E-5 1.1E-4 0.0 8.0E-5</array><array dataType="xsd:double" dictRef="cc:newval" size="54">2.6358 2.6358 2.04748 2.63502 2.04829 2.62033 2.04657 2.62033 2.56285 2.63502 2.04657 2.04829 2.09142 2.09588 2.09588 2.10234 2.09683 2.08402 2.06581 2.1272 2.09018 2.13866 2.07226 2.07226 2.06581 2.09018 2.1272 2.10234 2.09683 2.08402 -1.4E-4 3.14147 3.1415 -7.0E-5 1.4E-4 -3.14147 -3.1415 7.0E-5 -1.0E-5 -3.14159 3.14156 -2.0E-5 1.7E-4 3.14138 -3.14143 -2.2E-4 -1.7E-4 3.14143 -3.14138 2.2E-4 1.0E-5 -3.14156 3.14159 2.0E-5</array></list></module><module cmlx:lineCount="5" cmlx:templateRef="l103.itemconverge"><list cmlx:lineCount="4" cmlx:templateRef="row"><array dataType="xsd:string" dictRef="g:item"/><array dataType="xsd:double" dictRef="g:value" size="4">4.5E-4 3.0E-4 0.0018 0.0012</array><array dataType="xsd:double" dictRef="g:threshold" size="4">0.0 0.0 0.0 0.0</array><array dataType="xsd:string" dictRef="g:converged" size="4">NO NO NO YES</array></list></module><module cmlx:lineCount="1" cmlx:templateRef="preddelta"><list cmlx:templateRef="predicted"><scalar dataType="xsd:double" dictRef="g:predchange">-1.085582E-5</scalar></list></module> GradGradGradGradGradGradGradGradGradGradGradGradGradGradGradGradGradGrad</module><module cmlx:lineCount="18" cmlx:templateRef="l202.orient"><molecule id="a12" cmlx:templateRef="atom"><atomArray><atom id="a1" elementType="C" x3="-0.002546" y3="1.39E-4" z3="-0.001475"><scalar dataType="xsd:integer" dictRef="cc:serial">1</scalar><scalar dataType="xsd:integer" dictRef="g:atomicType">0</scalar><scalar dataType="xsd:integer" dictRef="compchem:atomicNumber">6</scalar></atom><atom id="a2" elementType="C" x3="-0.002719" y3="-7.9E-5" z3="1.393329"><scalar dataType="xsd:integer" dictRef="cc:serial">2</scalar><scalar dataType="xsd:integer" dictRef="g:atomicType">0</scalar><scalar dataType="xsd:integer" dictRef="compchem:atomicNumber">6</scalar></atom><atom id="a3" elementType="C" x3="1.1992" y3="1.75E-4" z3="2.100242"><scalar dataType="xsd:integer" dictRef="cc:serial">3</scalar><scalar dataType="xsd:integer" dictRef="g:atomicType">0</scalar><scalar dataType="xsd:integer" dictRef="compchem:atomicNumber">6</scalar></atom><atom id="a4" elementType="C" x3="2.385567" y3="6.34E-4" z3="1.382432"><scalar dataType="xsd:integer" dictRef="cc:serial">4</scalar><scalar dataType="xsd:integer" dictRef="g:atomicType">0</scalar><scalar dataType="xsd:integer" dictRef="compchem:atomicNumber">6</scalar></atom><atom id="a5" elementType="C" x3="2.418487" y3="0.00105" z3="-0.003798"><scalar dataType="xsd:integer" dictRef="cc:serial">5</scalar><scalar dataType="xsd:integer" dictRef="g:atomicType">0</scalar><scalar dataType="xsd:integer" dictRef="compchem:atomicNumber">6</scalar></atom><atom id="a6" elementType="C" x3="1.207543" y3="7.89E-4" z3="-0.695135"><scalar dataType="xsd:integer" dictRef="cc:serial">6</scalar><scalar dataType="xsd:integer" dictRef="g:atomicType">0</scalar><scalar dataType="xsd:integer" dictRef="compchem:atomicNumber">6</scalar></atom><atom id="a7" elementType="H" x3="1.213533" y3="0.001075" z3="-1.779028"><scalar dataType="xsd:integer" dictRef="cc:serial">7</scalar><scalar dataType="xsd:integer" dictRef="g:atomicType">0</scalar><scalar dataType="xsd:integer" dictRef="compchem:atomicNumber">1</scalar></atom><atom id="a8" elementType="H" x3="3.371165" y3="0.001553" z3="-0.518864"><scalar dataType="xsd:integer" dictRef="cc:serial">8</scalar><scalar dataType="xsd:integer" dictRef="g:atomicType">0</scalar><scalar dataType="xsd:integer" dictRef="compchem:atomicNumber">1</scalar></atom><atom id="a9" elementType="F" x3="3.558977" y3="0.001136" z3="2.062422"><scalar dataType="xsd:integer" dictRef="cc:serial">9</scalar><scalar dataType="xsd:integer" dictRef="g:atomicType">0</scalar><scalar dataType="xsd:integer" dictRef="compchem:atomicNumber">9</scalar></atom><atom id="a10" elementType="H" x3="1.225993" y3="1.3E-5" z3="3.18291"><scalar dataType="xsd:integer" dictRef="cc:serial">10</scalar><scalar dataType="xsd:integer" dictRef="g:atomicType">0</scalar><scalar dataType="xsd:integer" dictRef="compchem:atomicNumber">1</scalar></atom><atom id="a11" elementType="H" x3="-0.940159" y3="-4.71E-4" z3="1.937448"><scalar dataType="xsd:integer" dictRef="cc:serial">11</scalar><scalar dataType="xsd:integer" dictRef="g:atomicType">0</scalar><scalar dataType="xsd:integer" dictRef="compchem:atomicNumber">1</scalar></atom><atom id="a12" elementType="H" x3="-0.939995" y3="-1.52E-4" z3="-0.544726"><scalar dataType="xsd:integer" dictRef="cc:serial">12</scalar><scalar dataType="xsd:integer" dictRef="g:atomicType">0</scalar><scalar dataType="xsd:integer" dictRef="compchem:atomicNumber">1</scalar></atom></atomArray><formula formalCharge="0" concise="C 6 H 5 F 1"><atomArray elementType="C H F" count="6.0 5.0 1.0"/></formula><bondArray><bond atomRefs2="a1 a2" id="a1_a2" order="2"/><bond atomRefs2="a1 a6" id="a1_a6" order="S"/><bond atomRefs2="a1 a12" id="a1_a12" order="S"/><bond atomRefs2="a2 a3" id="a2_a3" order="S"/><bond atomRefs2="a2 a11" id="a2_a11" order="S"/><bond atomRefs2="a3 a4" id="a3_a4" order="2"/><bond atomRefs2="a3 a10" id="a3_a10" order="S"/><bond atomRefs2="a4 a5" id="a4_a5" order="S"/><bond atomRefs2="a4 a9" id="a4_a9" order="S"/><bond atomRefs2="a5 a6" id="a5_a6" order="2"/><bond atomRefs2="a5 a8" id="a5_a8" order="S"/><bond atomRefs2="a6 a7" id="a6_a7" order="S"/></bondArray><property dictRef="cml:molmass"><scalar dataType="xsd:double" units="unit:dalton" xmlns:unit="http://www.xml-cml.org/unit/si/">96.1023032</scalar></property></molecule></module><module cmlx:lineCount="25" cmlx:templateRef="l202.distmat"><array dataType="xsd:double" size="75" dictRef="cc:distance">0.0 1.394805 0.0 2.421034 1.394394 0.0 2.760123 2.388311 1.386621 0.0 2.421034 2.79539 2.431799 1.386621 0.0 1.394805 2.413798 2.79539 2.388311 1.394394 0.0 2.153728 3.397517 3.879297 3.37172 2.145544 1.083909 0.0 3.413154 3.87809 3.402521 2.141573 1.083 2.170791 2.498678 0.0 4.116323 3.623998 2.36008 1.3562 2.36008 3.623998 4.500871 2.588109 0.0 3.413154 2.170791 1.083 2.141573 3.402521 3.87809 4.961954 4.278423 2.588109 0.0 2.153728 1.083909 2.145544 3.37172 3.879297 3.397517 4.295415 4.961954 4.500871 2.498678 1.083482 2.152799 3.401766 3.843605 3.401766 2.152799 2.482174 4.311239 5.199805 4.311239</array></module><module cmlx:lineCount="6" cmlx:templateRef="l202.stoich"><scalar dataType="xsd:string" dictRef="cc:formula" cmlx:templateRef="stoich">C6H5F</scalar><scalar dataType="xsd:string" dictRef="cc:frameworkgroup" cmlx:templateRef="framework">CS[SG(C2HF),X(C4H4)]</scalar><scalar dataType="xsd:integer" dictRef="cc:degfreedom" cmlx:templateRef="degfreedom">17</scalar><scalar dataType="xsd:string" dictRef="cc:pointgroup">CS</scalar><scalar dataType="xsd:integer" dictRef="cc:operatorcount">2</scalar><scalar dataType="xsd:string" dictRef="cc:largestabelian">CS</scalar><scalar dataType="xsd:integer" dictRef="cc:operatorcount">2</scalar><scalar dataType="xsd:string" dictRef="cc:largestconciseabelian">CS</scalar><scalar dataType="xsd:integer" dictRef="cc:operatorcount">2</scalar></module><module cmlx:lineCount="18" cmlx:templateRef="l202.orient"><molecule id="a12" cmlx:templateRef="atom"><atomArray><atom id="a1" elementType="C" x3="9.2E-5" y3="-1.833565" z3="0.0"><scalar dataType="xsd:integer" dictRef="cc:serial">1</scalar><scalar dataType="xsd:integer" dictRef="g:atomicType">0</scalar><scalar dataType="xsd:integer" dictRef="compchem:atomicNumber">6</scalar></atom><atom id="a2" elementType="C" x3="5.0E-6" y3="-1.134369" z3="1.206899"><scalar dataType="xsd:integer" dictRef="cc:serial">2</scalar><scalar dataType="xsd:integer" dictRef="g:atomicType">0</scalar><scalar dataType="xsd:integer" dictRef="compchem:atomicNumber">6</scalar></atom><atom id="a3" elementType="C" x3="5.0E-6" y3="0.259996" z3="1.215899"><scalar dataType="xsd:integer" dictRef="cc:serial">3</scalar><scalar dataType="xsd:integer" dictRef="g:atomicType">0</scalar><scalar dataType="xsd:integer" dictRef="compchem:atomicNumber">6</scalar></atom><atom id="a4" elementType="C" x3="1.07E-4" y3="0.926558" z3="0.0"><scalar dataType="xsd:integer" dictRef="cc:serial">4</scalar><scalar dataType="xsd:integer" dictRef="g:atomicType">0</scalar><scalar dataType="xsd:integer" dictRef="compchem:atomicNumber">6</scalar></atom><atom id="a5" elementType="C" x3="5.0E-6" y3="0.259996" z3="-1.215899"><scalar dataType="xsd:integer" dictRef="cc:serial">5</scalar><scalar dataType="xsd:integer" dictRef="g:atomicType">0</scalar><scalar dataType="xsd:integer" dictRef="compchem:atomicNumber">6</scalar></atom><atom id="a6" elementType="C" x3="5.0E-6" y3="-1.134369" z3="-1.206899"><scalar dataType="xsd:integer" dictRef="cc:serial">6</scalar><scalar dataType="xsd:integer" dictRef="g:atomicType">0</scalar><scalar dataType="xsd:integer" dictRef="compchem:atomicNumber">6</scalar></atom><atom id="a7" elementType="H" x3="-4.1E-5" y3="-1.672643" z3="-2.147707"><scalar dataType="xsd:integer" dictRef="cc:serial">7</scalar><scalar dataType="xsd:integer" dictRef="g:atomicType">0</scalar><scalar dataType="xsd:integer" dictRef="compchem:atomicNumber">1</scalar></atom><atom id="a8" elementType="H" x3="-6.0E-5" y3="0.82602" z3="-2.139211"><scalar dataType="xsd:integer" dictRef="cc:serial">8</scalar><scalar dataType="xsd:integer" dictRef="g:atomicType">0</scalar><scalar dataType="xsd:integer" dictRef="compchem:atomicNumber">1</scalar></atom><atom id="a9" elementType="F" x3="-1.44E-4" y3="2.282758" z3="0.0"><scalar dataType="xsd:integer" dictRef="cc:serial">9</scalar><scalar dataType="xsd:integer" dictRef="g:atomicType">0</scalar><scalar dataType="xsd:integer" dictRef="compchem:atomicNumber">9</scalar></atom><atom id="a10" elementType="H" x3="-6.0E-5" y3="0.82602" z3="2.139211"><scalar dataType="xsd:integer" dictRef="cc:serial">10</scalar><scalar dataType="xsd:integer" dictRef="g:atomicType">0</scalar><scalar dataType="xsd:integer" dictRef="compchem:atomicNumber">1</scalar></atom><atom id="a11" elementType="H" x3="-4.1E-5" y3="-1.672643" z3="2.147707"><scalar dataType="xsd:integer" dictRef="cc:serial">11</scalar><scalar dataType="xsd:integer" dictRef="g:atomicType">0</scalar><scalar dataType="xsd:integer" dictRef="compchem:atomicNumber">1</scalar></atom><atom id="a12" elementType="H" x3="1.82E-4" y3="-2.917047" z3="0.0"><scalar dataType="xsd:integer" dictRef="cc:serial">12</scalar><scalar dataType="xsd:integer" dictRef="g:atomicType">0</scalar><scalar dataType="xsd:integer" dictRef="compchem:atomicNumber">1</scalar></atom></atomArray><formula formalCharge="0" concise="C 6 H 5 F 1"><atomArray elementType="C H F" count="6.0 5.0 1.0"/></formula><bondArray><bond atomRefs2="a1 a2" id="a1_a2" order="2"/><bond atomRefs2="a1 a6" id="a1_a6" order="S"/><bond atomRefs2="a1 a12" id="a1_a12" order="S"/><bond atomRefs2="a2 a3" id="a2_a3" order="S"/><bond atomRefs2="a2 a11" id="a2_a11" order="S"/><bond atomRefs2="a3 a4" id="a3_a4" order="2"/><bond atomRefs2="a3 a10" id="a3_a10" order="S"/><bond atomRefs2="a4 a5" id="a4_a5" order="S"/><bond atomRefs2="a4 a9" id="a4_a9" order="S"/><bond atomRefs2="a5 a6" id="a5_a6" order="2"/><bond atomRefs2="a5 a8" id="a5_a8" order="S"/><bond atomRefs2="a6 a7" id="a6_a7" order="S"/></bondArray><property dictRef="cml:molmass"><scalar dataType="xsd:double" units="unit:dalton" xmlns:unit=
[...]
E-5 1.7E-4 3.14138 -3.14143 -2.2E-4 -1.7E-4 3.14143 -3.14138 2.2E-4 1.0E-5 -3.14156 3.14159 2.0E-5</array><array dataType="xsd:double" dictRef="cc:deriv" size="54">-2.3E-4 -2.3E-4 0.0 -1.0E-4 0.0 -2.8E-4 -6.0E-5 -2.8E-4 4.1E-4 -1.0E-4 -6.0E-5 0.0 3.0E-5 -2.0E-5 -2.0E-5 -2.0E-5 -1.0E-5 3.0E-5 -6.0E-5 4.0E-5 2.0E-5 1.2E-4 -6.0E-5 -6.0E-5 -6.0E-5 2.0E-5 4.0E-5 -2.0E-5 -1.0E-5 3.0E-5 0.0 0.0 0.0 0.0 0.0 0.0 0.0 0.0 0.0 0.0 0.0 0.0 -1.0E-5 1.0E-5 -1.0E-5 1.0E-5 1.0E-5 1.0E-5 -1.0E-5 -1.0E-5 0.0 0.0 0.0 0.0</array><array dataType="xsd:double" dictRef="cc:delta.linear" size="54">0.0 0.0 0.0 0.0 0.0 0.0 0.0 0.0 0.0 0.0 0.0 0.0 0.0 0.0 0.0 0.0 0.0 0.0 0.0 0.0 0.0 0.0 0.0 0.0 0.0 0.0 0.0 0.0 0.0 0.0 0.0 0.0 0.0 0.0 0.0 0.0 0.0 0.0 0.0 0.0 0.0 0.0 0.0 0.0 0.0 0.0 0.0 0.0 0.0 0.0 0.0 0.0 0.0 0.0</array><array dataType="xsd:double" dictRef="cc:delta.quad" size="54">-4.7E-4 -4.7E-4 2.0E-5 -1.1E-4 1.0E-5 -6.8E-4 -2.0E-4 -6.8E-4 0.00139 -1.1E-4 -2.0E-4 1.0E-5 3.1E-4 -1.5E-4 -1.5E-4 -1.0E-4 -1.3E-4 2.4E-4 -4.7E-4 3.6E-4 1.1E-4 8.4E-4 -4.2E-4 -4.2E-4 -4.7E-4 1.1E-4 3.6E-4 -1.0E-4 -1.3E-4 2.4E-4 1.4E-4 1.2E-4 1.0E-4 7.0E-5 -1.4E-4 -1.2E-4 -1.0E-4 -7.0E-5 1.0E-5 0.0 3.0E-5 2.0E-5 -1.7E-4 2.1E-4 -1.6E-4 2.2E-4 1.7E-4 1.6E-4 -2.1E-4 -2.2E-4 -1.0E-5 -3.0E-5 0.0 -2.0E-5</array><array dataType="xsd:double" dictRef="cc:delta.total" size="54">-4.7E-4 -4.7E-4 2.0E-5 -1.1E-4 1.0E-5 -6.8E-4 -2.0E-4 -6.8E-4 0.00139 -1.1E-4 -2.0E-4 1.0E-5 3.1E-4 -1.5E-4 -1.5E-4 -1.0E-4 -1.3E-4 2.4E-4 -4.7E-4 3.6E-4 1.1E-4 8.4E-4 -4.2E-4 -4.2E-4 -4.7E-4 1.1E-4 3.6E-4 -1.0E-4 -1.3E-4 2.4E-4 1.4E-4 1.2E-4 1.0E-4 7.0E-5 -1.4E-4 -1.2E-4 -1.0E-4 -7.0E-5 1.0E-5 0.0 3.0E-5 2.0E-5 -1.7E-4 2.1E-4 -1.6E-4 2.2E-4 1.7E-4 1.6E-4 -2.1E-4 -2.2E-4 -1.0E-5 -3.0E-5 0.0 -2.0E-5</array><array dataType="xsd:double" dictRef="cc:newval" size="54">2.63533 2.63533 2.04751 2.63491 2.0483 2.61965 2.04637 2.61965 2.56424 2.63491 2.04637 2.0483 2.09173 2.09573 2.09573 2.10223 2.0967 2.08426 2.06534 2.12756 2.09029 2.1395 2.07184 2.07184 2.06534 2.09029 2.12756 2.10223 2.0967 2.08426 0.0 -3.14159 -3.14159 0.0 0.0 3.14159 3.14159 0.0 0.0 3.14159 3.14159 0.0 0.0 3.14159 -3.14159 0.0 0.0 3.14159 -3.14159 0.0 0.0 -3.14159 -3.14159 0.0</array></list></module><module cmlx:lineCount="5" cmlx:templateRef="l103.itemconverge"><list cmlx:lineCount="4" cmlx:templateRef="row"><array dataType="xsd:string" dictRef="g:item"/><array dataType="xsd:double" dictRef="g:value" size="4">4.5E-4 3.0E-4 0.0018 0.0012</array><array dataType="xsd:double" dictRef="g:threshold" size="4">0.0 0.0 0.0 0.0</array><array dataType="xsd:string" dictRef="g:converged" size="4">YES YES YES YES</array></list></module><module cmlx:lineCount="1" cmlx:templateRef="preddelta"><list cmlx:templateRef="predicted"><scalar dataType="xsd:double" dictRef="g:predchange">-7.478054E-7</scalar></list></module><module cmlx:lineCount="62" cmlx:templateRef="l103.optimizedparam"><list cmlx:templateRef="completed"><scalar dataType="xsd:string" dictRef="g:optimization">Optimization completed.</scalar><scalar dataType="xsd:string" dictRef="g:optimization">-- Stationary point found.</scalar></list><list cmlx:templateRef="length"><array dataType="xsd:string" size="12" dictRef="g:symbol">R1 R2 R3 R4 R5 R6 R7 R8 R9 R10 R11 R12</array><array dataType="xsd:integer" size="12" dictRef="g:atom1">1 1 1 2 2 3 3 4 4 5 5 6</array><array dataType="xsd:integer" size="12" dictRef="g:atom2">2 6 12 3 11 4 10 5 9 6 8 7</array><array dataType="xsd:double" size="12" dictRef="cc:distance">1.3948 1.3948 1.0835 1.3944 1.0839 1.3866 1.083 1.3866 1.3562 1.3944 1.083 1.0839</array><array delimiter="|" dataType="xsd:string" size="12" dictRef="g:deriv">|-DE/DX =   -0.0002|-DE/DX =   -0.0002|-DE/DX =    0.0|-DE/DX =   -0.0001|-DE/DX =    0.0|-DE/DX =   -0.0003|-DE/DX =   -0.0001|-DE/DX =   -0.0003|-DE/DX =    0.0004|-DE/DX =   -0.0001|-DE/DX =   -0.0001|-DE/DX =    0.0|</array></list><list cmlx:templateRef="angle"><array dataType="xsd:string" size="18" dictRef="g:symbol">A1 A2 A3 A4 A5 A6 A7 A8 A9 A10 A11 A12 A13 A14 A15 A16 A17 A18</array><array dataType="xsd:integer" size="18" dictRef="g:atom1">2 2 6 1 1 3 2 2 4 3 3 5 4 4 6 1 1 5</array><array dataType="xsd:integer" size="18" dictRef="g:atom2">1 1 1 2 2 2 3 3 3 4 4 4 5 5 5 6 6 6</array><array dataType="xsd:integer" size="18" dictRef="g:atom3">6 12 12 3 11 11 4 10 10 5 9 9 6 8 8 5 7 7</array><array dataType="xsd:double" size="18" dictRef="cc:angle">119.8298 120.0851 120.0851 120.4549 120.1393 119.4058 118.362 121.8797 119.7584 122.5364 118.7318 118.7318 118.362 119.7584 121.8797 120.4549 120.1393 119.4058</array><array delimiter="|" dataType="xsd:string" size="18" dictRef="g:deriv">|-DE/DX =    0.0|-DE/DX =    0.0|-DE/DX =    0.0|-DE/DX =    0.0|-DE/DX =    0.0|-DE/DX =    0.0|-DE/DX =   -0.0001|-DE/DX =    0.0|-DE/DX =    0.0|-DE/DX =    0.0001|-DE/DX =   -0.0001|-DE/DX =   -0.0001|-DE/DX =   -0.0001|-DE/DX =    0.0|-DE/DX =    0.0|-DE/DX =    0.0|-DE/DX =    0.0|-DE/DX =    0.0|</array></list><list cmlx:templateRef="dihed"><array dataType="xsd:string" size="23" dictRef="g:symbol">D1 D2 D3 D4 D5 D6 D7 D8 D9 D10 D11 D12 D13 D14 D15 D16 D17 D18 D19 D20 D21 D22 D23</array><array dataType="xsd:integer" size="23" dictRef="g:atom1">6 6 12 12 2 2 12 12 1 1 11 11 2 2 10 10 3 3 9 9 4 4 8</array><array dataType="xsd:integer" size="23" dictRef="g:atom2">1 1 1 1 1 1 1 1 2 2 2 2 3 3 3 3 4 4 4 4 5 5 5</array><array dataType="xsd:integer" size="23" dictRef="g:atom3">2 2 2 2 6 6 6 6 3 3 3 3 4 4 4 4 5 5 5 5 6 6 6</array><array dataType="xsd:integer" size="23" dictRef="g:atom4">3 11 3 11 5 7 5 7 4 10 4 10 5 9 5 9 6 8 6 8 1 7 1</array><array dataType="xsd:double" size="23" dictRef="cc:dihed">-0.0082 -180.0069 -180.0056 -0.0043 0.0082 180.0069 180.0056 0.0043 -7.0E-4 180.0001 179.998 -0.0012 0.01 179.9879 -179.9908 -0.0128 -0.01 179.9908 -179.9879 0.0128 7.0E-4 -179.998 -180.0001</array><array delimiter="|" dataType="xsd:string" size="23" dictRef="g:deriv">|-DE/DX =    0.0|-DE/DX =    0.0|-DE/DX =    0.0|-DE/DX =    0.0|-DE/DX =    0.0|-DE/DX =    0.0|-DE/DX =    0.0|-DE/DX =    0.0|-DE/DX =    0.0|-DE/DX =    0.0|-DE/DX =    0.0|-DE/DX =    0.0|-DE/DX =    0.0|-DE/DX =    0.0|-DE/DX =    0.0|-DE/DX =    0.0|-DE/DX =    0.0|-DE/DX =    0.0|-DE/DX =    0.0|-DE/DX =    0.0|-DE/DX =    0.0|-DE/DX =    0.0|-DE/DX =    0.0|</array></list> ! D24   D(8,5,6,7)              0.0012         -DE/DX =    0.0                 !</module> -------------------------------------------------------------------------------- GradGradGradGradGradGradGradGradGradGradGradGradGradGradGradGradGradGrad</module><module cmlx:lineCount="145" cmlx:templateRef="l9999.archive"><scalar dataType="xsd:string" dictRef="cc:hostname">GINC-PUBLIX</scalar><scalar dataType="xsd:string" dictRef="g:operation">Freq</scalar><scalar dataType="xsd:string" dictRef="cc:method">RB3LYP</scalar><scalar dataType="xsd:string" dictRef="cc:basis">6-311+G(d,p)</scalar><scalar dataType="xsd:string" dictRef="cc:jobname">NOBODY</scalar><scalar dataType="xsd:date" dictRef="cc:date">2006-09-03T00:00:00Z</scalar><scalar dataType="xsd:string" dictRef="g:keyword">#P</scalar><scalar dataType="xsd:string" dictRef="g:keyword">GEOM=ALLCHECK</scalar><scalar dataType="xsd:string" dictRef="g:keyword">GUESS=READ</scalar><scalar dataType="xsd:string" dictRef="g:keyword">SCRF=CHECK</scalar><scalar dataType="xsd:string" dictRef="g:keyword">GENCHK</scalar><scalar dataType="xsd:string" dictRef="g:keyword">RB3LYP/6-311+G(D,P)</scalar><scalar dataType="xsd:string" dictRef="g:keyword">FREQ</scalar><scalar dataType="xsd:string" dictRef="cc:title">fluorobz basis</scalar><molecule id="a12"><atomArray><atom id="a1" elementType="C" x3="-1.5864362201" y3="-4.309741E-4" z3="-0.9193372381"><scalar dataType="xsd:integer" dictRef="compchem:atomicNumber">6</scalar></atom><atom id="a2" elementType="C" x3="-1.5866093285" y3="-6.494397E-4" z3="0.4754672632"><scalar dataType="xsd:integer" dictRef="compchem:atomicNumber">6</scalar></atom><atom id="a3" elementType="C" x3="-0.3846904135" y3="-3.94555E-4" z3="1.1823797503"><scalar dataType="xsd:integer" dictRef="compchem:atomicNumber">6</scalar></atom><atom id="a4" elementType="C" x3="0.8016762504" y3="6.44684E-5" z3="0.464570034"><scalar dataType="xsd:integer" dictRef="compchem:atomicNumber">6</scalar></atom><atom id="a5" elementType="C" x3="0.8345968362" y3="4.805027E-4" z3="-0.921659717"><scalar dataType="xsd:integer" dictRef="compchem:atomicNumber">6</scalar></atom><atom id="a6" elementType="C" x3="-0.3763475499" y3="2.191406E-4" z3="-1.6129975744"><scalar dataType="xsd:integer" dictRef="compchem:atomicNumber">6</scalar></atom><atom id="a7" elementType="H" x3="-0.3703575661" y3="5.046311E-4" z3="-2.6968902144"><scalar dataType="xsd:integer" dictRef="compchem:atomicNumber">1</scalar></atom><atom id="a8" elementType="H" x3="1.7872746986" y3="9.825282E-4" z3="-1.4367263223"><scalar dataType="xsd:integer" dictRef="compchem:atomicNumber">1</scalar></atom><atom id="a9" elementType="F" x3="1.9750864368" y3="5.66482E-4" z3="1.1445594261"><scalar dataType="xsd:integer" dictRef="compchem:atomicNumber">9</scalar></atom><atom id="a10" elementType="H" x3="-0.3578972921" y3="-5.570182E-4" z3="2.265048246"><scalar dataType="xsd:integer" dictRef="compchem:atomicNumber">1</scalar></atom><atom id="a11" elementType="H" x3="-2.524049261" y3="-0.0010410298" z3="1.019586217"><scalar dataType="xsd:integer" dictRef="compchem:atomicNumber">1</scalar></atom><atom id="a12" elementType="H" x3="-2.5238859575" y3="-7.223069E-4" z3="-1.4625878686"><scalar dataType="xsd:integer" dictRef="compchem:atomicNumber">1</scalar></atom></atomArray><formula formalCharge="0" concise="C 6 H 5 F 1" dictRef="cc:formula.calc"/><bondArray><bond atomRefs2="a1 a2" id="a1_a2" order="2"/><bond atomRefs2="a1 a6" id="a1_a6" order="S"/><bond atomRefs2="a1 a12" id="a1_a12" order="S"/><bond atomRefs2="a2 a3" id="a2_a3" order="S"/><bond atomRefs2="a2 a11" id="a2_a11" order="S"/><bond atomRefs2="a3 a4" id="a3_a4" order="2"/><bond atomRefs2="a3 a10" id="a3_a10" order="S"/><bond atomRefs2="a4 a5" id="a4_a5" order="S"/><bond atomRefs2="a4 a9" id="a4_a9" order="S"/><bond atomRefs2="a5 a6" id="a5_a6" order="2"/><bond atomRefs2="a5 a8" id="a5_a8" order="S"/><bond atomRefs2="a6 a7" id="a6_a7" order="S"/></bondArray><property dictRef="cml:molmass"><scalar dataType="xsd:double" units="unit:dalton" xmlns:unit="http://www.xml-cml.org/unit/si/">96.1023032</scalar></property><formula concise="C 6 H 5 F 1" dictRef="cc:formula.user"/></molecule><scalar dataType="xsd:string" dictRef="cc:version">Sun64-SVR4-Unix-G03RevB.04</scalar><scalar dataType="xsd:string" dictRef="cc:electronicstate">1-A'</scalar><scalar dataType="xsd:double" dictRef="cc:hfenergy" units="nonsi:hartree">-331.5801112</scalar><scalar dataType="xsd:double" dictRef="cc:rmsd" units="nonsi:unknown">4.442E-9</scalar><scalar dataType="xsd:double" dictRef="cc:rmsf" units="nonsi:unknown">1.762E-4</scalar><array dataType="xsd:double" size="3" dictRef="cc:dipole" units="nonsi:debye">-0.5948222 -1.471E-4 -0.3446985</array><array dataType="xsd:double" size="108" dictRef="cc:dipolederiv" units="nonsi:unknown">-0.0105536 6.03E-5 0.0891241 4.98E-5 -0.1462066 3.64E-5 0.0891241 4.25E-5 -0.1127016 0.1024284 5.04E-5 0.0198655 8.5E-5 -0.1422636 -5.25E-5 -0.0422999 -5.88E-5 0.1042828 -0.2329243 -3.65E-5 -0.1185768 -5.6E-5 -0.1307346 -8.6E-5 0.0797734 2.45E-5 0.0028455 1.1658576 3.459E-4 0.5267092 5.02E-4 0.0878306 2.206E-4 0.5267093 1.301E-4 0.5621795 -0.0721804 3.19E-5 -0.0123434 4.99E-5 -0.1307345 6.6E-6 -0.2106937 -1.029E-4 -0.1578984 0.0941463 8.27E-5 -0.0375537 6.67E-5 -0.1422636 -7.24E-5 0.0246117 -7.69E-5 0.1125649 0.07135 -2.86E-5 0.0023603 -1.68E-5 0.1397492 4.44E-5 6.218E-4 5.65E-5 -0.0862208 -0.0195398 -7.84E-5 0.0429832 -8.09E-5 0.159906 4.62E-5 0.0515515 4.93E-5 0.0597184 -1.0815364 -2.665E-4 -0.5048794 -4.327E-4 -0.1443526 -2.233E-4 -0.5048795 -1.27E-4 -0.502878 0.0809061 -2.1E-5 -0.0060107 -1.96E-5 0.159906 2.96E-5 -0.0145789 2.71E-5 -0.0407276 -0.04598 -7.45E-5 0.0678597 -8.02E-5 0.1397491 5.55E-5 0.0695982 3.98E-5 0.0311093 -0.0519738 -6.57E-5 -0.0695382 -6.73E-5 0.1494145 -5.2E-6 -0.0695382 -4.2E-6 0.027726</array><array dataType="xsd:double" size="6" dictRef="cc:polarizability" units="nonsi:unknown">79.5779723 0.0133758 40.3623814 1.0835123 -0.0077807 78.3361304</array><scalar dataType="xsd:string" dictRef="cc:pointgroup">CS [SG(C2H1F1),X(C4H4)]</scalar><array dataType="xsd:double" size="666" dictRef="x:unknown">0.71759401 2.3206E-4 0.1293116 0.03896047 -8.222E-5 0.67294029 -0.12776784 -3.073E-5 0.03122638 0.71530151 -1.663E-5 -0.06101298 4.996E-5 1.9484E-4 0.13356361 -0.03122671 2.822E-5 -0.32868297 -0.03522578 -1.0104E-4 0.67401028 0.03149802 2.52E-5 -0.07504945 -0.28109728 -5.903E-5 -0.0583158 0.6671862 1.249E-5 0.00552284 -1.999E-5 -4.777E-5 -0.05748467 1.96E-6 1.7159E-4 0.12337054 -0.03009247 -4.23E-6 -0.02510955 -0.12200314 -1.811E-5 -0.18154327 0.00560014 -9.695E-5 0.75202487 -0.0188627 -1.149E-5 0.03411151 -0.06071688 -1.319E-5 -0.03093719 -0.25400136 -7.46E-5 0.13994746 0.65264035 -1.114E-5 -0.00361573 2.436E-5 -2.781E-5 1.718E-5 -2.109E-5 -6.99E-5 -0.06429855 6.379E-5 1.9733E-4 0.14782435 0.03411151 2.416E-5 -0.057959 0.02697963 -1.77E-6 0.07191155 0.062188 3.354E-5 -0.19578147 -0.02973249 -1.1694E-4 0.68671781 -0.05647278 -2.617E-5 0.02032062 -0.01555219 4.0E-8 -0.02767521 0.03201795 2.58E-6 0.02523771 -0.12297437 -4.097E-5 0.06486031 0.73588292 -1.816E-5 0.00552283 -7.59E-6 3.06E-6 -0.00152559 2.55E-6 -5.48E-6 0.00706941 1.384E-5 -2.113E-5 -0.06429856 1.0546E-4 2.4325E-4 0.12337061 -0.02463637 -2.063E-5 0.06286126 -0.02704231 -9.0E-7 -0.05235262 0.07142483 3.31E-5 -0.02337608 -0.01289914 6.644E-5 -0.32680846 -0.03376761 -1.6378E-4 0.68332809 -0.27901336 -1.0398E-4 0.05544697 0.03206365 -7.18E-6 0.07668197 -0.06685973 -2.091E-5 0.0017274 0.03741622 3.565E-5 -0.08717395 -0.28394328 -6.847E-5 -0.05668486 0.65382572 -1.17E-4 -0.06101303 5.323E-5 4.58E-6 0.00555603 3.311E-5 -2.58E-5 -0.0015256 8.0E-7 2.362E-5 1.72E-5 -2.568E-5 -5.182E-5 -0.05748468 1.281E-5 1.9694E-4 0.13356365 0.11790006 7.435E-5 -0.1774374 0.02928894 1.939E-5 -0.02866469 0.0023603 1.94E-6 -0.00104508 -0.02925712 -7.86E-6 -0.02622156 -0.1203722 -1.038E-5 -0.17869727 3.92E-6 -1.5552E-4 0.73548603 0.00487256 -6.21E-6 0.02803291 -0.00451296 -4.88E-6 0.00253974 -0.00112708 2.0E-8 -1.9535E-4 -0.00367308 -4.31E-6 -0.00136509 0.00366368 7.96E-6 -0.02861621 -0.05889653 -9.68E-6 0.00175178 0.05835485 3.44E-6 0.00349876 1.288E-5 -5.33E-6 0.0068058 3.72E-6 -1.83E-6 -0.00118528 -9.5E-7 -2.29E-6 0.00763498 -1.43E-6 1.03E-6 0.00335144 -4.75E-6 -1.21E-5 -0.03679032 7.86E-5 1.279E-5 0.02543455 -0.00281378 2.41E-6 -0.01099815 0.00330697 3.2E-6 4.6418E-4 -2.125E-5 -4.6E-7 7.1513E-4 -0.00226116 6.6E-7 0.00156628 0.00215752 4.66E-6 -0.01152654 0.00156766 7.898E-5 -0.33669848 -0.00148611 -8.678E-5 0.35668264 -0.00240013 -2.84E-6 -0.0038887 1.8101E-4 6.0E-7 -7.155E-4 0.00141255 -1.43E-6 -5.0955E-4 7.2758E-4 -6.4E-7 -0.00228833 -0.27336942 -1.241E-4 0.12078642 -0.01705884 -1.14E-5 0.01474613 0.00101105 2.06E-6 -1.5557E-4 0.28884372 -2.83E-6 0.00713753 6.8E-7 7.0E-7 -0.00112446 -4.6E-7 8.0E-8 0.00521853 2.52E-6 -1.22E-5 0.00484576 5.04E-6 -1.2316E-4 -0.03371484 6.942E-5 -3.17E-6 0.0024114 3.06E-6 1.98E-6 -0.0041776 -1.34E-6 1.3597E-4 0.02378401 -0.00337188 1.07E-6 -9.5309E-4 -0.00110435 -5.1E-7 -7.9011E-4 -0.00119908 2.55E-6 -0.00578616 0.03028291 1.524E-5 -0.0093658 0.11902542 7.221E-5 -0.12491868 -0.01497863 -8.78E-6 0.0125468 5.6988E-4 -1.25E-6 7.9399E-4 -0.12921608 -7.839E-5 0.12557437 -0.00152928 6.7E-7 -0.00374716 -2.813E-4 -5.4E-6 0.00949193 -0.05334782 -2.473E-5 -0.03120754 -0.23463572 -7.123E-5 -0.09289447 -0.01181534 -8.87E-6 -0.0138662 5.4751E-4 -3.55E-6 -4.154E-5 -7.4111E-4 -7.0E-8 -3.727E-4 0.00144934 3.2E-6 -6.0998E-4 0.29978566 -2.9E-7 -0.00115731 -2.7E-6 -2.35E-6 0.00733657 4.03E-6 -2.216E-5 0.00686652 -1.451E-5 -8.367E-5 -0.0404538 -3.44E-5 3.9E-6 0.00686653 4.39E-6 -5.74E-6 0.00733657 4.06E-6 1.5E-7 -3.65E-6 1.2E-7 2.14E-6 -0.00420059 -2.11E-6 1.0581E-4 0.02271135 -0.00374716 -2.15E-6 0.00276546 4.3343E-4 1.8E-6 -0.0048682 0.00993466 1.77E-6 0.01401488 -0.09289448 -2.719E-5 -0.12816642 -0.05500839 -2.077E-5 -0.0275176 0.00901697 5.79E-6 -0.00569701 -0.00208309 1.0E-7 -0.00104362 6.0985E-4 -7.1E-7 0.00297168 0.13488393 4.289E-5 0.14519092 -0.00444299 -3.29E-6 -0.00220119 0.00512747 4.94E-6 -0.02769285 -0.05816485 -5.19E-6 -0.00430103 0.00520616 -4.23E-6 0.02771639 -0.00474361 -3.54E-6 0.00232881 -0.0013351 -8.0E-8 -2.3552E-4 9.22E-5 2.0E-7 -1.105E-5 1.1298E-4 -5.0E-7 0.00133627 0.00259527 2.48E-6 -0.00126668 0.05445126 -3.3E-6 0.00713753 1.8E-7 7.9E-7 0.0024114 -6.76E-6 -8.25E-6 -0.03371478 4.786E-5 1.46E-6 0.00484577 8.55E-6 -3.25E-6 0.00521853 2.68E-6 -2.2E-7 -0.00112446 -4.1E-7 2.8E-7 -6.9518E-4 -2.0E-7 -4.0E-8 1.9309E-4 4.5E-7 3.45E-6 -0.00420059 -1.08E-6 7.48E-6 0.02378395 -0.00271801 -2.1E-7 0.00108978 0.0020319 2.71E-6 -0.00963951 -0.00254003 4.63E-5 -0.34012331 -0.00485486 1.75E-6 -0.01384438 0.00301833 1.6E-6 3.6999E-4 1.5334E-4 -3.2E-7 7.26E-4 5.16E-6 -4.0E-8 -7.376E-5 -1.7947E-4 1.4E-7 -5.4994E-4 -4.685E-5 -8.7E-7 0.00182575 0.0051063 -5.055E-5 0.3599669 0.00380475 4.9E-7 -0.00220186 -0.26658899 -9.429E-5 0.12058919 -0.01918538 -9.63E-6 0.01525154 -0.00129331 -2.53E-6 -0.00362492 1.6626E-4 5.8E-7 -7.6242E-4 0.00175598 -1.29E-6 -2.8555E-4 4.936E-5 8.0E-8 -1.695E-4 -3.527E-5 1.6E-7 6.2E-5 -0.00202825 -7.7E-7 3.6492E-4 0.00102638 1.8E-6 -1.6436E-4 0.28164859 -4.84E-6 0.00349876 4.14E-6 -9.595E-5 -0.03679033 5.135E-5 -2.07E-6 0.00335144 3.79E-6 -3.9E-6 0.00763498 2.68E-6 -6.7E-7 -0.00118528 -1.77E-6 -5.9E-7 0.0068058 1.27E-6 0.0 7.519E-5 -2.0E-8 2.6E-7 -6.9518E-4 -2.5E-7 1.6E-7 -3.65E-6 -1.3E-7 1.46E-6 -0.0041776 -7.4E-7 1.0412E-4 0.02543457 0.02864483 1.211E-5 -0.00993034 0.1207733 5.334E-5 -0.12900601 -0.01552219 -5.97E-6 0.01132252 -0.00272885 2.0E-7 -8.1347E-4 -9.3652E-4 -4.7E-7 -5.7822E-4 -0.00105278 1.65E-6 -0.00580476 0.0013917 9.7E-7 -6.5104E-4 7.821E-5 -1.0E-7 5.371E-5 -0.00134547 -5.7E-7 2.4352E-4 5.611E-4 -5.0E-7 7.7866E-4 -0.1294482 -5.968E-5 0.13338888 -0.26728026 -7.372E-5 -0.12101049 0.00384382 1.9E-7 0.00248622 0.00166879 -2.43E-6 5.4483E-4 1.6711E-4 -2.1E-7 0.0012234 -0.00285981 -5.1E-6 0.00373506 -0.01850223 -4.52E-6 -0.01585921 9.0706E-4 2.03E-6 2.5898E-4 -8.7456E-4 -2.2E-7 -7.9647E-4 1.04E-6 5.2E-7 -2.4395E-4 7.483E-5 -1.9E-7 1.8853E-4 6.7988E-4 2.0E-6 -4.1513E-4 0.28217434 -7.379E-5 -0.03483079 -3.293E-5 5.97E-6 0.00224745 4.41E-6 -2.35E-6 0.00680959 2.15E-6 7.0E-8 -1.5357E-4 7.9E-7 -4.75E-6 0.00680959 2.97E-6 -1.021E-5 0.00224745 -8.5E-6 1.88E-6 -0.0039487 -1.24E-6 -5.6E-7 3.2234E-4 -2.4E-7 5.5E-7 -0.00109795 -3.2E-7 2.6E-7 3.2234E-4 2.3E-7 1.29E-6 -0.0039487 -9.9E-7 8.165E-5 0.02522096 -0.12101048 -3.289E-5 -0.12858629 -0.02866498 -8.07E-6 -0.01083863 0.00113988 2.21E-6 -0.00531247 0.0012234 6.2E-7 -0.00123507 0.00314001 2.66E-6 -7.8388E-4 0.01529198 3.93E-6 0.01150743 -5.4532E-4 -1.08E-6 7.6937E-4 7.326E-4 1.5E-7 4.2322E-4 -2.4395E-4 -3.3E-7 2.8064E-4 -0.00134054 -2.2E-7 -5.2617E-4 3.8916E-4 -6.4E-7 9.9655E-4 0.12988824 3.367E-5 0.13330529</array><array dataType="xsd:double" size="36" dictRef="x:unknown">-2.3076E-4 -6.76E-6 -1.3373E-4 -8.314E-5 8.72E-6 1.8299E-4 -1.8559E-4 7.75E-6 3.206E-5 7.3225E-4 -3.653E-5 4.2432E-4 -6.446E-5 7.84E-6 -1.7696E-4 1.1743E-4 8.87E-6 -1.6312E-4 1.948E-5 9.3E-7 1.5E-6 4.926E-5 -8.5E-7 -4.016E-5 -3.5438E-4 1.364E-5 -2.0535E-4 -1.035E-5 -8.9E-7 6.271E-5 1.098E-5 9.3E-7 1.616E-5 -7.1E-7 -3.65E-6 -4.1E-7</array></module> THE THINKER DIES, BUT HIS THOUGHTS ARE BEYOND THE  REACH OF DESTRUCTION.  MEN ARE MORTAL; BUT IDEAS  ARE IMMORTAL.                              -- WALTER LIPPMANN<module cmlx:lineCount="3" cmlx:templateRef="jobcpu"><scalar dictRef="cc:jobtime" dataType="xsd:string">PT4922.300S</scalar><scalar dataType="xsd:string" dictRef="cc:jobdatetime.end">Sun Sep  3 06:31:55 2006</scalar><scalar dataType="xsd:string" dictRef="cc:program">Gaussian 03</scalar></module></module>
