<?xml version="1.0" encoding="UTF-8"?>
<module cmlx:templateRef="gaussian.log" xmlns="http://www.xml-cml.org/schema" xmlns:cmlx="http://www.xml-cml.org/schema/cmlx"> Entering Gaussian System, Link 0=/usr/local/gaussian/g03/g03
 Initial command:
 /usr/local/gaussian/g03/l1.exe /tmp/webmo/3/Gau-15097.inp -scrdir=/tmp/webmo/3/
 Entering Link 1 = /usr/local/gaussian/g03/l1.exe PID=     15098.
  
<module cmlx:lineCount="60" cmlx:templateRef="l1.legal"><scalar dataType="xsd:string" dictRef="g:l1.legal">Copyright (c) 1988,1990,1992,1993,1995,1998,2003, Gaussian, Inc.</scalar></module>  

<module cmlx:lineCount="20" cmlx:templateRef="l1.citation"><list cmlx:templateRef="citation"><scalar dataType="xsd:string" dictRef="g:l1.citation">Cite this work as:</scalar></list></module> 
<module cmlx:lineCount="25" cmlx:templateRef="l1.end"><scalar dataType="xsd:string" dictRef="cc:run.date">21-Nov-2006</scalar><scalar dataType="xsd:string" dictRef="cc:program">Gaussian 03</scalar><scalar dataType="xsd:string" dictRef="cc:version">x86-Linux-G03RevB.04</scalar><scalar dataType="xsd:string" dictRef="cc:program.date">2-Jun-2003</scalar><list cmlx:templateRef="control"><scalar dataType="xsd:string" dictRef="g:control">1/14=-1,18=20,26=3,38=1/1,3</scalar></list><list cmlx:templateRef="control"><scalar dataType="xsd:string" dictRef="g:control">2/9=110,17=6,18=5,40=1/2</scalar></list><list cmlx:templateRef="control"><scalar dataType="xsd:string" dictRef="g:control">3/5=1,6=6,7=1,11=2,16=1,25=1,30=1,74=-5/1,2,3</scalar></list><list cmlx:templateRef="control"><scalar dataType="xsd:string" dictRef="g:control">4//1</scalar></list><list cmlx:templateRef="control"><scalar dataType="xsd:string" dictRef="g:control">5/5=2,38=5/2</scalar></list><list cmlx:templateRef="control"><scalar dataType="xsd:string" dictRef="g:control">6/7=2,8=2,9=2,10=2,28=1/1</scalar></list><list cmlx:templateRef="control"><scalar dataType="xsd:string" dictRef="g:control">7//1,2,3,16</scalar></list><list cmlx:templateRef="control"><scalar dataType="xsd:string" dictRef="g:control">1/14=-1,18=20/3(1)</scalar></list><list cmlx:templateRef="control"><scalar dataType="xsd:string" dictRef="g:control">99//99</scalar></list><list cmlx:templateRef="control"><scalar dataType="xsd:string" dictRef="g:control">2/9=110/2</scalar></list><list cmlx:templateRef="control"><scalar dataType="xsd:string" dictRef="g:control">3/5=1,6=6,7=1,11=2,16=1,25=1,30=1,74=-5/1,2,3</scalar></list><list cmlx:templateRef="control"><scalar dataType="xsd:string" dictRef="g:control">4/5=5,16=3/1</scalar></list><list cmlx:templateRef="control"><scalar dataType="xsd:string" dictRef="g:control">5/5=2,38=5/2</scalar></list><list cmlx:templateRef="control"><scalar dataType="xsd:string" dictRef="g:control">7//1,2,3,16</scalar></list><list cmlx:templateRef="control"><scalar dataType="xsd:string" dictRef="g:control">1/14=-1,18=20/3(-5)</scalar></list><list cmlx:templateRef="control"><scalar dataType="xsd:string" dictRef="g:control">2/9=110/2</scalar></list><list cmlx:templateRef="control"><scalar dataType="xsd:string" dictRef="g:control">6/7=2,8=2,9=2,10=2,19=2,28=1/1</scalar></list><list cmlx:templateRef="control"><scalar dataType="xsd:string" dictRef="g:control">99/9=1/99</scalar></list></module><module cmlx:lineCount="3" cmlx:templateRef="l101.title"><scalar dataType="xsd:string" dictRef="cc:title" cmlx:templateRef="title">Cl</scalar></module><module cmlx:lineCount="4" cmlx:templateRef="l101"><list cmlx:templateRef="rest"><scalar dataType="xsd:string" dictRef="x:l101"/></list></module>
<module cmlx:lineCount="7" cmlx:templateRef="l103"><list cmlx:templateRef="berny"><scalar dataType="xsd:string" dictRef="g:optimization">Initialization pass.</scalar></list> No Z-matrix variables, so optimization will use Cartesian coordinates.
<module cmlx:lineCount="2" cmlx:templateRef="l103.trust"><scalar dataType="xsd:double" dictRef="g:trustrad">0.1</scalar><scalar dataType="xsd:double" dictRef="g:fncerr">1.0E-7</scalar><scalar dataType="xsd:double" dictRef="g:grderr">1.0E-6</scalar><scalar dataType="xsd:integer" dictRef="g:nstep">20</scalar><scalar dataType="xsd:integer" dictRef="g:allowedstep">100</scalar></module> GradGradGradGradGradGradGradGradGradGradGradGradGradGradGradGradGradGrad
</module>
<module cmlx:lineCount="7" cmlx:templateRef="l202.orient"><molecule id="mol.l202.orient" cmlx:templateRef="atom"><atomArray><atom id="a1" elementType="Cl" x3="0.0" y3="0.0" z3="0.0"><scalar dataType="xsd:integer" dictRef="cc:serial">1</scalar><scalar dataType="xsd:integer" dictRef="g:atomicType">0</scalar><scalar dataType="xsd:integer" dictRef="compchem:atomicNumber">17</scalar></atom></atomArray><formula formalCharge="0" concise="Cl 1"><atomArray elementType="Cl" count="1.0"/></formula><property dictRef="cml:molmass"><scalar dataType="xsd:double" units="unit:dalton" xmlns:unit="http://www.xml-cml.org/unit/si/">35.453</scalar></property></molecule></module><module cmlx:lineCount="6" cmlx:templateRef="l202.stoich"><scalar dataType="xsd:string" dictRef="cc:formula" cmlx:templateRef="stoich">Cl(2)</scalar><scalar dataType="xsd:string" dictRef="cc:frameworkgroup" cmlx:templateRef="framework">OH[O(Cl)]</scalar><scalar dataType="xsd:integer" dictRef="cc:degfreedom" cmlx:templateRef="degfreedom">0</scalar><scalar dataType="xsd:string" dictRef="cc:pointgroup">OH</scalar><scalar dataType="xsd:integer" dictRef="cc:operatorcount">48</scalar><scalar dataType="xsd:string" dictRef="cc:largestabelian">D2H</scalar><scalar dataType="xsd:integer" dictRef="cc:operatorcount">8</scalar><scalar dataType="xsd:string" dictRef="cc:largestconciseabelian">C1</scalar><scalar dataType="xsd:integer" dictRef="cc:operatorcount">1</scalar></module><module cmlx:lineCount="7" cmlx:templateRef="l202.orient"><molecule id="a1" cmlx:templateRef="atom"><atomArray><atom id="a1" elementType="Cl" x3="0.0" y3="0.0" z3="0.0"><scalar dataType="xsd:integer" dictRef="cc:serial">1</scalar><scalar dataType="xsd:integer" dictRef="g:atomicType">0</scalar><scalar dataType="xsd:integer" dictRef="compchem:atomicNumber">17</scalar></atom></atomArray><formula formalCharge="0" concise="Cl 1"><atomArray elementType="Cl" count="1.0"/></formula><property dictRef="cml:molmass"><scalar dataType="xsd:double" units="unit:dalton" xmlns:unit="http://www.xml-cml.org/unit/si/">35.453</scalar></property></molecule></module><scalar dataType="xsd:integer" dictRef="g:buffer" cmlx:templateRef="buffer">262144</scalar><scalar dataType="xsd:string" dictRef="g:raffenetti" cmlx:templateRef="raff">Raffenetti</scalar><scalar dataType="xsd:string" dictRef="g:twoe" cmlx:templateRef="twoe">Two-electron</scalar><scalar dataType="xsd:double" dictRef="cc:nucrepener" cmlx:templateRef="nucrep">0.0</scalar><module cmlx:lineCount="16" cmlx:templateRef="l301.basis"><scalar dataType="xsd:string" dictRef="cc:basis">6-31G(d)</scalar><scalar dataType="xsd:string" dictRef="cc:diffuse">(6D, 7F)</scalar><list cmlx:lineCount="8" cmlx:templateRef="symmadapt"><array dataType="xsd:integer" dictRef="cc:adapted" size="8">7 1 1 1 0 3 3 3</array><array dataType="xsd:string" dictRef="cc:symm" size="8">AG B1G B2G B3G AU B1U B2U B3U</array></list><scalar dataType="xsd:integer" dictRef="cc:basiscount">19</scalar><scalar dataType="xsd:integer" dictRef="g:primbasis">52</scalar><scalar dataType="xsd:integer" dictRef="cc:cartesianbasis">19</scalar><scalar dataType="xsd:integer" dictRef="cc:alphae">9</scalar><scalar dataType="xsd:integer" dictRef="cc:betae">8</scalar><scalar dataType="xsd:integer" dictRef="cc:natoms">1</scalar><scalar dataType="xsd:integer" dictRef="cc:nactiveatoms">1</scalar><scalar dataType="xsd:integer" dictRef="cc:uniqatoms">1</scalar><scalar dataType="xsd:double" dictRef="g:sfac">1.0</scalar><scalar dataType="xsd:integer" dictRef="g:natfmm">60</scalar><scalar dataType="xsd:string" dictRef="g:big">F</scalar></module><module cmlx:lineCount="1" cmlx:templateRef="l302.basis"> One-electron integrals computed using PRISM.
</module> NBasis=    19 RedAO= T  NBF=     7     1     1     1     0     3     3     3
 NBsUse=    19 1.00D-06 NBFU=     7     1     1     1     0     3     3     3
 Harris functional with IExCor=  402 diagonalized for initial guess.
 ExpMin= 1.43D-01 ExpMax= 2.52D+04 ExpMxC= 3.78D+03 IAcc=1 IRadAn=         1 AccDes= 1.00D-06
 HarFok:  IExCor= 402 AccDes= 1.00D-06 IRadAn=         1 IDoV=1
 ScaDFX=  1.000000  1.000000  1.000000  1.000000
 Initial guess orbital symmetries:
<module cmlx:lineCount="5" cmlx:templateRef="l401.alphabeta"><list cmlx:templateRef="alphabeta"><scalar dataType="xsd:string" dictRef="g:l401.type">Alpha</scalar></list><list cmlx:templateRef="l401"><scalar dataType="xsd:string" dictRef="g:l401">Occupied  (A1G) (A1G) (T1U) (T1U) (T1U) (A1G) (T1U) (T1U)</scalar><scalar dataType="xsd:string" dictRef="g:l401">(T1U)</scalar><scalar dataType="xsd:string" dictRef="g:l401">Virtual   (A1G) (T1U) (T1U) (T1U) (EG) (EG) (T2G) (T2G)</scalar><scalar dataType="xsd:string" dictRef="g:l401">(T2G) (A1G)</scalar></list></module><module cmlx:lineCount="4" cmlx:templateRef="l401.alphabeta"><list cmlx:templateRef="alphabeta"><scalar dataType="xsd:string" dictRef="g:l401.type">Beta</scalar></list><list cmlx:templateRef="l401"><scalar dataType="xsd:string" dictRef="g:l401">Occupied  (A1G) (A1G) (T1U) (T1U) (T1U) (A1G) (T1U) (T1U)</scalar><scalar dataType="xsd:string" dictRef="g:l401">Virtual   (T1U) (A1G) (T1U) (T1U) (T1U) (EG) (EG) (T2G)</scalar><scalar dataType="xsd:string" dictRef="g:l401">(T2G) (T2G) (A1G)</scalar></list></module> &lt;S**2&gt; of initial guess= 0.7500
 Requested convergence on RMS density matrix=1.00D-08 within 128 cycles.
 Requested convergence on MAX density matrix=1.00D-06.
 Requested convergence on             energy=1.00D-06.
 No special actions if energy rises.
 Keep R1 and R2 integrals in memory in canonical form, NReq=      496463.
 Integral accuracy reduced to 1.0D-05 until final iterations.
 Density matrix breaks symmetry, PCut= 1.00D-04
 Density has only Abelian symmetry.
 Density matrix breaks symmetry, PCut= 1.00D-04
 Density has only Abelian symmetry.
 Density matrix breaks symmetry, PCut= 1.00D-04
 Density has only Abelian symmetry.
 Density matrix breaks symmetry, PCut= 1.00D-04
 Density has only Abelian symmetry.
 Density matrix breaks symmetry, PCut= 1.00D-04
 Density has only Abelian symmetry.
 Initial convergence to 1.0D-05 achieved.  Increase integral accuracy.
 Density matrix breaks symmetry, PCut= 1.00D-04
 Density has only Abelian symmetry.
 Density matrix breaks symmetry, PCut= 1.00D-04
 Density has only Abelian symmetry.
 Density matrix breaks symmetry, PCut= 1.00D-04
 Density has only Abelian symmetry.
 Density matrix breaks symmetry, PCut= 1.00D-04
 Density has only Abelian symmetry.
 Density matrix breaks symmetry, PCut= 1.00D-04
 Density has only Abelian symmetry.
 Density matrix breaks symmetry, PCut= 1.00D-04
 Density has only Abelian symmetry.
 SCF Done:  E(UB+HF-LYP) =  -460.136242222     A.U. after   10 cycles
             Convg  =    0.8955D-08             -V/T =  2.0031
             S**2   =   0.7517
 Annihilation of the first spin contaminant:
 S**2 before annihilation     0.7517,   after     0.7500

<module cmlx:lineCount="63" cmlx:templateRef="l601.popanal">
 Orbital symmetries:
 Alpha Orbitals:
<module cmlx:lineCount="1" cmlx:templateRef="l4601.occupied"/><module cmlx:lineCount="2" cmlx:templateRef="l4601.virtual"><list cmlx:templateRef="virt"><scalar dataType="xsd:string" dictRef="g:virtorbs">(?A) (?B) (?B) (?B) (?A) (T2G) (T2G) (T2G) (?A)</scalar></list><list cmlx:templateRef="virt"><scalar dataType="xsd:string" dictRef="g:virtorbs">(A1G)</scalar></list></module> Beta  Orbitals:
       Occupied  (A1G) (A1G) (T1U) (T1U) (T1U) (T2G) (?A) (?A)
<module cmlx:lineCount="2" cmlx:templateRef="l4601.virtual"><list cmlx:templateRef="virt"><scalar dataType="xsd:string" dictRef="g:virtorbs">(?A) (A1G) (?A) (?A) (?A) (T2G) (T2G) (T2G) (T2G)</scalar></list><list cmlx:templateRef="virt"><scalar dataType="xsd:string" dictRef="g:virtorbs">(T2G) (A1G)</scalar></list></module> Unable to determine electronic state:  an orbital has unidentified symmetry.
<array dataType="xsd:double" size="9" dictRef="g:alphaocc">-101.5979 -9.5108 -7.28568 -7.26232 -7.26232 -0.84502 -0.40765 -0.35224 -0.35224</array><array dataType="xsd:double" size="10" dictRef="g:alphavirt">0.32222 0.39579 0.42573 0.42573 0.78069 0.79441 0.79441 0.84049 0.84049 4.15353</array><module cmlx:lineCount="4" cmlx:templateRef="l601.alphabetaeigen"/><array dataType="xsd:double" size="5" dictRef="g:betaocc">-101.59109 -9.50436 -7.26397 -7.25843 -7.25843</array><module cmlx:lineCount="1" cmlx:templateRef="l601.alphabetaeigen"/><array dataType="xsd:double" size="3" dictRef="g:betaocc">-0.79151 -0.33603 -0.33603</array><module cmlx:lineCount="1" cmlx:templateRef="l601.alphabetaeigen"/><array dataType="xsd:double" size="5" dictRef="g:betavirt">-0.24572 0.33828 0.43208 0.43208 0.43723</array><module cmlx:lineCount="1" cmlx:templateRef="l601.alphabetaeigen"/><array dataType="xsd:double" size="5" dictRef="g:betavirt">0.84953 0.84953 0.85541 0.85541 0.86478</array><module cmlx:lineCount="1" cmlx:templateRef="l601.alphabetaeigen"/><array dataType="xsd:double" size="1" dictRef="g:betavirt">4.17523</array><module cmlx:lineCount="1" cmlx:templateRef="l601.alphabetaeigen"/><module cmlx:lineCount="2" cmlx:templateRef="l601.condensed">              1
</module>     1  Cl  17.000000
<module cmlx:lineCount="17" cmlx:templateRef="mulliken"><module cmlx:lineCount="4" cmlx:templateRef="l601.mullik"><scalar dataType="xsd:string" dictRef="g:title">Mulliken atomic charges:</scalar><scalar dataType="xsd:integer" dictRef="cc:serial">1</scalar><list cmlx:lineCount="1" cmlx:templateRef="row"><array dataType="xsd:integer" dictRef="cc:serial" size="1">1</array><array dataType="xsd:string" dictRef="cc:elementType" size="1">Cl</array><array dataType="xsd:double" dictRef="x:charge" size="1">0.0</array></list><scalar dataType="xsd:string" dictRef="x:type">Mulliken</scalar><scalar dataType="xsd:double" dictRef="x:charge.sum">0.0</scalar></module><module cmlx:lineCount="4" cmlx:templateRef="l601.mullik"><scalar dataType="xsd:string" dictRef="g:title">Atomic charges with hydrogens summed into heavy atoms:</scalar><scalar dataType="xsd:integer" dictRef="cc:serial">1</scalar><list cmlx:lineCount="1" cmlx:templateRef="row"><array dataType="xsd:integer" dictRef="cc:serial" size="1">1</array><array dataType="xsd:string" dictRef="cc:elementType" size="1">Cl</array><array dataType="xsd:double" dictRef="x:charge" size="1">0.0</array></list><scalar dataType="xsd:string" dictRef="x:type">Mulliken</scalar><scalar dataType="xsd:double" dictRef="x:charge.sum">0.0</scalar></module>          Atomic-Atomic Spin Densities.
              1
     1  Cl   1.000000
 Mulliken atomic spin densities:
              1
     1  Cl   1.000000
 Sum of Mulliken spin densities=   1.00000
<scalar dataType="xsd:double" dictRef="g:electextent2">27.2144</scalar> Charge=     0.0000 electrons
</module><module cmlx:lineCount="18" cmlx:templateRef="multipole"><array dataType="xsd:double" size="3" dictRef="cc:dipole">0.0 0.0 0.0</array><scalar dataType="xsd:double" dictRef="x:dipole">0.0</scalar><array dataType="xsd:double" size="3" dictRef="cc:quadrupole">-12.936 -12.936 -10.7323</array><array dataType="xsd:double" size="3" dictRef="cc:quadrupole">0.0 0.0 0.0</array><array dataType="xsd:double" size="6" dictRef="cc:quadrupole">-0.7346 -0.7346 1.4691 0.0 0.0 0.0</array><array dataType="xsd:double" size="10" dictRef="cc:octapole">0.0 0.0 0.0 0.0 0.0 0.0 0.0 0.0 0.0 0.0</array><array dataType="xsd:double" size="15" dictRef="cc:hexadecapole">-14.4264 -14.4264 -10.2914 0.0 0.0 0.0 0.0 0.0 0.0 -4.8088 -4.1195 -4.1195 0.0 0.0 0.0</array></module></module> Symmetry AG   KE= 3.234798818474D+02
 Symmetry B1G  KE= 0.000000000000D+00
 Symmetry B2G  KE= 0.000000000000D+00
 Symmetry B3G  KE= 0.000000000000D+00
 Symmetry AU   KE= 0.000000000000D+00
 Symmetry B1U  KE= 4.357549325406D+01
 Symmetry B2U  KE= 4.583536042793D+01
 Symmetry B3U  KE= 4.583536042793D+01
<module cmlx:lineCount="13" cmlx:templateRef="l601.fermi"><list cmlx:lineCount="1" cmlx:templateRef="fermi.atom"><array dataType="xsd:integer" dictRef="cc:serial" size="1">1</array><array dataType="xsd:string" dictRef="x:elementType" size="1">Cl</array><array dataType="xsd:integer" dictRef="x:isotopeNumber" size="1">35</array><array dataType="xsd:double" dictRef="cc:coupling" size="1">0.04286</array><array dataType="xsd:double" dictRef="cc:coupling" size="1">18.79305</array><array dataType="xsd:double" dictRef="cc:coupling" size="1">6.70583</array><array dataType="xsd:double" dictRef="cc:coupling" size="1">6.26869</array></list><list cmlx:lineCount="1" cmlx:templateRef="fermi.spindipole"><array dataType="xsd:integer" dictRef="cc:serial" size="1">1</array><array dataType="xsd:double" dictRef="g:spindipole.xx" size="1">-2.940531</array><array dataType="xsd:double" dictRef="g:spindipole.yy" size="1">-2.940531</array><array dataType="xsd:double" dictRef="g:spindipole.zz" size="1">5.881062</array></list><list cmlx:lineCount="1" cmlx:templateRef="fermi.spindipole"><array dataType="xsd:integer" dictRef="cc:serial" size="1">1</array><array dataType="xsd:double" dictRef="g:spindipole.xy" size="1">0.0</array><array dataType="xsd:double" dictRef="g:spindipole.xz" size="1">0.0</array><array dataType="xsd:double" dictRef="g:spindipole.yz" size="1">0.0</array></list></module>

<module cmlx:lineCount="9" cmlx:templateRef="l601.anisospin">              Baa    -2.9405  -153.900   -54.916   -51.336  0.0000  1.0000  0.0000
     1 Cl(35) Bbb    -2.9405  -153.900   -54.916   -51.336  1.0000  0.0000  0.0000
              Bcc     5.8811   307.801   109.831   102.671  0.0000  0.0000  1.0000
</module> 

 ---------------------------------------------------------------------------------

 Density matrix has only Abelian symmetry.
 Density matrix has only Abelian symmetry.
 ***** Axes restored to original set *****
 -------------------------------------------------------------------
 Center     Atomic                   Forces (Hartrees/Bohr)
 Number     Number              X              Y              Z
 -------------------------------------------------------------------
    1         17           0.000000000    0.000000000    0.000000000
 -------------------------------------------------------------------
 Cartesian Forces:  Max     0.000000000 RMS     0.000000000
 ------------------------------------------------------------------------
           Internal Coordinate Forces (Hartree/Bohr or radian)
 Cent Atom N1     Length/X     N2     Alpha/Y      N3      Beta/Z       J
 ------------------------------------------------------------------------
   1  Cl        0.000000(   1)      0.000000(   2)      0.000000(   3)
 ------------------------------------------------------------------------
 Internal  Forces:  Max     0.000000000 RMS     0.000000000

<module cmlx:lineCount="29" cmlx:templateRef="l103"><list cmlx:templateRef="berny"><scalar dataType="xsd:string" dictRef="g:optimization">Search for a local minimum.</scalar></list> Step number   1 out of a maximum of  20
 All quantities printed in internal units (Hartrees-Bohrs-Radians)
 Second derivative matrix not updated -- first step.
 The second derivative matrix:
                          X1        Y1        Z1
           X1           0.00000
           Y1           0.00000   0.00000
           Z1           0.00000   0.00000   0.00000
     Eigenvalues --- 
<module cmlx:lineCount="3" cmlx:templateRef="rfo"><list cmlx:templateRef="rfo"><scalar dataType="xsd:double" dictRef="g:lambda">-5.96046448E-9</scalar></list> TrRot=  0.000000  0.000000  0.000000  0.000000  0.000000  0.000000
</module><module cmlx:lineCount="2" cmlx:templateRef="l103.deltas"/>    X1        0.00000   0.00000   0.00000   0.00000   0.00000   0.00000
    Y1        0.00000   0.00000   0.00000   0.00000   0.00000   0.00000
    Z1        0.00000   0.00000   0.00000   0.00000   0.00000   0.00000
<module cmlx:lineCount="5" cmlx:templateRef="l103.itemconverge"><list cmlx:lineCount="4" cmlx:templateRef="row"><array dataType="xsd:string" dictRef="g:item"/><array dataType="xsd:double" dictRef="g:value" size="4">4.5E-4 3.0E-4 0.0018 0.0012</array><array dataType="xsd:double" dictRef="g:threshold" size="4">0.0 0.0 0.0 0.0</array><array dataType="xsd:string" dictRef="g:converged" size="4">YES YES YES YES</array></list></module><module cmlx:lineCount="1" cmlx:templateRef="preddelta"><list cmlx:templateRef="predicted"><scalar dataType="xsd:double" dictRef="g:predchange">0.0</scalar></list></module> Optimization completed.
    -- Stationary point found.
 GradGradGradGradGradGradGradGradGradGradGradGradGradGradGradGradGradGrad
</module>
<module cmlx:lineCount="4" cmlx:templateRef="l9999.archive"><scalar dataType="xsd:string" dictRef="cc:hostname">GINC-NODE02</scalar><scalar dataType="xsd:string" dictRef="g:operation">FOpt</scalar><scalar dataType="xsd:string" dictRef="cc:method">UB3LYP</scalar><scalar dataType="xsd:string" dictRef="cc:basis">6-31G(d)</scalar><formula concise="Cl 1" dictRef="cc:formula.user"/><scalar dataType="xsd:string" dictRef="cc:jobname">CHS60A</scalar><scalar dataType="xsd:date" dictRef="cc:date">2006-11-21T00:00:00Z</scalar><scalar dataType="xsd:string" dictRef="g:keyword">#N</scalar><scalar dataType="xsd:string" dictRef="g:keyword">B3LYP/6-31G(D)</scalar><scalar dataType="xsd:string" dictRef="g:keyword">OPT</scalar><scalar dataType="xsd:string" dictRef="g:keyword">FREQ</scalar><scalar dataType="xsd:string" dictRef="cc:title">Cl</scalar><list type="molecule"><scalar dataType="xsd:string" dictRef="cc:elementType">Cl</scalar><scalar dataType="xsd:string" dictRef="cc:x3">0.</scalar><scalar dataType="xsd:string" dictRef="cc:y3">0.</scalar><scalar dataType="xsd:string" dictRef="cc:z3">0.</scalar></list><scalar dataType="xsd:string" dictRef="cc:version">x86-Linux-G03RevB.04</scalar><scalar dataType="xsd:double" dictRef="cc:hfenergy" units="nonsi:hartree">-460.1362422</scalar><scalar dataType="xsd:string" dictRef="x:S2">0.751721</scalar><scalar dataType="xsd:string" dictRef="x:S2-1">0.</scalar><scalar dataType="xsd:string" dictRef="x:S2A">0.750001</scalar><scalar dataType="xsd:double" dictRef="cc:rmsd" units="nonsi:unknown">8.955E-9</scalar><scalar dataType="xsd:double" dictRef="cc:rmsf" units="nonsi:unknown">0.0</scalar><array dataType="xsd:double" size="3" dictRef="cc:dipole" units="nonsi:debye">0.0 0.0 0.0</array><scalar dataType="xsd:string" dictRef="cc:pointgroup">OH [O(Cl1)]</scalar><scalar dataType="xsd:string" dictRef="g:archive">@</scalar></module>

 THERE'S NOTHING SO GREAT AS THE GREAT OUTDOORS.

                                       -- ZIGGY
<module cmlx:lineCount="3" cmlx:templateRef="jobcpu"><scalar dictRef="cc:jobtime" dataType="xsd:string">PT6.200S</scalar><scalar dataType="xsd:date" dictRef="cc:jobdatetime.end">2006-11-21T09:54:57Z</scalar><scalar dataType="xsd:string" dictRef="cc:program">Gaussian 03</scalar></module><module cmlx:lineCount="25" cmlx:templateRef="link1a"><list cmlx:templateRef="link1"><scalar dataType="xsd:integer" dictRef="g:link1">2</scalar></list><module cmlx:lineCount="3" cmlx:templateRef="l1.keywords"><scalar dataType="xsd:string" dictRef="cc:keyword">#N</scalar><scalar dataType="xsd:string" dictRef="cc:keyword">Geom=AllCheck</scalar><scalar dataType="xsd:string" dictRef="cc:keyword">Guess=Read</scalar><scalar dataType="xsd:string" dictRef="cc:keyword">SCRF=Check</scalar><scalar dataType="xsd:string" dictRef="cc:keyword">GenChk</scalar><scalar dataType="xsd:string" dictRef="cc:keyword">UB3LYP/6-31G(d)</scalar><scalar dataType="xsd:string" dictRef="cc:keyword">Freq</scalar></module><module cmlx:lineCount="1" cmlx:templateRef="l1.control"><list cmlx:templateRef="control"><scalar dataType="xsd:string" dictRef="g:control">1/10=4,29=7,30=1,38=1,40=1,46=1/1,3</scalar></list></module><module cmlx:lineCount="1" cmlx:templateRef="l1.control"><list cmlx:templateRef="control"><scalar dataType="xsd:string" dictRef="g:control">2/40=1/2</scalar></list></module><module cmlx:lineCount="1" cmlx:templateRef="l1.control"><list cmlx:templateRef="control"><scalar dataType="xsd:string" dictRef="g:control">3/5=1,6=6,7=1,11=2,16=1,25=1,30=1,70=2,71=2,74=-5/1,2,3</scalar></list></module><module cmlx:lineCount="1" cmlx:templateRef="l1.control"><list cmlx:templateRef="control"><scalar dataType="xsd:string" dictRef="g:control">4/5=1,7=2/1</scalar></list></module><module cmlx:lineCount="1" cmlx:templateRef="l1.control"><list cmlx:templateRef="control"><scalar dataType="xsd:string" dictRef="g:control">5/5=2,38=6/2</scalar></list></module><module cmlx:lineCount="1" cmlx:templateRef="l1.control"><list cmlx:templateRef="control"><scalar dataType="xsd:string" dictRef="g:control">8/6=4,10=90,11=11/1</scalar></list></module><module cmlx:lineCount="1" cmlx:templateRef="l1.control"><list cmlx:templateRef="control"><scalar dataType="xsd:string" dictRef="g:control">11/6=1,8=1,9=11,15=111,16=1/1,2,10</scalar></list></module><module cmlx:lineCount="1" cmlx:templateRef="l1.control"><list cmlx:templateRef="control"><scalar dataType="xsd:string" dictRef="g:control">10/6=1/2</scalar></list></module><module cmlx:lineCount="1" cmlx:templateRef="l1.control"><list cmlx:templateRef="control"><scalar dataType="xsd:string" dictRef="g:control">6/7=2,8=2,9=2,10=2,18=1,28=1/1</scalar></list></module><module cmlx:lineCount="1" cmlx:templateRef="l1.control"><list cmlx:templateRef="control"><scalar dataType="xsd:string" dictRef="g:control">7/8=1,10=1,25=1/1,2,3,16</scalar></list></module><module cmlx:lineCount="1" cmlx:templateRef="l1.control"><list cmlx:templateRef="control"><scalar dataType="xsd:string" dictRef="g:control">1/10=4,30=1,46=1/3</scalar></list></module><module cmlx:lineCount="1" cmlx:templateRef="l1.control"><list cmlx:templateRef="control"><scalar dataType="xsd:string" dictRef="g:control">99//99</scalar></list></module><module cmlx:lineCount="3" cmlx:templateRef="l101.title"><scalar dataType="xsd:string" dictRef="cc:title" cmlx:templateRef="title">Cl</scalar></module> No Z-matrix found on checkpoint file.
 Cartesian coordinates read from the checkpoint file:
 /tmp/webmo/3/Gau-15098.chk
<module cmlx:lineCount="2" cmlx:templateRef="l101.zmata">  Cl                                                0.000000000000      0.000000000000      0.000000000000
</module><list cmlx:templateRef="link1a"><scalar dataType="xsd:string" dictRef="g:link1a">Recover connectivity data from disk.</scalar></list></module>
<module cmlx:lineCount="6" cmlx:templateRef="l103"><list cmlx:templateRef="berny"><scalar dataType="xsd:string" dictRef="g:optimization">Initialization pass.</scalar></list><module cmlx:lineCount="2" cmlx:templateRef="l103.trust"><scalar dataType="xsd:double" dictRef="g:trustrad">0.3</scalar><scalar dataType="xsd:double" dictRef="g:fncerr">1.0E-7</scalar><scalar dataType="xsd:double" dictRef="g:grderr">1.0E-7</scalar><scalar dataType="xsd:integer" dictRef="g:nstep">2</scalar><scalar dataType="xsd:integer" dictRef="g:allowedstep">2</scalar></module> GradGradGradGradGradGradGradGradGradGradGradGradGradGradGradGradGradGrad
</module>
<module cmlx:lineCount="7" cmlx:templateRef="l202.orient"><molecule id="a1" cmlx:templateRef="atom"><atomArray><atom id="a1" elementType="Cl" x3="0.0" y3="0.0" z3="0.0"><scalar dataType="xsd:integer" dictRef="cc:serial">1</scalar><scalar dataType="xsd:integer" dictRef="g:atomicType">0</scalar><scalar dataType="xsd:integer" dictRef="compchem:atomicNumber">17</scalar></atom></atomArray><formula formalCharge="0" concise="Cl 1"><atomArray elementType="Cl" count="1.0"/></formula><property dictRef="cml:molmass"><scalar dataType="xsd:double" units="unit:dalton" xmlns:unit="http://www.xml-cml.org/unit/si/">35.453</scalar></property></molecule></module><module cmlx:lineCount="6" cmlx:templateRef="l202.stoich"><scalar dataType="xsd:string" dictRef="cc:formula" cmlx:templateRef="stoich">Cl(2)</scalar><scalar dataType="xsd:string" dictRef="cc:frameworkgroup" cmlx:templateRef="framework">OH[O(Cl)]</scalar><scalar dataType="xsd:integer" dictRef="cc:degfreedom" cmlx:templateRef="degfreedom">0</scalar><scalar dataType="xsd:string" dictRef="cc:pointgroup">OH</scalar><scalar dataType="xsd:integer" dictRef="cc:operatorcount">48</scalar><scalar dataType="xsd:string" dictRef="cc:largestabelian">D2H</scalar><scalar dataType="xsd:integer" dictRef="cc:operatorcount">8</scalar><scalar dataType="xsd:string" dictRef="cc:largestconciseabelian">C1</scalar><scalar dataType="xsd:integer" dictRef="cc:operatorcount">1</scalar></module><module cmlx:lineCount="7" cmlx:templateRef="l202.orient"><molecule id="a1" cmlx:templateRef="atom"><atomArray><atom id="a1" elementType="Cl" x3="0.0" y3="0.0" z3="0.0"><scalar dataType="xsd:integer" dictRef="cc:serial">1</scalar><scalar dataType="xsd:integer" dictRef="g:atomicType">0</scalar><scalar dataType="xsd:integer" dictRef="compchem:atomicNumber">17</scalar></atom></atomArray><formula formalCharge="0" concise="Cl 1"><atomArray elementType="Cl" count="1.0"/></formula><property dictRef="cml:molmass"><scalar dataType="xsd:double" units="unit:dalton" xmlns:unit="http://www.xml-cml.org/unit/si/">35.453</scalar></property></molecule></module><scalar dataType="xsd:integer" dictRef="g:buffer" cmlx:templateRef="buffer">262144</scalar><scalar dataType="xsd:string" dictRef="g:raffenetti" cmlx:templateRef="raff">Raffenetti</scalar><scalar dataType="xsd:string" dictRef="g:twoe" cmlx:templateRef="twoe">Two-electron</scalar><scalar dataType="xsd:double" dictRef="cc:nucrepener" cmlx:templateRef="nucrep">0.0</scalar><module cmlx:lineCount="16" cmlx:templateRef="l301.basis"><scalar dataType="xsd:string" dictRef="cc:basis">6-31G(d)</scalar><scalar dataType="xsd:string" dictRef="cc:diffuse">(6D, 7F)</scalar><list cmlx:lineCount="8" cmlx:templateRef="symmadapt"><array dataType="xsd:integer" dictRef="cc:adapted" size="8">7 1 1 1 0 3 3 3</array><array dataType="xsd:string" dictRef="cc:symm" size="8">AG B1G B2G B3G AU B1U B2U B3U</array></list><scalar dataType="xsd:integer" dictRef="cc:basiscount">19</scalar><scalar dataType="xsd:integer" dictRef="g:primbasis">52</scalar><scalar dataType="xsd:integer" dictRef="cc:cartesianbasis">19</scalar><scalar dataType="xsd:integer" dictRef="cc:alphae">9</scalar><scalar dataType="xsd:integer" dictRef="cc:betae">8</scalar><scalar dataType="xsd:integer" dictRef="cc:natoms">1</scalar><scalar dataType="xsd:integer" dictRef="cc:nactiveatoms">1</scalar><scalar dataType="xsd:integer" dictRef="cc:uniqatoms">1</scalar><scalar dataType="xsd:double" dictRef="g:sfac">1.0</scalar><scalar dataType="xsd:integer" dictRef="g:natfmm">60</scalar><scalar dataType="xsd:string" dictRef="g:big">F</scalar></module><module cmlx:lineCount="1" cmlx:templateRef="l302.basis"> One-electron integrals computed using PRISM.
</module> NBasis=    19 RedAO= T  NBF=     7     1     1     1     0     3     3     3
 NBsUse=    19 1.00D-06 NBFU=     7     1     1     1     0     3     3     3
 Initial guess read from the checkpoint file:
 /tmp/webmo/3/Gau-15098.chk
 Initial guess orbital symmetries:
<module cmlx:lineCount="4" cmlx:templateRef="l401.alphabeta"><list cmlx:templateRef="alphabeta"><scalar dataType="xsd:string" dictRef="g:l401.type">Alpha</scalar></list><list cmlx:templateRef="l401"><scalar dataType="xsd:string" dictRef="g:l401">Occupied  (A1G) (A1G) (T1U) (T1U) (T1U) (?A) (?B) (?B) (?B)</scalar><scalar dataType="xsd:string" dictRef="g:l401">Virtual   (?A) (?B) (?B) (?B) (?A) (T2G) (T2G) (T2G) (?A)</scalar><scalar dataType="xsd:string" dictRef="g:l401">(A1G)</scalar></list></module><module cmlx:lineCount="4" cmlx:templateRef="l401.alphabeta"><list cmlx:templateRef="alphabeta"><scalar dataType="xsd:string" dictRef="g:l401.type">Beta</scalar></list><list cmlx:templateRef="l401"><scalar dataType="xsd:string" dictRef="g:l401">Occupied  (A1G) (A1G) (T1U) (T1U) (T1U) (T2G) (?A) (?A)</scalar><scalar dataType="xsd:string" dictRef="g:l401">Virtual   (?A) (A1G) (?A) (?A) (?A) (T2G) (T2G) (T2G) (T2G)</scalar><scalar dataType="xsd:string" dictRef="g:l401">(T2G) (A1G)</scalar></list></module> &lt;S**2&gt; of initial guess= 0.7517
 Requested convergence on RMS density matrix=1.00D-08 within 128 cycles.
 Requested convergence on MAX density matrix=1.00D-06.
 Requested convergence on             energy=1.00D-06.
 No special actions if energy rises.
 Keep R1 and R2 integrals in memory in canonical form, NReq=      496463.
 Density matrix breaks symmetry, PCut= 1.00D-04
 Density has only Abelian symmetry.
 Density matrix breaks symmetry, PCut= 1.00D-04
 Density has only Abelian symmetry.
 SCF Done:  E(UB+HF-LYP) =  -460.136242222     A.U. after    1 cycles
             Convg  =    0.4404D-09             -V/T =  2.0031
             S**2   =   0.7517
 Annihilation of the first spin contaminant:
 S**2 before annihilation     0.7517,   after     0.7500
<module cmlx:lineCount="3" cmlx:templateRef="l801"/>
 **** Warning!!: The smallest beta delta epsilon is  0.90310648D-01

 Symmetrizing basis deriv contribution to polar:
 IMax=3 JMax=2 DiffMx= 0.00D+00
 G2DrvN: will do    2 centers at a time, making    1 passes doing MaxLOS=2.
 FoFDir/FoFCou used for L=0 through L=2.
          Differentiating once with respect to electric field.
                with respect to dipole field.
          Differentiating once with respect to nuclear coordinates.
          Store integrals in memory, NReq=      466665.
 CalDSu exits because no D1Ps are significant.
          There are   6 degrees of freedom in the 1st order CPHF.
     3 vectors were produced by pass  0.
 AX will form   3 AO Fock derivatives at one time.
     3 vectors were produced by pass  1.
     3 vectors were produced by pass  2.
     3 vectors were produced by pass  3.
     3 vectors were produced by pass  4.
     3 vectors were produced by pass  5.
     3 vectors were produced by pass  6.
 Inv2:  IOpt= 1 Iter= 1 AM= 3.76D-16 Conv= 1.00D-12.
 Inverted reduced A of dimension   21 with in-core refinement.
 Isotropic polarizability for W=    0.000000        5.63 Bohr**3.
 End of Minotr Frequency-dependent properties file   721 does not exist.

<module cmlx:lineCount="71" cmlx:templateRef="l601.popanal">
 Orbital symmetries:
 Alpha Orbitals:
<module cmlx:lineCount="1" cmlx:templateRef="l4601.occupied"/><module cmlx:lineCount="2" cmlx:templateRef="l4601.virtual"><list cmlx:templateRef="virt"><scalar dataType="xsd:string" dictRef="g:virtorbs">(?A) (?B) (?B) (?B) (?A) (T2G) (T2G) (T2G) (?A)</scalar></list><list cmlx:templateRef="virt"><scalar dataType="xsd:string" dictRef="g:virtorbs">(A1G)</scalar></list></module> Beta  Orbitals:
       Occupied  (A1G) (A1G) (T1U) (T1U) (T1U) (T2G) (?A) (?A)
<module cmlx:lineCount="2" cmlx:templateRef="l4601.virtual"><list cmlx:templateRef="virt"><scalar dataType="xsd:string" dictRef="g:virtorbs">(?A) (A1G) (?A) (?A) (?A) (T2G) (T2G) (T2G) (T2G)</scalar></list><list cmlx:templateRef="virt"><scalar dataType="xsd:string" dictRef="g:virtorbs">(T2G) (A1G)</scalar></list></module> Unable to determine electronic state:  an orbital has unidentified symmetry.
<array dataType="xsd:double" size="9" dictRef="g:alphaocc">-101.5979 -9.5108 -7.28568 -7.26232 -7.26232 -0.84502 -0.40765 -0.35224 -0.35224</array><array dataType="xsd:double" size="10" dictRef="g:alphavirt">0.32222 0.39579 0.42573 0.42573 0.78069 0.79441 0.79441 0.84049 0.84049 4.15353</array><module cmlx:lineCount="4" cmlx:templateRef="l601.alphabetaeigen"/><array dataType="xsd:double" size="5" dictRef="g:betaocc">-101.59109 -9.50436 -7.26397 -7.25843 -7.25843</array><module cmlx:lineCount="1" cmlx:templateRef="l601.alphabetaeigen"/><array dataType="xsd:double" size="3" dictRef="g:betaocc">-0.79151 -0.33603 -0.33603</array><module cmlx:lineCount="1" cmlx:templateRef="l601.alphabetaeigen"/><array dataType="xsd:double" size="5" dictRef="g:betavirt">-0.24572 0.33828 0.43208 0.43208 0.43723</array><module cmlx:lineCount="1" cmlx:templateRef="l601.alphabetaeigen"/><array dataType="xsd:double" size="5" dictRef="g:betavirt">0.84953 0.84953 0.85541 0.85541 0.86478</array><module cmlx:lineCount="1" cmlx:templateRef="l601.alphabetaeigen"/><array dataType="xsd:double" size="1" dictRef="g:betavirt">4.17523</array><module cmlx:lineCount="1" cmlx:templateRef="l601.alphabetaeigen"/><module cmlx:lineCount="2" cmlx:templateRef="l601.condensed">              1
</module>     1  Cl  17.000000
<module cmlx:lineCount="25" cmlx:templateRef="mulliken"><module cmlx:lineCount="4" cmlx:templateRef="l601.mullik"><scalar dataType="xsd:string" dictRef="g:title">Mulliken atomic charges:</scalar><scalar dataType="xsd:integer" dictRef="cc:serial">1</scalar><list cmlx:lineCount="1" cmlx:templateRef="row"><array dataType="xsd:integer" dictRef="cc:serial" size="1">1</array><array dataType="xsd:string" dictRef="cc:elementType" size="1">Cl</array><array dataType="xsd:double" dictRef="x:charge" size="1">0.0</array></list><scalar dataType="xsd:string" dictRef="x:type">Mulliken</scalar><scalar dataType="xsd:double" dictRef="x:charge.sum">0.0</scalar></module><module cmlx:lineCount="4" cmlx:templateRef="l601.mullik"><scalar dataType="xsd:string" dictRef="g:title">Atomic charges with hydrogens summed into heavy atoms:</scalar><scalar dataType="xsd:integer" dictRef="cc:serial">1</scalar><list cmlx:lineCount="1" cmlx:templateRef="row"><array dataType="xsd:integer" dictRef="cc:serial" size="1">1</array><array dataType="xsd:string" dictRef="cc:elementType" size="1">Cl</array><array dataType="xsd:double" dictRef="x:charge" size="1">0.0</array></list><scalar dataType="xsd:string" dictRef="x:type">Mulliken</scalar><scalar dataType="xsd:double" dictRef="x:charge.sum">0.0</scalar></module>          Atomic-Atomic Spin Densities.
              1
     1  Cl   1.000000
 Mulliken atomic spin densities:
              1
     1  Cl   1.000000
 Sum of Mulliken spin densities=   1.00000
<module cmlx:lineCount="4" cmlx:templateRef="l601.mullik"><scalar dataType="xsd:string" dictRef="g:title">APT atomic charges:</scalar><scalar dataType="xsd:integer" dictRef="cc:serial">1</scalar><list cmlx:lineCount="1" cmlx:templateRef="row"><array dataType="xsd:integer" dictRef="cc:serial" size="1">1</array><array dataType="xsd:string" dictRef="cc:elementType" size="1">Cl</array><array dataType="xsd:double" dictRef="x:charge" size="1">0.0</array></list><scalar dataType="xsd:string" dictRef="x:type">APT</scalar><scalar dataType="xsd:double" dictRef="x:charge.sum">0.0</scalar></module><module cmlx:lineCount="4" cmlx:templateRef="l601.mullik"><scalar dataType="xsd:string" dictRef="g:title">APT Atomic charges with hydrogens summed into heavy atoms:</scalar><scalar dataType="xsd:integer" dictRef="cc:serial">1</scalar><list cmlx:lineCount="1" cmlx:templateRef="row"><array dataType="xsd:integer" dictRef="cc:serial" size="1">1</array><array dataType="xsd:string" dictRef="cc:elementType" size="1">Cl</array><array dataType="xsd:double" dictRef="x:charge" size="1">0.0</array></list><scalar dataType="xsd:string" dictRef="x:type">APT</scalar><scalar dataType="xsd:double" dictRef="x:charge.sum">0.0</scalar></module><scalar dataType="xsd:double" dictRef="g:electextent2">27.2144</scalar> Charge=     0.0000 electrons
</module><module cmlx:lineCount="18" cmlx:templateRef="multipole"><array dataType="xsd:double" size="3" dictRef="cc:dipole">0.0 0.0 0.0</array><scalar dataType="xsd:double" dictRef="x:dipole">0.0</scalar><array dataType="xsd:double" size="3" dictRef="cc:quadrupole">-12.936 -12.936 -10.7323</array><array dataType="xsd:double" size="3" dictRef="cc:quadrupole">0.0 0.0 0.0</array><array dataType="xsd:double" size="6" dictRef="cc:quadrupole">-0.7346 -0.7346 1.4691 0.0 0.0 0.0</array><array dataType="xsd:double" size="10" dictRef="cc:octapole">0.0 0.0 0.0 0.0 0.0 0.0 0.0 0.0 0.0 0.0</array><array dataType="xsd:double" size="15" dictRef="cc:hexadecapole">-14.4264 -14.4264 -10.2914 0.0 0.0 0.0 0.0 0.0 0.0 -4.8088 -4.1195 -4.1195 0.0 0.0 0.0</array></module></module> Symmetry AG   KE= 3.234798818318D+02
 Symmetry B1G  KE= 0.000000000000D+00
 Symmetry B2G  KE= 0.000000000000D+00
 Symmetry B3G  KE= 0.000000000000D+00
 Symmetry AU   KE= 0.000000000000D+00
 Symmetry B1U  KE= 4.357549324047D+01
 Symmetry B2U  KE= 4.583536041537D+01
 Symmetry B3U  KE= 4.583536041537D+01
<module cmlx:lineCount="2" cmlx:templateRef="l601.polariz"><list cmlx:templateRef="l601.pol"><scalar dataType="xsd:double" dictRef="g:l601.pol.exact">5.542</scalar><scalar dataType="xsd:double" dictRef="g:l601.pol">0.0</scalar><scalar dataType="xsd:double" dictRef="g:l601.pol">5.542</scalar><scalar dataType="xsd:double" dictRef="g:l601.pol">0.0</scalar><scalar dataType="xsd:double" dictRef="g:l601.pol">0.0</scalar><scalar dataType="xsd:double" dictRef="g:l601.pol">5.795</scalar></list><list cmlx:templateRef="l601.pol"><scalar dataType="xsd:double" dictRef="g:l601.pol.approx">6.396</scalar><scalar dataType="xsd:double" dictRef="g:l601.pol">0.0</scalar><scalar dataType="xsd:double" dictRef="g:l601.pol">6.396</scalar><scalar dataType="xsd:double" dictRef="g:l601.pol">0.0</scalar><scalar dataType="xsd:double" dictRef="g:l601.pol">0.0</scalar><scalar dataType="xsd:double" dictRef="g:l601.pol">7.848</scalar></list></module><module cmlx:lineCount="13" cmlx:templateRef="l601.fermi"><list cmlx:lineCount="1" cmlx:templateRef="fermi.atom"><array dataType="xsd:integer" dictRef="cc:serial" size="1">1</array><array dataType="xsd:string" dictRef="x:elementType" size="1">Cl</array><array dataType="xsd:integer" dictRef="x:isotopeNumber" size="1">35</array><array dataType="xsd:double" dictRef="cc:coupling" size="1">0.04286</array><array dataType="xsd:double" dictRef="cc:coupling" size="1">18.79306</array><array dataType="xsd:double" dictRef="cc:coupling" size="1">6.70583</array><array dataType="xsd:double" dictRef="cc:coupling" size="1">6.26869</array></list><list cmlx:lineCount="1" cmlx:templateRef="fermi.spindipole"><array dataType="xsd:integer" dictRef="cc:serial" size="1">1</array><array dataType="xsd:double" dictRef="g:spindipole.xx" size="1">-2.940531</array><array dataType="xsd:double" dictRef="g:spindipole.yy" size="1">-2.940531</array><array dataType="xsd:double" dictRef="g:spindipole.zz" size="1">5.881062</array></list><list cmlx:lineCount="1" cmlx:templateRef="fermi.spindipole"><array dataType="xsd:integer" dictRef="cc:serial" size="1">1</array><array dataType="xsd:double" dictRef="g:spindipole.xy" size="1">0.0</array><array dataType="xsd:double" dictRef="g:spindipole.xz" size="1">0.0</array><array dataType="xsd:double" dictRef="g:spindipole.yz" size="1">0.0</array></list></module>

<module cmlx:lineCount="9" cmlx:templateRef="l601.anisospin">              Baa    -2.9405  -153.900   -54.916   -51.336  0.0000  1.0000  0.0000
     1 Cl(35) Bbb    -2.9405  -153.900   -54.916   -51.336  1.0000  0.0000  0.0000
              Bcc     5.8811   307.801   109.831   102.671  0.0000  0.0000  1.0000
</module> 

 ---------------------------------------------------------------------------------

 Density matrix has only Abelian symmetry.
 Density matrix has only Abelian symmetry.
<module cmlx:lineCount="52" cmlx:templateRef="l716"><module cmlx:lineCount="9" cmlx:templateRef="l716.forcematrix"> Full mass-weighted force constant matrix:
 Low frequencies ---   -0.0006    0.0006    0.0008
<module cmlx:lineCount="1" cmlx:templateRef="l716.diagvib"/>        0.0000000       0.0000000       0.0000000
<module cmlx:lineCount="5" cmlx:templateRef="l716.freq.chunkx">
</module></module><module cmlx:lineCount="11" cmlx:templateRef="l716.thermochemistry"> -------------------
 - Thermochemistry -
 -------------------
<scalar dataType="xsd:double" dictRef="cc:temp">298.15</scalar><scalar dataType="xsd:double" dictRef="cc:press">1.0</scalar><list cmlx:lineCount="1" cmlx:templateRef="mass"><array dataType="xsd:integer" dictRef="cc:serial" size="1">1</array><array dataType="xsd:integer" dictRef="x:elementType" size="1">17</array><array dataType="xsd:double" dictRef="cc:atomicmass" size="1">34.96885</array></list><scalar dataType="xsd:double" dictRef="cc:molmass" cmlx:templateRef="molmass">34.96885</scalar><scalar dataType="xsd:double" dictRef="cc:zpe" units="u:jmol-1">0.0</scalar> 
</module><module cmlx:lineCount="9" cmlx:templateRef="l716.zeropoint"><scalar dataType="xsd:string" dictRef="cc:zpe.correction">0.0</scalar><scalar dataType="xsd:string" dictRef="cc:zpe.thermalcorrener">0.001416</scalar><scalar dataType="xsd:string" dictRef="cc:zpe.thermalcorrenthalpy">0.00236</scalar><scalar dataType="xsd:string" dictRef="cc:zpe.thermalcorrgfe">-0.015677</scalar><scalar dataType="xsd:string" dictRef="cc:zpe.sumelectzpe">-460.136242</scalar><scalar dataType="xsd:string" dictRef="cc:zpe.sumelectthermal">-460.134826</scalar><scalar dataType="xsd:string" dictRef="cc:zpe.sumelectthermal">-460.133882</scalar><scalar dataType="xsd:string" dictRef="cc:zpe.sumelectthermalfe">-460.151919</scalar> 
</module><module cmlx:lineCount="1" cmlx:templateRef="l716.thermoprops"/>                      KCal/Mol        Cal/Mol-Kelvin    Cal/Mol-Kelvin
 Total                    0.889              2.981             37.964
 Electronic               0.000              0.000              1.377
 Translational            0.889              2.981             36.586
 Rotational               0.000              0.000              0.000
 Vibrational              0.000              0.000              0.000
                       Q            Log10(Q)             Ln(Q)
 Total Bot       0.162558D+08          7.211007         16.603958
 Total V=0       0.162558D+08          7.211007         16.603958
 Vib (Bot)       0.100000D+01          0.000000          0.000000
 Vib (V=0)       0.100000D+01          0.000000          0.000000
 Electronic      0.200000D+01          0.301030          0.693147
 Translational   0.812788D+07          6.909977         15.910811
 Rotational      0.100000D+01          0.000000          0.000000
 ***** Axes restored to original set *****
<module cmlx:lineCount="7" cmlx:templateRef="l716.forces"><molecule id="l716.forces" cmlx:templateRef="force"><atomArray><atom id="a1" elementType="Cl"><scalar dataType="xsd:integer" dictRef="x:serial">1</scalar><scalar dataType="xsd:double" dictRef="x:dx3">0.0</scalar><scalar dataType="xsd:double" dictRef="x:dy3">0.0</scalar><scalar dataType="xsd:double" dictRef="x:dz3">0.0</scalar><scalar dataType="xsd:integer" dictRef="compchem:atomicNumber">17</scalar></atom></atomArray><formula formalCharge="0" concise="Cl 1"><atomArray elementType="Cl" count="1.0"/></formula><property dictRef="cml:molmass"><scalar dataType="xsd:double" units="unit:dalton" xmlns:unit="http://www.xml-cml.org/unit/si/">35.453</scalar></property></molecule><list cmlx:templateRef="cartesianforce"><scalar dataType="xsd:double" dictRef="cc:maxforce">0.0</scalar><scalar dataType="xsd:double" dictRef="cc:rmsforce">0.0</scalar></list></module></module>
<module cmlx:lineCount="29" cmlx:templateRef="l103"><list cmlx:templateRef="berny"><scalar dataType="xsd:string" dictRef="g:optimization">Search for a local minimum.</scalar></list> Step number   1 out of a maximum of   2
 All quantities printed in internal units (Hartrees-Bohrs-Radians)
 Second derivative matrix not updated -- analytic derivatives used.
 The second derivative matrix:
                          X1        Y1        Z1
           X1           0.00000
           Y1           0.00000   0.00000
           Z1           0.00000   0.00000   0.00000
     Eigenvalues --- 
 Angle between quadratic step and forces=  90.00 degrees.
 Linear search not attempted -- first point.
 TrRot=  0.000000  0.000000  0.000000  0.000000  0.000000  0.000000
<module cmlx:lineCount="2" cmlx:templateRef="l103.deltas"/>    X1        0.00000   0.00000   0.00000   0.00000   0.00000   0.00000
    Y1        0.00000   0.00000   0.00000   0.00000   0.00000   0.00000
    Z1        0.00000   0.00000   0.00000   0.00000   0.00000   0.00000
<module cmlx:lineCount="5" cmlx:templateRef="l103.itemconverge"><list cmlx:lineCount="4" cmlx:templateRef="row"><array dataType="xsd:string" dictRef="g:item"/><array dataType="xsd:double" dictRef="g:value" size="4">4.5E-4 3.0E-4 0.0018 0.0012</array><array dataType="xsd:double" dictRef="g:threshold" size="4">0.0 0.0 0.0 0.0</array><array dataType="xsd:string" dictRef="g:converged" size="4">YES YES YES YES</array></list></module><module cmlx:lineCount="1" cmlx:templateRef="preddelta"><list cmlx:templateRef="predicted"><scalar dataType="xsd:double" dictRef="g:predchange">0.0</scalar></list></module> Optimization completed.
    -- Stationary point found.
 GradGradGradGradGradGradGradGradGradGradGradGradGradGradGradGradGradGrad
</module>
<module cmlx:lineCount="6" cmlx:templateRef="l9999.archive"><scalar dataType="xsd:string" dictRef="cc:hostname">GINC-NODE02</scalar><scalar dataType="xsd:string" dictRef="g:operation">Freq</scalar><scalar dataType="xsd:string" dictRef="cc:method">UB3LYP</scalar><scalar dataType="xsd:string" dictRef="cc:basis">6-31G(d)</scalar><formula concise="Cl 1" dictRef="cc:formula.user"/><scalar dataType="xsd:string" dictRef="cc:jobname">CHS60A</scalar><scalar dataType="xsd:date" dictRef="cc:date">2006-11-21T00:00:00Z</scalar><scalar dataType="xsd:string" dictRef="g:keyword">#N</scalar><scalar dataType="xsd:string" dictRef="g:keyword">GEOM=ALLCHECK</scalar><scalar dataType="xsd:string" dictRef="g:keyword">GUESS=READ</scalar><scalar dataType="xsd:string" dictRef="g:keyword">SCRF=CHECK</scalar><scalar dataType="xsd:string" dictRef="g:keyword">GENCHK</scalar><scalar dataType="xsd:string" dictRef="g:keyword">UB3LYP/6-31G(D)</scalar><scalar dataType="xsd:string" dictRef="g:keyword">FREQ</scalar><scalar dataType="xsd:string" dictRef="cc:title">Cl</scalar><list type="molecule"><scalar dataType="xsd:string" dictRef="cc:elementType">Cl</scalar><scalar dataType="xsd:string" dictRef="cc:x3">0.</scalar><scalar dataType="xsd:string" dictRef="cc:y3">0.</scalar><scalar dataType="xsd:string" dictRef="cc:z3">0.</scalar></list><scalar dataType="xsd:string" dictRef="cc:version">x86-Linux-G03RevB.04</scalar><scalar dataType="xsd:double" dictRef="cc:hfenergy" units="nonsi:hartree">-460.1362422</scalar><scalar dataType="xsd:string" dictRef="x:S2">0.751721</scalar><scalar dataType="xsd:string" dictRef="x:S2-1">0.</scalar><scalar dataType="xsd:string" dictRef="x:S2A">0.750001</scalar><scalar dataType="xsd:double" dictRef="cc:rmsd" units="nonsi:unknown">4.404E-10</scalar><scalar dataType="xsd:double" dictRef="cc:rmsf" units="nonsi:unknown">0.0</scalar><array dataType="xsd:double" size="3" dictRef="cc:dipole" units="nonsi:debye">0.0 0.0 0.0</array><array dataType="xsd:double" size="9" dictRef="cc:dipolederiv" units="nonsi:unknown">0.0 0.0 0.0 0.0 0.0 0.0 0.0 0.0 0.0</array><array dataType="xsd:double" size="6" dictRef="cc:polarizability" units="nonsi:unknown">5.7952054 0.0 5.5423764 0.0 0.0 5.5423764</array><scalar dataType="xsd:string" dictRef="cc:pointgroup">OH [O(Cl1)]</scalar><array dataType="xsd:double" size="6" dictRef="x:unknown">0.0 0.0 0.0 0.0 0.0 0.0</array><array dataType="xsd:double" size="3" dictRef="x:unknown">0.0 0.0 0.0</array></module>

 FAULTILY FAULTLESS, ICILY REGULAR, SPLENDIDLY NULL...
           MAUDE BY TENNYSON
<module cmlx:lineCount="3" cmlx:templateRef="jobcpu"><scalar dictRef="cc:jobtime" dataType="xsd:string">PT8.900S</scalar><scalar dataType="xsd:date" dictRef="cc:jobdatetime.end">2006-11-21T09:55:07Z</scalar><scalar dataType="xsd:string" dictRef="cc:program">Gaussian 03</scalar></module></module>
