<?xml version="1.0" encoding="UTF-8"?>
<module cmlx:templateRef="gaussian.log" xmlns="http://www.xml-cml.org/schema" xmlns:cmlx="http://www.xml-cml.org/schema/cmlx"> Entering Gaussian System, Link 0=/usr/local/gaussian/g03/g03 Initial command: /usr/local/gaussian/g03/l1.exe /tmp/webmo/4/Gau-5928.inp -scrdir=/tmp/webmo/4/ Entering Link 1 = /usr/local/gaussian/g03/l1.exe PID=      5929.  <module cmlx:lineCount="60" cmlx:templateRef="l1.legal"><scalar dataType="xsd:string" dictRef="g:l1.legal">Copyright (c) 1988,1990,1992,1993,1995,1998,2003, Gaussian, Inc.</scalar></module>  <module cmlx:lineCount="20" cmlx:templateRef="l1.citation"><list cmlx:templateRef="citation"><scalar dataType="xsd:string" dictRef="g:l1.citation">Cite this work as:</scalar></list></module> <module cmlx:lineCount="25" cmlx:templateRef="l1.end"><scalar dataType="xsd:string" dictRef="cc:run.date">21-Nov-2006</scalar><scalar dataType="xsd:string" dictRef="cc:program">Gaussian 03</scalar><scalar dataType="xsd:string" dictRef="cc:version">x86-Linux-G03RevB.04</scalar><scalar dataType="xsd:string" dictRef="cc:program.date">2-Jun-2003</scalar><list cmlx:templateRef="control"><scalar dataType="xsd:string" dictRef="g:control">1/14=-1,18=20,26=3,38=1/1,3</scalar><scalar dataType="xsd:string" dictRef="g:control">2/9=110,17=6,18=5,40=1/2</scalar><scalar dataType="xsd:string" dictRef="g:control">3/5=1,6=6,7=1,11=2,16=1,25=1,30=1,74=-5/1,2,3</scalar><scalar dataType="xsd:string" dictRef="g:control">4//1</scalar><scalar dataType="xsd:string" dictRef="g:control">5/5=2,38=5/2</scalar><scalar dataType="xsd:string" dictRef="g:control">6/7=2,8=2,9=2,10=2,28=1/1</scalar><scalar dataType="xsd:string" dictRef="g:control">7//1,2,3,16</scalar><scalar dataType="xsd:string" dictRef="g:control">1/14=-1,18=20/3(1)</scalar><scalar dataType="xsd:string" dictRef="g:control">99//99</scalar><scalar dataType="xsd:string" dictRef="g:control">2/9=110/2</scalar><scalar dataType="xsd:string" dictRef="g:control">3/5=1,6=6,7=1,11=2,16=1,25=1,30=1,74=-5/1,2,3</scalar><scalar dataType="xsd:string" dictRef="g:control">4/5=5,16=3/1</scalar><scalar dataType="xsd:string" dictRef="g:control">5/5=2,38=5/2</scalar><scalar dataType="xsd:string" dictRef="g:control">7//1,2,3,16</scalar><scalar dataType="xsd:string" dictRef="g:control">1/14=-1,18=20/3(-5)</scalar><scalar dataType="xsd:string" dictRef="g:control">2/9=110/2</scalar><scalar dataType="xsd:string" dictRef="g:control">6/7=2,8=2,9=2,10=2,19=2,28=1/1</scalar><scalar dataType="xsd:string" dictRef="g:control">99/9=1/99</scalar></list></module><module cmlx:lineCount="3" cmlx:templateRef="l101.title"><scalar dataType="xsd:string" dictRef="cc:title" cmlx:templateRef="title">CH3</scalar></module><module cmlx:lineCount="14" cmlx:templateRef="l101"><list cmlx:templateRef="rest"><scalar dataType="xsd:string" dictRef="x:l101"/></list></module><module cmlx:lineCount="20" cmlx:templateRef="l103"><list cmlx:templateRef="berny"><scalar dataType="xsd:string" dictRef="g:optimization">Initialization pass.</scalar></list><module cmlx:lineCount="13" cmlx:templateRef="l103.init"><list cmlx:templateRef="length"><array dataType="xsd:string" size="3" dictRef="g:symbol">R1 R2 R3</array><array dataType="xsd:integer" size="3" dictRef="g:atom1">1 1 1</array><array dataType="xsd:integer" size="3" dictRef="g:atom2">2 3 4</array><array dataType="xsd:double" size="3" dictRef="cc:distance">1.09 1.09 1.09</array><array delimiter="|" dataType="xsd:string" size="3" dictRef="g:deriv">|estimate D2E/DX2|estimate D2E/DX2|estimate D2E/DX2|</array></list><list cmlx:templateRef="angle"><array dataType="xsd:string" size="3" dictRef="g:symbol">A1 A2 A3</array><array dataType="xsd:integer" size="3" dictRef="g:atom1">2 2 3</array><array dataType="xsd:integer" size="3" dictRef="g:atom2">1 1 1</array><array dataType="xsd:integer" size="3" dictRef="g:atom3">3 4 4</array><array dataType="xsd:double" size="3" dictRef="cc:angle">120.0 120.0 120.0</array><array delimiter="|" dataType="xsd:string" size="3" dictRef="g:deriv">|estimate D2E/DX2|estimate D2E/DX2|estimate D2E/DX2|</array></list> ! A4    L(3,1,4,2,-2)         180.0            estimate D2E/DX2                !</module> --------------------------------------------------------------------------------<module cmlx:lineCount="2" cmlx:templateRef="l103.trust"><scalar dataType="xsd:double" dictRef="g:trustrad">0.3</scalar><scalar dataType="xsd:double" dictRef="g:fncerr">1.0E-7</scalar><scalar dataType="xsd:double" dictRef="g:grderr">1.0E-6</scalar><scalar dataType="xsd:integer" dictRef="g:nstep">20</scalar><scalar dataType="xsd:integer" dictRef="g:allowedstep">100</scalar></module> GradGradGradGradGradGradGradGradGradGradGradGradGradGradGradGradGradGrad</module><module cmlx:lineCount="10" cmlx:templateRef="l202.orient"><molecule id="mol.l202.orient" cmlx:templateRef="atom"><atomArray><atom id="a1" elementType="C" x3="0.0" y3="0.0" z3="0.0"><scalar dataType="xsd:integer" dictRef="cc:serial">1</scalar><scalar dataType="xsd:integer" dictRef="g:atomicType">0</scalar><scalar dataType="xsd:integer" dictRef="compchem:atomicNumber">6</scalar></atom><atom id="a2" elementType="H" x3="0.0" y3="0.0" z3="1.09"><scalar dataType="xsd:integer" dictRef="cc:serial">2</scalar><scalar dataType="xsd:integer" dictRef="g:atomicType">0</scalar><scalar dataType="xsd:integer" dictRef="compchem:atomicNumber">1</scalar></atom><atom id="a3" elementType="H" x3="0.943968" y3="0.0" z3="-0.545"><scalar dataType="xsd:integer" dictRef="cc:serial">3</scalar><scalar dataType="xsd:integer" dictRef="g:atomicType">0</scalar><scalar dataType="xsd:integer" dictRef="compchem:atomicNumber">1</scalar></atom><atom id="a4" elementType="H" x3="-0.943968" y3="0.0" z3="-0.545"><scalar dataType="xsd:integer" dictRef="cc:serial">4</scalar><scalar dataType="xsd:integer" dictRef="g:atomicType">0</scalar><scalar dataType="xsd:integer" dictRef="compchem:atomicNumber">1</scalar></atom></atomArray><formula formalCharge="0" concise="C 1 H 3"><atomArray elementType="C H" count="1.0 3.0"/></formula><bondArray><bond atomRefs2="a1 a2" id="a1_a2" order="S"/><bond atomRefs2="a1 a3" id="a1_a3" order="S"/><bond atomRefs2="a1 a4" id="a1_a4" order="S"/></bondArray><property dictRef="cml:molmass"><scalar dataType="xsd:double" units="unit:dalton" xmlns:unit="http://www.xml-cml.org/unit/si/">15.03452</scalar></property></molecule></module><module cmlx:lineCount="6" cmlx:templateRef="l202.distmat"/><module cmlx:lineCount="6" cmlx:templateRef="l202.stoich"><scalar dataType="xsd:string" dictRef="cc:formula" cmlx:templateRef="stoich">CH3(2)</scalar><scalar dataType="xsd:string" dictRef="cc:frameworkgroup" cmlx:templateRef="framework">D3H[O(C),3C2(H)]</scalar><scalar dataType="xsd:integer" dictRef="cc:degfreedom" cmlx:templateRef="degfreedom">1</scalar><scalar dataType="xsd:string" dictRef="cc:pointgroup">D3H</scalar><scalar dataType="xsd:integer" dictRef="cc:operatorcount">12</scalar><scalar dataType="xsd:string" dictRef="cc:largestabelian">C2V</scalar><scalar dataType="xsd:integer" dictRef="cc:operatorcount">4</scalar><scalar dataType="xsd:string" dictRef="cc:largestconciseabelian">C2</scalar><scalar dataType="xsd:integer" dictRef="cc:operatorcount">2</scalar></module><module cmlx:lineCount="10" cmlx:templateRef="l202.orient"><molecule id="a4" cmlx:templateRef="atom"><atomArray><atom id="a1" elementType="C" x3="0.0" y3="0.0" z3="0.0"><scalar dataType="xsd:integer" dictRef="cc:serial">1</scalar><scalar dataType="xsd:integer" dictRef="g:atomicType">0</scalar><scalar dataType="xsd:integer" dictRef="compchem:atomicNumber">6</scalar></atom><atom id="a2" elementType="H" x3="0.0" y3="1.09" z3="0.0"><scalar dataType="xsd:integer" dictRef="cc:serial">2</scalar><scalar dataType="xsd:integer" dictRef="g:atomicType">0</scalar><scalar dataType="xsd:integer" dictRef="compchem:atomicNumber">1</scalar></atom><atom id="a3" elementType="H" x3="0.943968" y3="-0.545" z3="0.0"><scalar dataType="xsd:integer" dictRef="cc:serial">3</scalar><scalar dataType="xsd:integer" dictRef="g:atomicType">0</scalar><scalar dataType="xsd:integer" dictRef="compchem:atomicNumber">1</scalar></atom><atom id="a4" elementType="H" x3="-0.943968" y3="-0.545" z3="0.0"><scalar dataType="xsd:integer" dictRef="cc:serial">4</scalar><scalar dataType="xsd:integer" dictRef="g:atomicType">0</scalar><scalar dataType="xsd:integer" dictRef="compchem:atomicNumber">1</scalar></atom></atomArray><formula formalCharge="0" concise="C 1 H 3"><atomArray elementType="C H" count="1.0 3.0"/></formula><bondArray><bond atomRefs2="a1 a2" id="a1_a2" order="S"/><bond atomRefs2="a1 a3" id="a1_a3" order="S"/><bond atomRefs2="a1 a4" id="a1_a4" order="S"/></bondArray><property dictRef="cml:molmass"><scalar dataType="xsd:double" units="unit:dalton" xmlns:unit="http://www.xml-cml.org/unit/si/">15.03452</scalar></property></molecule></module><module cmlx:lineCount="1" cmlx:templateRef="l202.rotconst"><array dataType="xsd:double" size="3" dictRef="cc:rotconst" cmlx:templateRef="rotconst">281.3764839 281.3764839 140.688242</array></module><scalar dataType="xsd:integer" dictRef="g:buffer" cmlx:templateRef="buffer">262144</scalar><scalar dataType="xsd:string" dictRef="g:raffenetti" cmlx:templateRef="raff">Raffenetti</scalar><scalar dataType="xsd:string" dictRef="g:twoe" cmlx:templateRef="twoe">Two-electron</scalar><scalar dataType="xsd:double" dictRef="cc:nucrepener" cmlx:templateRef="nucrep">9.5795885875</scalar><module cmlx:lineCount="12" cmlx:templateRef="l301.basis"><scalar dataType="xsd:string" dictRef="cc:basis">6-31G(d)</scalar><scalar dataType="xsd:string" dictRef="cc:diffuse">(6D, 7F)</scalar><list cmlx:lineCount="4" cmlx:templateRef="symmadapt"><array dataType="xsd:integer" dictRef="cc:adapted" size="4">12 1 5 3</array><array dataType="xsd:string" dictRef="cc:symm" size="4">A1 A2 B1 B2</array></list><scalar dataType="xsd:integer" dictRef="cc:basiscount">21</scalar><scalar dataType="xsd:integer" dictRef="g:primbasis">40</scalar><scalar dataType="xsd:integer" dictRef="cc:cartesianbasis">21</scalar><scalar dataType="xsd:integer" dictRef="cc:alphae">5</scalar><scalar dataType="xsd:integer" dictRef="cc:betae">4</scalar><scalar dataType="xsd:integer" dictRef="cc:natoms">4</scalar><scalar dataType="xsd:integer" dictRef="cc:nactiveatoms">4</scalar><scalar dataType="xsd:integer" dictRef="cc:uniqatoms">2</scalar><scalar dataType="xsd:double" dictRef="g:sfac">5.66</scalar><scalar dataType="xsd:integer" dictRef="g:natfmm">60</scalar><scalar dataType="xsd:string" dictRef="g:big">F</scalar></module><module cmlx:lineCount="1" cmlx:templateRef="l302.basis"><list cmlx:templateRef="onee"><scalar dataType="xsd:string" dictRef="g:onee">One-electron integrals</scalar></list></module> NBasis=    21 RedAO= T  NBF=    12     1     5     3 NBsUse=    21 1.00D-06 NBFU=    12     1     5     3 Harris functional with IExCor=  402 diagonalized for initial guess. ExpMin= 1.61D-01 ExpMax= 3.05D+03 ExpMxC= 4.57D+02 IAcc=1 IRadAn=         1 AccDes= 1.00D-06 HarFok:  IExCor= 402 AccDes= 1.00D-06 IRadAn=         1 IDoV=1 ScaDFX=  1.000000  1.000000  1.000000  1.000000 Initial guess orbital symmetries:<module cmlx:lineCount="4" cmlx:templateRef="l401.alphabeta"><list cmlx:templateRef="alphabeta"><scalar dataType="xsd:string" dictRef="g:l401.type">Alpha</scalar></list><list cmlx:templateRef="l401"><scalar dataType="xsd:string" dictRef="g:l401">Occupied  (A1') (A1') (E') (E') (A2")</scalar><scalar dataType="xsd:string" dictRef="g:l401">Virtual   (A1') (E') (E') (A2") (E') (E') (A1') (E') (E')</scalar><scalar dataType="xsd:string" dictRef="g:l401">(A1') (E") (E") (A1') (E') (E') (A1')</scalar></list></module><module cmlx:lineCount="4" cmlx:templateRef="l401.alphabeta"><list cmlx:templateRef="alphabeta"><scalar dataType="xsd:string" dictRef="g:l401.type">Beta</scalar></list><list cmlx:templateRef="l401"><scalar dataType="xsd:string" dictRef="g:l401">Occupied  (A1') (A1') (E') (E')</scalar><scalar dataType="xsd:string" dictRef="g:l401">Virtual   (A2") (A1') (E') (E') (A2") (E') (E') (A1') (E')</scalar><scalar dataType="xsd:string" dictRef="g:l401">(E') (A1') (E") (E") (A1') (E') (E') (A1')</scalar></list></module> The electronic state of the initial guess is 2-A2". &lt;S**2&gt; of initial guess= 0.7500 Requested convergence on RMS density matrix=1.00D-08 within 128 cycles. Requested convergence on MAX density matrix=1.00D-06. Requested convergence on             energy=1.00D-06. No special actions if energy rises. Keep R1 and R2 integrals in memory in canonical form, NReq=      539269. Integral accuracy reduced to 1.0D-05 until final iterations. Initial convergence to 1.0D-05 achieved.  Increase integral accuracy. SCF Done:  E(UB+HF-LYP) =  -39.8381875982     A.U. after   10 cycles             Convg  =    0.4911D-08             -V/T =  2.0109             S**2   =   0.7539 Annihilation of the first spin contaminant: S**2 before annihilation     0.7539,   after     0.7500<module cmlx:lineCount="79" cmlx:templateRef="l601.popanal"> Orbital symmetries: Alpha Orbitals:<module cmlx:lineCount="1" cmlx:templateRef="l4601.occupied"/><module cmlx:lineCount="2" cmlx:templateRef="l4601.virtual"><list cmlx:templateRef="virt"><scalar dataType="xsd:string" dictRef="g:virtorbs">(A1') (E') (E') (A2") (E') (E') (A1') (E') (E')</scalar></list><list cmlx:templateRef="virt"><scalar dataType="xsd:string" dictRef="g:virtorbs">(A1') (E") (E") (A1') (E') (E') (A1')</scalar></list></module> Beta  Orbitals:       Occupied  (A1') (A1') (E') (E')<module cmlx:lineCount="2" cmlx:templateRef="l4601.virtual"><list cmlx:templateRef="virt"><scalar dataType="xsd:string" dictRef="g:virtorbs">(A2") (A1') (E') (E') (E') (E') (A2") (A1') (E')</scalar></list><list cmlx:templateRef="virt"><scalar dataType="xsd:string" dictRef="g:virtorbs">(E') (A1') (E") (E") (A1') (E') (E') (A1')</scalar></list></module><module cmlx:lineCount="1" cmlx:templateRef="l601.state"><scalar dataType="xsd:string" dictRef="g:l601.state">2-A2".</scalar></module><array dataType="xsd:double" size="5" dictRef="g:alphaocc">-10.19367 -0.67929 -0.41489 -0.41489 -0.22432</array><array dataType="xsd:double" size="16" dictRef="g:alphavirt">0.11193 0.17993 0.17993 0.53643 0.54739 0.54739 0.6823 0.90828 0.90828 0.95249 1.65093 1.65093 2.00426 2.17818 2.17818 4.06213</array><module cmlx:lineCount="5" cmlx:templateRef="l601.alphabetaeigen"/><array dataType="xsd:double" size="4" dictRef="g:betaocc">-10.17953 -0.63851 -0.40533 -0.40533</array><module cmlx:lineCount="1" cmlx:templateRef="l601.alphabetaeigen"/><array dataType="xsd:double" size="5" dictRef="g:betavirt">-0.04785 0.12823 0.18555 0.18555 0.55561</array><module cmlx:lineCount="1" cmlx:templateRef="l601.alphabetaeigen"/><array dataType="xsd:double" size="5" dictRef="g:betavirt">0.55561 0.61496 0.70822 0.913 0.913</array><module cmlx:lineCount="1" cmlx:templateRef="l601.alphabetaeigen"/><array dataType="xsd:double" size="5" dictRef="g:betavirt">0.98117 1.72272 1.72272 2.0912 2.18949</array><module cmlx:lineCount="1" cmlx:templateRef="l601.alphabetaeigen"/><array dataType="xsd:double" size="2" dictRef="g:betavirt">2.18949 4.10003</array><module cmlx:lineCount="1" cmlx:templateRef="l601.alphabetaeigen"/><module cmlx:lineCount="5" cmlx:templateRef="l601.condensed"><array dataType="xsd:double" size="4" dictRef="x:floatArr" cmlx:idx="1">5.346885 0.379586 0.379586 0.379586</array><array dataType="xsd:double" size="4" dictRef="x:floatArr" cmlx:idx="2">0.379586 0.517547 -0.029507 -0.029507</array><array dataType="xsd:double" size="4" dictRef="x:floatArr" cmlx:idx="3">0.379586 -0.029507 0.517547 -0.029507</array></module><list cmlx:templateRef="popanal"><scalar dataType="xsd:string" dictRef="x:popanal">4  H    0.379586  -0.029507  -0.029507   0.517547</scalar></list><module cmlx:lineCount="29" cmlx:templateRef="mulliken"><module cmlx:lineCount="7" cmlx:templateRef="l601.mullik"><scalar dataType="xsd:string" dictRef="g:title">Mulliken atomic charges:</scalar><scalar dataType="xsd:integer" dictRef="cc:serial">1</scalar><list cmlx:lineCount="4" cmlx:templateRef="row"><array dataType="xsd:integer" dictRef="cc:serial" size="4">1 2 3 4</array><array dataType="xsd:string" dictRef="cc:elementType" size="4">C H H H</array><array dataType="xsd:double" dictRef="x:charge" size="4">-0.485643 0.161881 0.161881 0.161881</array></list><scalar dataType="xsd:string" dictRef="x:type">Mulliken</scalar><scalar dataType="xsd:double" dictRef="x:charge.sum">0.0</scalar></module><module cmlx:lineCount="7" cmlx:templateRef="l601.mullik"><scalar dataType="xsd:string" dictRef="g:title">Atomic charges with hydrogens summed into heavy atoms:</scalar><scalar dataType="xsd:integer" dictRef="cc:serial">1</scalar><list cmlx:lineCount="4" cmlx:templateRef="row"><array dataType="xsd:integer" dictRef="cc:serial" size="4">1 2 3 4</array><array dataType="xsd:string" dictRef="cc:elementType" size="4">C H H H</array><array dataType="xsd:double" dictRef="x:charge" size="4">0.0 0.0 0.0 0.0</array></list><scalar dataType="xsd:string" dictRef="x:type">Mulliken</scalar><scalar dataType="xsd:double" dictRef="x:charge.sum">0.0</scalar></module>          Atomic-Atomic Spin Densities.              1          2          3          4     1  C    1.183320  -0.008891  -0.008891  -0.008891     2  H   -0.008891  -0.045185   0.000930   0.000930     3  H   -0.008891   0.000930  -0.045185   0.000930     4  H   -0.008891   0.000930   0.000930  -0.045185 Mulliken atomic spin densities:              1     1  C    1.156647     2  H   -0.052216     3  H   -0.052216     4  H   -0.052216 Sum of Mulliken spin densities=   1.00000<scalar dataType="xsd:double" dictRef="g:electextent2">29.598</scalar> Charge=     0.0000 electrons</module><module cmlx:lineCount="18" cmlx:templateRef="multipole"><array dataType="xsd:double" size="3" dictRef="cc:dipole">0.0 0.0 0.0</array><scalar dataType="xsd:double" dictRef="x:dipole">0.0</scalar><array dataType="xsd:double" size="3" dictRef="cc:quadrupole">-7.0125 -7.0125 -8.6653</array><array dataType="xsd:double" size="3" dictRef="cc:quadrupole">0.0 0.0 0.0</array><array dataType="xsd:double" size="6" dictRef="cc:quadrupole">0.5509 0.5509 -1.1019 0.0 0.0 0.0</array><array dataType="xsd:double" size="10" dictRef="cc:octapole">0.0 0.8193 0.0 0.0 -0.8193 0.0 0.0 0.0 0.0 0.0</array><array dataType="xsd:double" size="15" dictRef="cc:hexadecapole">-14.0702 -14.0702 -9.0088 0.0 0.0 0.0 0.0 0.0 0.0 -4.6901 -4.1879 -4.1879 0.0 0.0 0.0</array></module></module> Symmetry A1   KE= 3.631772495119D+01 Symmetry A2   KE= 6.523480522249D-33 Symmetry B1   KE= 1.947221880743D+00 Symmetry B2   KE= 1.144392778696D+00<module cmlx:lineCount="22" cmlx:templateRef="l601.fermi"><list cmlx:lineCount="4" cmlx:templateRef="fermi.atom"><array dataType="xsd:integer" dictRef="cc:serial" size="4">1 2 3 4</array><array dataType="xsd:string" dictRef="x:elementType" size="4">C H H H</array><array dataType="xsd:integer" dictRef="x:isotopeNumber" size="4">13 1 1 1</array><array dataType="xsd:double" dictRef="cc:coupling" size="4">0.11238 -0.01597 -0.01597 -0.01597</array><array dataType="xsd:double" dictRef="cc:coupling" size="4">126.33189 -71.37097 -71.37097 -71.37097</array><array dataType="xsd:double" dictRef="cc:coupling" size="4">45.07836 -25.46693 -25.46693 -25.46693</array><array dataType="xsd:double" dictRef="cc:coupling" size="4">42.13978 -23.80679 -23.80679 -23.80679</array></list><list cmlx:lineCount="4" cmlx:templateRef="fermi.spindipole"><array dataType="xsd:integer" dictRef="cc:serial" size="4">1 2 3 4</array><array dataType="xsd:double" dictRef="g:spindipole.xx" size="4">-0.547778 -0.072275 0.040754 0.040754</array><array dataType="xsd:double" dictRef="g:spindipole.yy" size="4">-0.547778 0.07843 -0.034598 -0.034598</array><array dataType="xsd:double" dictRef="g:spindipole.zz" size="4">1.095557 -0.006156 -0.006156 -0.006156</array></list><list cmlx:lineCount="4" cmlx:templateRef="fermi.spindipole"><array dataType="xsd:integer" dictRef="cc:serial" size="4">1 2 3 4</array><array dataType="xsd:double" dictRef="g:spindipole.xy" size="4">0.0 0.0 -0.065257 0.065257</array><array dataType="xsd:double" dictRef="g:spindipole.xz" size="4">0.0 0.0 0.0 0.0</array><array dataType="xsd:double" dictRef="g:spindipole.yz" size="4">0.0 0.0 0.0 0.0</array></list></module><module cmlx:lineCount="21" cmlx:templateRef="l601.anisospin"><module cmlx:lineCount="3" cmlx:templateRef="atom"><matrix rows="3" columns="3" dataType="xsd:double" dictRef="g:axis" cmlx:templateRef="baa">0.7001 0.7141 0.0 0.7141 -0.7001 0.0 0.0 0.0 1.0</matrix><vector3 dictRef="g:coupling.au">-0.5478 -0.5478 1.0956</vector3><vector3 dictRef="g:coupling.mhz">-73.507 -73.507 147.013</vector3><vector3 dictRef="g:coupling.g">-26.229 -26.229 52.458</vector3><vector3 dictRef="g:coupling.ten">-24.519 -24.519 49.038</vector3><scalar dataType="xsd:integer" dictRef="x:serial">1</scalar><scalar dataType="xsd:string" dictRef="x:elementType">C</scalar><scalar dataType="xsd:integer" dictRef="x:isotopeNumber">13</scalar></module> <module cmlx:lineCount="3" cmlx:templateRef="atom"><matrix rows="3" columns="3" dataType="xsd:double" dictRef="g:axis" cmlx:templateRef="baa">1.0 0.0 0.0 0.0 0.0 1.0 0.0 1.0 0.0</matrix><vector3 dictRef="g:coupling.au">-0.0723 -0.0062 0.0784</vector3><vector3 dictRef="g:coupling.mhz">-38.562 -3.284 41.847</vector3><vector3 dictRef="g:coupling.g">-13.76 -1.172 14.932</vector3><vector3 dictRef="g:coupling.ten">-12.863 -1.096 13.959</vector3><scalar dataType="xsd:integer" dictRef="x:serial">2</scalar><scalar dataType="xsd:string" dictRef="x:elementType">H</scalar><scalar dataType="xsd:integer" dictRef="x:isotopeNumber">1</scalar></module> <module cmlx:lineCount="3" cmlx:templateRef="atom"><matrix rows="3" columns="3" dataType="xsd:double" dictRef="g:axis" cmlx:templateRef="baa">0.5 0.866 0.0 0.0 0.0 1.0 0.866 -0.5 0.0</matrix><vector3 dictRef="g:coupling.au">-0.0723 -0.0062 0.0784</vector3><vector3 dictRef="g:coupling.mhz">-38.562 -3.284 41.847</vector3><vector3 dictRef="g:coupling.g">-13.76 -1.172 14.932</vector3><vector3 dictRef="g:coupling.ten">-12.863 -1.096 13.959</vector3><scalar dataType="xsd:integer" dictRef="x:serial">3</scalar><scalar dataType="xsd:string" dictRef="x:elementType">H</scalar><scalar dataType="xsd:integer" dictRef="x:isotopeNumber">1</scalar></module>               Baa    -0.0723   -38.562   -13.760   -12.863 -0.5000  0.8660  0.0000     4 H(1)   Bbb    -0.0062    -3.284    -1.172    -1.096  0.0000  0.0000  1.0000              Bcc     0.0784    41.847    14.932    13.959  0.8660  0.5000  0.0000</module>  --------------------------------------------------------------------------------- ***** Axes restored to original set ***** ------------------------------------------------------------------- Center     Atomic                   Forces (Hartrees/Bohr) Number     Number              X              Y              Z -------------------------------------------------------------------    1          6           0.000000000    0.000000000    0.000000000    2          1           0.000000000    0.000000000   -0.005057082    3          1          -0.004379562    0.000000000    0.002528541    4          1           0.004379562    0.000000000    0.002528541 ------------------------------------------------------------------- Cartesian Forces:  Max     0.005057082 RMS     0.002528541<module cmlx:lineCount="41" cmlx:templateRef="l103"><list cmlx:templateRef="berny"><scalar dataType="xsd:string" dictRef="g:optimization">Internal  Forces:  Max     0.005057082 RMS     0.003310637</scalar></list> Search for a local minimum. Step number   1 out of a maximum of  20 All quantities printed in internal units (Hartrees-Bohrs-Radians) Second derivative matrix not updated -- first step. The second derivative matrix:                          R1        R2        R3        A1        A2           R1           0.34813           R2           0.00000   0.34813           R3           0.00000   0.00000   0.34813           A1           0.00000   0.00000   0.00000   0.16000           A2           0.00000   0.00000   0.00000   0.00000   0.16000           A3           0.00000   0.00000   0.00000   0.00000   0.00000           A4           0.00000   0.00000   0.00000   0.00000   0.00000                          A3        A4           A3           0.16000           A4           0.00000   0.16000     Eigenvalues ---    0.16000   0.16000   0.16000   0.34813   0.34813     Eigenvalues ---    0.348131000.00000<module cmlx:lineCount="4" cmlx:templateRef="rfo"><list cmlx:templateRef="rfo"><scalar dataType="xsd:double" dictRef="g:lambda">-2.20246733E-4</scalar></list><list cmlx:templateRef="nolinear"><scalar dataType="xsd:string" dictRef="g:linear">Linear search</scalar></list><list cmlx:lineCount="2" cmlx:templateRef="iteration"><array dataType="xsd:integer" dictRef="cc:serial" size="2">1 2</array><array dataType="xsd:double" dictRef="g:rmscart" size="2">0.00950386 0.0</array><array dataType="xsd:double" dictRef="g:rmsint" size="2">0.0 0.0</array></list></module><module cmlx:lineCount="9" cmlx:templateRef="l103.deltas"><list cmlx:lineCount="7" cmlx:templateRef="delta"><array dataType="xsd:string" dictRef="cc:variable" size="7">R1 R2 R3 A1 A2 A3 A4</array><array dataType="xsd:double" dictRef="g:lastval" size="7">2.0598 2.0598 2.0598 2.0944 2.0944 2.0944 3.14159</array><array dataType="xsd:double" dictRef="cc:deriv" size="7">-0.00506 -0.00506 -0.00506 0.0 0.0 0.0 0.0</array><array dataType="xsd:double" dictRef="cc:delta.linear" size="7">0.0 0.0 0.0 0.0 0.0 0.0 0.0</array><array dataType="xsd:double" dictRef="cc:delta.quad" size="7">-0.01452 -0.01452 -0.01452 0.0 0.0 0.0 0.0</array><array dataType="xsd:double" dictRef="cc:delta.total" size="7">-0.01452 -0.01452 -0.01452 0.0 0.0 0.0 0.0</array><array dataType="xsd:double" dictRef="cc:newval" size="7">2.04528 2.04528 2.04528 2.0944 2.0944 2.0944 3.14159</array></list></module><module cmlx:lineCount="5" cmlx:templateRef="l103.itemconverge"><list cmlx:lineCount="4" cmlx:templateRef="row"><array dataType="xsd:string" dictRef="g:item"/><array dataType="xsd:double" dictRef="g:value" size="4">4.5E-4 3.0E-4 0.0018 0.0012</array><array dataType="xsd:double" dictRef="g:threshold" size="4">0.0 0.0 0.0 0.0</array><array dataType="xsd:string" dictRef="g:converged" size="4">NO NO NO NO</array></list></module><module cmlx:lineCount="1" cmlx:templateRef="preddelta"><list cmlx:templateRef="predicted"><scalar dataType="xsd:double" dictRef="g:predchange">-1.10193E-4</scalar></list></module> GradGradGradGradGradGradGradGradGradGradGradGradGradGradGradGradGradGrad</module><module cmlx:lineCount="10" cmlx:templateRef="l202.orient"><molecule id="a4" cmlx:templateRef="atom"><atomArray><atom id="a1" elementType="C" x3="0.0" y3="0.0" z3="0.0"><scalar dataType="xsd:integer" dictRef="cc:serial">1</scalar><scalar dataType="xsd:integer" dictRef="g:atomicType">0</scalar><scalar dataType="xsd:integer" dictRef="compchem:atomicNumber">6</scalar></atom><atom id="a2" elementType="H" x3="0.0" y3="0.0" z3="1.082318"><scalar dataType="xsd:integer" dictRef="cc:serial">2</scalar><scalar dataType="xsd:integer" dictRef="g:atomicType">0</scalar><scalar dataType="xsd:integer" dictRef="compchem:atomicNumber">1</scalar></atom><atom id="a3" elementType="H" x3="0.937315" y3="0.0" z3="-0.541159"><scalar dataType="xsd:integer" dictRef="cc:serial">3</scalar><scalar dataType="xsd:integer" dictRef="g:atomicType">0</scalar><scalar dataType="xsd:integer" dictRef="compchem:atomicNumber">1</scalar></atom><atom id="a4" elementType="H" x3="-0.937315" y3="0.0" z3="-0.541159"><scalar dataType="xsd:integer" dictRef="cc:serial">4</scalar><scalar dataType="xsd:integer" dictRef="g:atomicType">0</scalar><scalar dataType="xsd:integer" dictRef="compchem:atomicNumber">1</scalar></atom></atomArray><formula formalCharge="0" concise="C 1 H 3"><atomArray elementType="C H" count="1.0 3.0"/></formula><bondArray><bond atomRefs2="a1 a2" id="a1_a2" order="S"/><bond atomRefs2="a1 a3" id="a1_a3" order="S"/><bond atomRefs2="a1 a4" id="a1_a4" order="S"/></bondArray><property dictRef="cml:molmass"><scalar dataType="xsd:double" units="unit:dalton" xmlns:unit="http://www.xml-cml.org/unit/si/">15.03452</scalar></property></molecule></module><module cmlx:lineCount="6" cmlx:templateRef="l202.distmat"/><module cmlx:lineCount="6" cmlx:templateRef="l202.stoich"><scalar dataType="xsd:string" dictRef="cc:formula" cmlx:templateRef="stoich">CH3(2)</scalar><scalar dataType="xsd:string" dictRef="cc:frameworkgroup" cmlx:templateRef="framework">D3H[O(C),3C2(H)]</scalar><scalar dataType="xsd:integer" dictRef="cc:degfreedom" cmlx:templateRef="degfreedom">1</scalar><scalar dataType="xsd:string" dictRef="cc:pointgroup">D3H</scalar><scalar dataType="xsd:integer" dictRef="cc:operatorcount">12</scalar><scalar dataType="xsd:string" dictRef="cc:largestabelian">C2V</scalar><scalar dataType="xsd:integer" dictRef="cc:operatorcount">4</scalar><scalar dataType="xsd:string" dictRef="cc:largestconciseabelian">C2</scalar><scalar dataType="xsd:integer" dictRef="cc:operatorcount">2</scalar></module><module cmlx:lineCount="10" cmlx:templateRef="l202.orient"><molecule id="a4" cmlx:templateRef="atom"><atomArray><atom id="a1" elementType="C" x3="0.0" y3="0.0" z3="0.0"><scalar dataType="xsd:integer" dictRef="cc:serial">1</scalar><scalar dataType="xsd:integer" dictRef="g:atomicType">0</scalar><scalar dataType="xsd:integer" dictRef="compchem:atomicNumber">6</scalar></atom><atom id="a2" elementType="H" x3="0.0" y3="1.082318" z3="0.0"><scalar dataType="xsd:integer" dictRef="cc:serial">2</scalar><scalar dataType="xsd:integer" dictRef="g:atomicType">0</scalar><scalar dataType="xsd:integer" dictRef="compchem:atomicNumber">1</scalar></atom><atom id="a3" elementType="H" x3="0.937315" y3="-0.541159" z3="0.0"><scalar dataType="xsd:integer" dictRef="cc:serial">3</scalar><scalar dataType="xsd:integer" dictRef="g:atomicType">0</scalar><scalar dataType="xsd:integer" dictRef="compchem:atomicNumber">1</scalar></atom><atom id="a4" elementType="H" x3="-0.937315" y3="-0.541159" z3="0.0"><scalar dataType="xsd:integer" dictRef="cc:serial">4</scalar><scalar dataType="xsd:integer" dictRef="g:atomicType">0</scalar><scalar dataType="xsd:integer" dictRef="compchem:atomicNumber">1</scalar></atom></atomArray><formula formalCharge="0" concise="C 1 H 3"><atomArray elementType="C H" count="1.0 3.0"/></formula><bondArray><bond atomRefs2="a1 a2" id="a1_a2" order="S"/><bond atomRefs2="a1 a3" id="a1_a3" order="S"/><bond atomRefs2="a1 a4" id="a1_a4" order="S"/></bondArray><property dictRef="cml:molmass"><scalar dataType="xsd:double" units="unit:dalton" xmlns:unit="http://www.xml-cml.org/unit/si/">15.03452</scalar></property></molecule></module><module cmlx:lineCount="1" cmlx:templateRef="l202.rotconst"><array dataType="xsd:double" size="3" dictRef="cc:rotconst" cmlx:templateRef="rotconst">285.3850692 285.3850692 142.6925346</array></module><scalar dataType="xsd:integer" dictRef="g:buffer" cmlx:templateRef="buffer">262144</scalar><scalar dataType="xsd:string" dictRef="g:raffenetti" cmlx:templateRef="raff">Raffenetti</scalar><scalar dataType="xsd:string" dictRef="g:twoe" cmlx:templateRef="twoe">Two-electron</scalar><scalar dataType="xsd:double" dictRef="cc:nucrepener" cmlx:templateRef="nucrep">9.6475843126</scalar><module cmlx:lineCount="12" cmlx:templateRef="l301.basis"><scalar dataType="xsd:string" dictRef="cc:basis">6-31G(d)</scalar><scalar dataType="xsd:string" dictRef="cc:diffuse">(6D, 7F)</scalar><list cmlx:lineCount="4" cmlx:templateRef="symmadapt"><array dataType="xsd:integer" dictRef="cc:adapted" size="4">12 1 5 3</array><array dataType="xsd:string" dictRef="cc:symm" size="4">A1 A2 B1 B2</array></list><scalar dataType="xsd:integer" dictRef="cc:basiscount">21</scalar><scalar dataType="xsd:integer" dictRef="g:primbasis">40</scalar><scalar dataType="xsd:integer" dictRef="cc:cartesianbasis">21</scalar><scalar dataType="xsd:integer" dictRef="cc:alphae">5</scalar><scalar dataType="xsd:integer" dictRef="cc:betae">4</scalar><scalar dataType="xsd:integer" dictRef="cc:natoms">4</scalar><scalar dataType="xsd:integer" dictRef="cc:nactiveatoms">4</scalar><scalar dataType="xsd:integer" dictRef="cc:uniqatoms">2</scalar><scalar dataType="xsd:double" dictRef="g:sfac">5.66</scalar><scalar dataType="xsd:integer" dictRef="g:natfmm">60</scalar><scalar dataType="xsd:string" dictRef="g:big">F</scalar></module><module cmlx:lineCount="1" cmlx:templateRef="l302.basis"><list cmlx:templateRef="onee"><scalar dataType="xsd:string" dictRef="g:onee">One-electron integrals</scalar></list></module> NBasis=    21 RedAO= T  NBF=    12     1     5     3 NBsUse=    21 1.00D-06 NBFU=    12     1     5     3 Initial guess read from the read-write file: Initial guess orbital symmetries:<module cmlx:lineCount="4" cmlx:templateRef="l401.alphabeta"><list cmlx:templateRef="alphabeta"><scalar dataType="xsd:string" dictRef="g:l401.type">Alpha</scalar></list><list cmlx:templateRef="l401"><scalar dataType="xsd:string" dictRef="g:l401">Occupied  (A1') (A1') (E') (E') (A2")</scalar><scalar dataType="xsd:string" dictRef="g:l401">Virtual   (A1') (E') (E') (A2") (E') (E') (A1') (E') (E')</scalar><scalar dataType="xsd:string" dictRef="g:l401">(A1') (E") (E") (A1') (E') (E') (A1')</scalar></list></module><module cmlx:lineCount="4" cmlx:templateRef="l401.alphabeta"><list cmlx:templateRef="alphabeta"><scalar dataType="xsd:string" dictRef="g:l401.type">Beta</scalar></list><list cmlx:templateRef="l401"><scalar dataType="xsd:string" dictRef="g:l401">Occupied  (A1') (A1') (E') (E')</scalar><scalar dataType="xsd:string" dictRef="g:l401">Virtual   (A2") (A1') (E') (E') (E') (E') (A2") (A1') (E')</scalar><scalar dataType="xsd:string" dictRef="g:l401">(E') (A1') (E") (E") (A1') (E') (E') (A1')</scalar></list></module> &lt;S**2&gt; of initial guess= 0.7538 Requested convergence on RMS density matrix=1.00D-08 within 128 cycles. Requested convergence on MAX density matrix=1.00D-06. Requested convergence on             energy=1.00D-06. No special actions if energy rises. Keep R1 and R2 integrals in memory in canonical form, NReq=      539269. SCF Done:  E(UB+HF-LYP) =  -39.8382918286     A.U. after    7 cycles             Convg  =    0.5649D-08             -V/T =  2.0101             S**2   =   0.7538 Annihilation of the first spin contaminant: S**2 before annihilation     0.7538,   after     0.7500 ***** Axes restored to original set ***** ------------------------------------------------------------------- Center     Atomic                   Forces (Hartrees/Bohr) Number     Number              X              Y              Z -------------------------------------------------------------------    1          6           0.000000000    0.000000000    0.000000000    2          1           0.000000000    0.000000000    0.000309901    3          1           0.000268382    0.000000000   -0.000154951    4          1          -0.000268382    0.000000000   -0.000154951 ------------------------------------------------------------------- Cartesian Forces:  Max     0.000309901 RMS     0.000154951<module cmlx:lineCount="58" cmlx:templateRef="l103"><list cmlx:templateRef="berny"><scalar dataType="xsd:string" dictRef="g:optimization">Internal  Forces:  Max     0.000309901 RMS     0.000202878</scalar></list> Search for a local minimum. Step number   2 out of a maximum of  20 All quantities printed in internal units (Hartrees-Bohrs-Radians) Update second derivatives using D2CorX and points  1  2<module cmlx:lineCount="1" cmlx:templateRef="l103.trust"> Trust test= 9.46D-01 RLast= 2.51D-02 DXMaxT set to 3.00D-01</module> The second derivative matrix:                          R1        R2        R3        A1        A2           R1           0.35532           R2           0.00719   0.35532           R3           0.00719   0.00719   0.35532           A1           0.00000   0.00000   0.00000   0.16000           A2           0.00000   0.00000   0.00000   0.00000   0.16000           A3           0.00000   0.00000   0.00000   0.00000   0.00000           A4           0.00000   0.00000   0.00000   0.00000   0.00000                          A3        A4           A3           0.16000           A4           0.00000   0.16000     Eigenvalues ---    0.16000   0.16000   0.16000   0.34813   0.34813     Eigenvalues ---    0.369691000.00000<module cmlx:lineCount="4" cmlx:templateRef="rfo"> Quartic linear search produced a step of -0.05657. Iteration  1 RMS(Cart)=  0.00053760 RMS(Int)=  0.00000000 Iteration  2 RMS(Cart)=  0.00000000 RMS(Int)=  0.00000000</module><module cmlx:lineCount="9" cmlx:templateRef="l103.deltas"><list cmlx:lineCount="7" cmlx:templateRef="delta"><array dataType="xsd:string" dictRef="cc:variable" size="7">R1 R2 R3 A1 A2 A3 A4</array><array dataType="xsd:double" dictRef="g:lastval" size="7">2.04528 2.04528 2.04528 2.0944 2.0944 2.0944 3.14159</array><array dataType="xsd:double" dictRef="cc:deriv" size="7">3.1E-4 3.1E-4 3.1E-4 0.0 0.0 0.0 0.0</array><array dataType="xsd:double" dictRef="cc:delta.linear" size="7">8.2E-4 8.2E-4 8.2E-4 0.0 0.0 0.0 0.0</array><array dataType="xsd:double" dictRef="cc:delta.quad" size="7">0.0 0.0 0.0 0.0 0.0 0.0 0.0</array><array dataType="xsd:double" dictRef="cc:delta.total" size="7">8.2E-4 8.2E-4 8.2E-4 0.0 0.0 0.0 0.0</array><array dataType="xsd:double" dictRef="cc:newval" size="7">2.04611 2.04611 2.04611 2.0944 2.0944 2.0944 3.14159</array></list></module><module cmlx:lineCount="5" cmlx:templateRef="l103.itemconverge"><list cmlx:lineCount="4" cmlx:templateRef="row"><array dataType="xsd:string" dictRef="g:item"/><array dataType="xsd:double" dictRef="g:value" size="4">4.5E-4 3.0E-4 0.0018 0.0012</array><array dataType="xsd:double" dictRef="g:threshold" size="4">0.0 0.0 0.0 0.0</array><array dataType="xsd:string" dictRef="g:converged" size="4">YES YES YES YES</array></list></module><module cmlx:lineCount="1" cmlx:templateRef="preddelta"><list cmlx:templateRef="predicted"><scalar dataType="xsd:double" dictRef="g:predchange">-3.895079E-7</scalar></list></module><module cmlx:lineCount="15" cmlx:templateRef="l103.optimizedparam"><list cmlx:templateRef="completed"><scalar dataType="xsd:string" dictRef="g:optimization">Optimization completed.</scalar><scalar dataType="xsd:string" dictRef="g:optimization">-- Stationary point found.</scalar></list><list cmlx:templateRef="length"><array dataType="xsd:string" size="3" dictRef="g:symbol">R1 R2 R3</array><array dataType="xsd:integer" size="3" dictRef="g:atom1">1 1 1</array><array dataType="xsd:integer" size="3" dictRef="g:atom2">2 3 4</array><array dataType="xsd:double" size="3" dictRef="cc:distance">1.0823 1.0823 1.0823</array><array delimiter="|" dataType="xsd:string" size="3" dictRef="g:deriv">|-DE/DX =    0.0003|-DE/DX =    0.0003|-DE/DX =    0.0003|</array></list><list cmlx:templateRef="angle"><array dataType="xsd:string" size="3" dictRef="g:symbol">A1 A2 A3</array><array dataType="xsd:integer" size="3" dictRef="g:atom1">2 2 3</array><array dataType="xsd:integer" size="3" dictRef="g:atom2">1 1 1</array><array dataType="xsd:integer" size="3" dictRef="g:atom3">3 4 4</array><array dataType="xsd:double" size="3" dictRef="cc:angle">120.0 120.0 120.0</array><array delimiter="|" dataType="xsd:string" size="3" dictRef="g:deriv">|-DE/DX =    0.0|-DE/DX =    0.0|-DE/DX =    0.0|</array></list> ! A4    L(3,1,4,2,-2)         180.0            -DE/DX =    0.0                 !</module> -------------------------------------------------------------------------------- GradGradGradGradGradGradGradGradGradGradGradGradGradGradGradGradGradGrad</module><module cmlx:lineCount="10" cmlx:templateRef="l202.orient"><molecule id="a4" cmlx:templateRef="atom"><atomArray><atom id="a1" elementType="C" x3="0.0" y3="0.0" z3="0.0"><scalar dataType="xsd:integer" dictRef="cc:serial">1</scalar><scalar dataType="xsd:integer" dictRef="g:atomicType">0</scalar><scalar dataType="xsd:integer" dictRef="compchem:atomicNumber">6</scalar></atom><atom id="a2" elementType="H" x3="0.0" y3="0.0" z3="1.082318"><scalar dataType="xsd:integer" dictRef="cc:serial">2</scalar><scalar dataType="xsd:integer" dictRef="g:atomicType">0</scalar><scalar dataType="xsd:integer" dictRef="compchem:atomicNumber">1</scalar></atom><atom id="a3" elementType="H" x3="0.937315" y3="0.0" z3="-0.541159"><scalar dataType="xsd:integer" dictRef="cc:serial">3</scalar><scalar dataType="xsd:integer" dictRef="g:atomicType">0</scalar><scalar dataType="xsd:integer" dictRef="compchem:atomicNumber">1</scalar></atom><atom id="a4" elementType="H" x3="-0.937315" y3="0.0" z3="-0.541159"><scalar dataType="xsd:integer" dictRef="cc:serial">4</scalar><scalar dataType="xsd:integer" dictRef="g:atomicType">0</scalar><scalar dataType="xsd:integer" dictRef="compchem:atomicNumber">1</scalar></atom></atomArray><formula formalCharge="0" concise="C 1 H 3"><atomArray elementType="C H" count="1.0 3.0"/></formula><bondArray><bond atomRefs2="a1 a2" id="a1_a2" order="S"/><bond atomRefs2="a1 a3" id="a1_a3" order="S"/><bond atomRefs2="a1 a4" id="a1_a4" order="S"/></bondArray><property dictRef="cml:molmass"><scalar dataType="xsd:double" units="unit:dalton" xmlns:unit="http://www.xml-cml.org/unit/si/">15.03452</scalar></property></molecule></module><module cmlx:lineCount="6" cmlx:templateRef="l202.distmat"/><module cmlx:lineCount="6" cmlx:templateRef="l202.stoich"><scalar dataType="xsd:string" dictRef="cc:formula" cmlx:templateRef="stoich">CH3(2)</scalar><scalar dataType="xsd:string" dictRef="cc:frameworkgroup" cmlx:templateRef="framework">D3H[O(C),3C2(H)]</scalar><scalar dataType="xsd:integer" dictRef="cc:degfreedom" cmlx:templateRef="degfreedom">1</scalar><scalar dataType="xsd:string" dictRef="cc:pointgroup">D3H</scalar><scalar dataType="xsd:integer" dictRef="cc:operatorcount">12</scalar><scalar dataType="xsd:string" dictRef="cc:largestabelian">C2V</scalar><scalar dataType="xsd:integer" dictRef="cc:operatorcount">4</scalar><scalar dataType="xsd:string" dictRef="cc:largestconciseabelian">C2</scalar><scalar dataType="xsd:integer" dictRef="cc:operatorcount">2</scalar></module><module cmlx:lineCount="10" cmlx:templateRef="l202.orient"><molecule id="a4" cmlx:templateRef="atom"><atomArray><atom id="a1" elementType="C" x3="0.0" y3="0.0" z3="0.0"><scalar dataType="xsd:integer" dictRef="cc:serial">1</scalar><scalar dataType="xsd:integer" dictRef="g:atomicType">0</scalar><scalar dataType="xsd:integer" dictRef="compchem:atomicNumber">6</scalar></atom><atom id="a2" elementType="H" x3="0.0" y3="1.082318" z3="0.0"><scalar dataType="xsd:integer" dictRef="cc:serial">2</scalar><scalar dataType="xsd:integer" dictRef="g:atomicType">0</scalar><scalar dataType="xsd:integer" dictRef="compchem:atomicNumber">1</scalar></atom><atom id="a3" elementType="H" x3="0.937315" y3="-0.541159" z3="0.0"><scalar dataType="xsd:integer" dictRef="cc:serial">3</scalar><scalar dataType="xsd:integer" dictRef="g:atomicType">0</scalar><scalar dataType="xsd:integer" dictRef="compchem:atomicNumber">1</scalar></atom><atom id="a4" elementType="H" x3="-0.937315" y3="-0.541159" z3="0.0"><scalar dataType="xsd:integer" dictRef="cc:serial">4</scalar><scalar dataType="xsd:integer" dictRef="g:atomicType">0</scalar><scalar dataType="xsd:integer" dictRef="compchem:atomicNumber">1</scalar></atom></atomArray><formula formalCharge="0" concise="C 1 H 3"><atomArray elementType="C H" count="1.0 3.0"/></formula><bondArray><bond atomRefs2="a1 a2" id="a1_a2" order="S"/><bond atomRefs2="a1 a3" id="a1_a3" order="S"/><bond atomRefs2="a1 a4" id="a1_a4" order="S"/></bondArray><property dictRef="cml:molmass"><scalar dataType="xsd:double" units="unit:dalton" xmlns:unit="http://www.xml-cml.org/unit/si/">15.03452</scalar></property></molecule></module><module cmlx:lineCount="1" cmlx:templateRef="l202.rotconst"><array dataType="xsd:double" size="3" dictRef="cc:rotconst" cmlx:templateRef="rotconst">285.3850692 285.3850692 142.6925346</array></module><module cmlx:lineCount="79" cmlx:templateRef="l601.popanal"> Orbital symmetries: Alpha Orbitals:<module cmlx:lineCount="1" cmlx:templateRef="l4601.occupied"/><module cmlx:lineCount="2" cmlx:templateRef="l4601.virtual"><list cmlx:templateRef="virt"><scalar dataType="xsd:string" dictRef="g:virtorbs">(A1') (E') (E') (A2") (E') (E') (A1') (E') (E')</scalar></list><list cmlx:templateRef="virt"><scalar dataType="xsd:string" dictRef="g:virtorbs">(A1') (E") (E") (A1') (E') (E') (A1')</scalar></list></module> Beta  Orbitals:       Occupied  (A1') (A1') (E') (E')<module cmlx:lineCount="2" cmlx:templateRef="l4601.virtual"><list cmlx:templateRef="virt"><scalar dataType="xsd:string" dictRef="g:virtorbs">(A2") (A1') (E') (E') (E') (E') (A2") (A1') (E')</scalar></list><list cmlx:templateRef="virt"><scalar dataType="xsd:string" dictRef="g:virtorbs">(E') (A1') (E") (E") (A1') (E') (E') (A1')</scalar></list></module><module cmlx:lineCount="1" cmlx:templateRef="l601.state"><scalar dataType="xsd:string" dictRef="g:l601.state">2-A2".</scalar></module><array dataType="xsd:double" size="5" dictRef="g:alphaocc">-10.19143 -0.68133 -0.41651 -0.41651 -0.22427</array><array dataType="xsd:double" size="16" dictRef="g:alphavirt">0.11475 0.18216 0.18216 0.53687 0.54482 0.54482 0.68306 0.91472 0.91472 0.95837 1.65006 1.65006 2.01103 2.18724 2.18724 4.0668</array><module cmlx:lineCount="5" cmlx:templateRef="l601.alphabetaeigen"/><array dataType="xsd:double" size="4" dictRef="g:betaocc">-10.17733 -0.64066 -0.40686 -0.40686</array><module cmlx:lineCount="1" cmlx:templateRef="l601.alphabetaeigen"/><array dataType="xsd:double" size="5" dictRef="g:betavirt">-0.04795 0.13087 0.18767 0.18767 0.55297</array><module cmlx:lineCount="1" cmlx:templateRef="l601.alphabetaeigen"/><array dataType="xsd:double" size="5" dictRef="g:betavirt">0.55297 0.61535 0.7097 0.9196 0.9196</array><module cmlx:lineCount="1" cmlx:templateRef="l601.alphabetaeigen"/><array dataType="xsd:double" size="5" dictRef="g:betavirt">0.98719 1.72166 1.72166 2.09744 2.19851</array><module cmlx:lineCount="1" cmlx:templateRef="l601.alphabetaeigen"/><array dataType="xsd:double" size="2" dictRef="g:betavirt">2.19851 4.10466</array><module cmlx:lineCount="1" cmlx:templateRef="l601.alphabetaeigen"/><module cmlx:lineCount="5" cmlx:templateRef="l601.condensed"><array dataType="xsd:double" size="4" dictRef="x:floatArr" cmlx:idx="1">5.344581 0.381034 0.381034 0.381034</array><array dataType="xsd:double" size="4" dictRef="x:floatArr" cmlx:idx="2">0.381034 0.515947 -0.029771 -0.029771</array><array dataType="xsd:double" size="4" dictRef="x:floatArr" cmlx:idx="3">0.381034 -0.029771 0.515947 -0.029771</array></module><list cmlx:templateRef="popanal"><scalar dataType="xsd:string" dictRef="x:popanal">4  H    0.381034  -0.029771  -0.029771   0.515947</scalar></list><module cmlx:lineCount="29" cmlx:templateRef="mulliken"><module cmlx:lineCount="7" cmlx:templateRef="l601.mullik"><scalar dataType="xsd:string" dictRef="g:title">Mulliken atomic charges:</scalar><scalar dataType="xsd:integer" dictRef="cc:serial">1</scalar><list cmlx:lineCount="4" cmlx:templateRef="row"><array dataType="xsd:integer" dictRef="cc:serial" size="4">1 2 3 4</array><array dataType="xsd:string" dictRef="cc:elementType" size="4">C H H H</array><array dataType="xsd:double" dictRef="x:charge" size="4">-0.487682 0.162561 0.162561 0.162561</array></list><scalar dataType="xsd:string" dictRef="x:type">Mulliken</scalar><scalar dataType="xsd:double" dictRef="x:charge.sum">0.0</scalar></module><module cmlx:lineCount="7" cmlx:templateRef="l601.mullik"><scalar dataType="xsd:string" dictRef="g:title">Atomic charges with hydrogens summed into heavy atoms:</scalar><scalar dataType="xsd:integer" dictRef="cc:serial">1</scalar><list cmlx:lineCount="4" cmlx:templateRef="row"><array dataType="xsd:integer" dictRef="cc:serial" size="4">1 2 3 4</array><array dataType="xsd:string" dictRef="cc:elementType" size="4">C H H H</array><array dataType="xsd:double" dictRef="x:charge" size="4">0.0 0.0 0.0 0.0</array></list><scalar dataType="xsd:string" dictRef="x:type">Mulliken</scalar><scalar dataType="xsd:double" dictRef="x:charge.sum">0.0</scalar></module>          Atomic-Atomic Spin Densities.              1          2          3          4     1  C    1.182342  -0.008873  -0.008873  -0.008873     2  H   -0.008873  -0.044872   0.000919   0.000919     3  H   -0.008873   0.000919  -0.044872   0.000919     4  H   -0.008873   0.000919   0.000919  -0.044872 Mulliken atomic spin densities:              1     1  C    1.155723     2  H   -0.051908     3  H   -0.051908     4  H   -0.051908 Sum of Mulliken spin densities=   1.00000<scalar dataType="xsd:double" dictRef="g:electextent2">29.3893</scalar> Charge=     0.0000 electrons</module><module cmlx:lineCount="18" cmlx:templateRef="multipole"><array dataType="xsd:double" size="3" dictRef="cc:dipole">0.0 0.0 0.0</array><scalar dataType="xsd:double" dictRef="x:dipole">0.0</scalar><array dataType="xsd:double" size="3" dictRef="cc:quadrupole">-7.0054 -7.0054 -8.6392</array><array dataType="xsd:double" size="3" dictRef="cc:quadrupole">0.0 0.0 0.0</array><array dataType="xsd:double" size="6" dictRef="cc:quadrupole">0.5446 0.5446 -1.0892 0.0 0.0 0.0</array><array dataType="xsd:double" size="10" dictRef="cc:octapole">0.0 0.7982 0.0 0.0 -0.7982 0.0 0.0 0.0 0.0 0.0</array><array dataType="xsd:double" size="15" dictRef="cc:hexadecapole">-13.9234 -13.9234 -8.9725 0.0 0.0 0.0 0.0 0.0 0.0 -4.6411 -4.1477 -4.1477 0.0 0.0 0.0</array></module></module> Symmetry A1   KE= 3.633691741305D+01 Symmetry A2   KE= 8.557769213119D-34 Symmetry B1   KE= 1.959270328451D+00 Symmetry B2   KE= 1.143698978077D+00<module cmlx:lineCount="22" cmlx:templateRef="l601.fermi"><list cmlx:lineCount="4" cmlx:templateRef="fermi.atom"><array dataType="xsd:integer" dictRef="cc:serial" size="4">1 2 3 4</array><array dataType="xsd:string" dictRef="x:elementType" size="4">C H H H</array><array dataType="xsd:integer" dictRef="x:isotopeNumber" size="4">13 1 1 1</array><array dataType="xsd:double" dictRef="cc:coupling" size="4">0.11039 -0.01587 -0.01587 -0.01587</array><array dataType="xsd:double" dictRef="cc:coupling" size="4">124.09579 -70.95742 -70.95742 -70.95742</array><array dataType="xsd:double" dictRef="cc:coupling" size="4">44.28046 -25.31937 -25.31937 -25.31937</array><array dataType="xsd:double" dictRef="cc:coupling" size="4">41.3939 -23.66885 -23.66885 -23.66885</array></list><list cmlx:lineCount="4" cmlx:templateRef="fermi.spindipole"><array dataType="xsd:integer" dictRef="cc:serial" size="4">1 2 3 4</array><array dataType="xsd:double" dictRef="g:spindipole.xx" size="4">-0.54758 -0.073225 0.040763 0.040763</array><array dataType="xsd:double" dictRef="g:spindipole.yy" size="4">-0.54758 0.078758 -0.035229 -0.035229</array><array dataType="xsd:double" dictRef="g:spindipole.zz" size="4">1.09516 -0.005533 -0.005533 -0.005533</array></list><list cmlx:lineCount="4" cmlx:templateRef="fermi.spindipole"><array dataType="xsd:integer" dictRef="cc:serial" size="4">1 2 3 4</array><array dataType="xsd:double" dictRef="g:spindipole.xy" size="4">0.0 0.0 -0.065811 0.065811</array><array dataType="xsd:double" dictRef="g:spindipole.xz" size="4">0.0 0.0 0.0 0.0</array><array dataType="xsd:double" dictRef="g:spindipole.yz" size="4">0.0 0.0 0.0 0.0</array></list></module><module cmlx:lineCount="21" cmlx:templateRef="l601.anisospin"><module cmlx:lineCount="3" cmlx:templateRef="atom"><matrix rows="3" columns="3" dataType="xsd:double" dictRef="g:axis" cmlx:templateRef="baa">0.1484 0.9889 0.0 0.9889 -0.1484 0.0 0.0 0.0 1.0</matrix><vector3 dictRef="g:coupling.au">-0.5476 -0.5476 1.0952</vector3><vector3 dictRef="g:coupling.mhz">-73.48 -73.48 146.96</vector3><vector3 dictRef="g:coupling.g">-26.219 -26.219 52.439</vector3><vector3 dictRef="g:coupling.ten">-24.51 -24.51 49.021</vector3><scalar dataType="xsd:integer" dictRef="x:serial">1</scalar><scalar dataType="xsd:string" dictRef="x:elementType">C</scalar><scalar dataType="xsd:integer" dictRef="x:isotopeNumber">13</scalar></module> <module cmlx:lineCount="3" cmlx:templateRef="atom"><matrix rows="3" columns="3" dataType="xsd:double" dictRef="g:axis" cmlx:templateRef="baa">1.0 0.0 0.0 0.0 0.0 1.0 0.0 1.0 0.0</matrix><vector3 dictRef="g:coupling.au">-0.0732 -0.0055 0.0788</vector3><vector3 dictRef="g:coupling.mhz">-39.069 -2.952 42.022</vector3><vector3 dictRef="g:coupling.g">-13.941 -1.053 14.994</vector3><vector3 dictRef="g:coupling.ten">-13.032 -0.985 14.017</vector3><scalar dataType="xsd:integer" dictRef="x:serial">2</scalar><scalar dataType="xsd:string" dictRef="x:elementType">H</scalar><scalar dataType="xsd:integer" dictRef="x:isotopeNumber">1</scalar></module> <module cmlx:lineCount="3" cmlx:templateRef="atom"><matrix rows="3" columns="3" dataType="xsd:double" dictRef="g:axis" cmlx:templateRef="baa">0.5 0.866 0.0 0.0 0.0 1.0 0.866 -0.5 0.0</matrix><vector3 dictRef="g:coupling.au">-0.0732 -0.0055 0.0788</vector3><vector3 dictRef="g:coupling.mhz">-39.069 -2.952 42.022</vector3><vector3 dictRef="g:coupling.g">-13.941 -1.053 14.994</vector3><vector3 dictRef="g:coupling.ten">-13.032 -0.985 14.017</vector3><scalar dataType="xsd:integer" dictRef="x:serial">3</scalar><scalar dataType="xsd:string" dictRef="x:elementType">H</scalar><scalar dataType="xsd:integer" dictRef="x:isotopeNumber">1</scalar></module>               Baa    -0.0732   -39.069   -13.941   -13.032 -0.5000  0.8660  0.0000     4 H(1)   Bbb    -0.0055    -2.952    -1.053    -0.985  0.0000  0.0000  1.0000              Bcc     0.0788    42.022    14.994    14.017  0.8660  0.5000  0.0000</module>  ---------------------------------------------------------------------------------<module cmlx:lineCount="1" cmlx:templateRef="l9999.final"><map id="variableMap"/></module> C H,1,B1 H,1,B2,2,A1 H,1,B3,2,A2,3,D1,0      Variables: D1=180. B1=1.08231773 B2=1.08231773 A1=120. B3=1.08231773 A2=120.<module cmlx:lineCount="6" cmlx:templateRef="l9999.archive"><scalar dataType="xsd:string" dictRef="cc:hostname">GINC-NODE01</scalar><scalar dataType="xsd:string" dictRef="g:operation">FOpt</scalar><scalar dataType="xsd:string" dictRef="cc:method">UB3LYP</scalar><scalar dataType="xsd:string" dictRef="cc:basis">6-31G(d)</scalar><scalar dataType="xsd:string" dictRef="cc:jobname">CHS60A</scalar><scalar dataType="xsd:date" dictRef="cc:date">2006-11-21T00:00:00Z</scalar><scalar dataType="xsd:string" dictRef="g:keyword">#NB3LYP/6-31G(D)</scalar><scalar dataType="xsd:string" dictRef="g:keyword">OPT</scalar><scalar dataType="xsd:string" dictRef="g:keyword">FREQ</scalar><scalar dataType="xsd:string" dictRef="cc:title">CH3</scalar><molecule id="mol9999"><atomArray><atom id="a1" elementType="C" x3="0.0" y3="0.0" z3="0.0"><scalar dataType="xsd:integer" dictRef="compchem:atomicNumber">6</scalar></atom><atom id="a2" elementType="H" x3="0.0" y3="0.0" z3="1.0823177307"><scalar dataType="xsd:integer" dictRef="compchem:atomicNumber">1</scalar></atom><atom id="a3" elementType="H" x3="0.9373146498" y3="0.0" z3="-0.5411588654"><scalar dataType="xsd:integer" dictRef="compchem:atomicNumber">1</scalar></atom><atom id="a4" elementType="H" x3="-0.9373146498" y3="0.0" z3="-0.5411588654"><scalar dataType="xsd:integer" dictRef="compchem:atomicNumber">1</scalar></atom></atomArray><formula formalCharge="0" concise="C 1 H 3" dictRef="cc:formula.calc"/><bondArray><bond atomRefs2="a1 a2" id="a1_a2" order="S"/><bond atomRefs2="a1 a3" id="a1_a3" order="S"/><bond atomRefs2="a1 a4" id="a1_a4" order="S"/></bondArray><property dictRef="cml:molmass"><scalar dataType="xsd:double" units="unit:dalton" xmlns:unit="http://www.xml-cml.org/unit/si/">15.03452</scalar></property><formula concise="C 1 H 3" dictRef="cc:formula.user"/></molecule><scalar dataType="xsd:string" dictRef="cc:version">x86-Linux-G03RevB.04</scalar><scalar dataType="xsd:string" dictRef="cc:electronicstate">2-A2"</scalar><scalar dataType="xsd:double" dictRef="cc:hfenergy" units="nonsi:hartree">-39.8382918</scalar><scalar dataType="xsd:string" dictRef="x:S2">0.753759</scalar><scalar dataType="xsd:string" dictRef="x:S2-1">0.</scalar><scalar dataType="xsd:string" dictRef="x:S2A">0.750007</scalar><scalar dataType="xsd:double" dictRef="cc:rmsd" units="nonsi:unknown">5.649E-9</scalar><scalar dataType="xsd:double" dictRef="cc:rmsf" units="nonsi:unknown">1.55E-4</scalar><array dataType="xsd:double" size="3" dictRef="cc:dipole" units="nonsi:debye">0.0 0.0 0.0</array><scalar dataType="xsd:string" dictRef="cc:pointgroup">D03H [O(C1),3C2(H1)]</scalar><scalar dataType="xsd:string" dictRef="g:archive">@</scalar></module> In the beginning the Universe was created. This has made a lot of people very angry and been widely regarded as a bad move.                               -D.Adams<module cmlx:lineCount="3" cmlx:templateRef="jobcpu"><scalar dictRef="cc:jobtime" dataType="xsd:string">PT11.600S</scalar><scalar dataType="xsd:date" dictRef="cc:jobdatetime.end">2006-11-21T10:18:29Z</scalar><scalar dataType="xsd:string" dictRef="cc:program">Gaussian 03</scalar></module><module cmlx:lineCount="27" cmlx:templateRef="link1a"><list cmlx:templateRef="link1"><scalar dataType="xsd:integer" dictRef="g:link1">2</scalar></list><module cmlx:lineCount="3" cmlx:templateRef="l1.keywords"><scalar dataType="xsd:string" dictRef="cc:keyword">#N</scalar><scalar dataType="xsd:string" dictRef="cc:keyword">Geom=AllCheck</scalar><scalar dataType="xsd:string" dictRef="cc:keyword">Guess=Read</scalar><scalar dataType="xsd:string" dictRef="cc:keyword">SCRF=Check</scalar><scalar dataType="xsd:string" dictRef="cc:keyword">GenChk</scalar><scalar dataType="xsd:string" dictRef="cc:keyword">UB3LYP/6-31G(d)</scalar><scalar dataType="xsd:string" dictRef="cc:keyword">Freq</scalar></module><module cmlx:lineCount="1" cmlx:templateRef="l1.control"><list cmlx:templateRef="control"><scalar dataType="xsd:string" dictRef="g:control">1/10=4,29=7,30=1,38=1,40=1,46=1/1,3</scalar></list></module><module cmlx:lineCount="1" cmlx:templateRef="l1.control"><list cmlx:templateRef="control"><scalar dataType="xsd:string" dictRef="g:control">2/40=1/2</scalar></list></module><module cmlx:lineCount="1" cmlx:templateRef="l1.control"><list cmlx:templateRef="control"><scalar dataType="xsd:string" dictRef="g:control">3/5=1,6=6,7=1,11=2,16=1,25=1,30=1,70=2,71=2,74=-5/1,2,3</scalar></list></module><module cmlx:lineCount="1" cmlx:templateRef="l1.control"><list cmlx:templateRef="control"><scalar dataType="xsd:string" dictRef="g:control">4/5=1,7=2/1</scalar></list></module><module cmlx:lineCount="1" cmlx:templateRef="l1.control"><list cmlx:templateRef="control"><scalar dataType="xsd:string" dictRef="g:control">5/5=2,38=6/2</scalar></list></module><module cmlx:lineCount="1" cmlx:templateRef="l1.control"><list cmlx:templateRef="control"><scalar dataType="xsd:string" dictRef="g:control">8/6=4,10=90,11=11/1</scalar></list></module><module cmlx:lineCount="1" cmlx:templateRef="l1.control"><list cmlx:templateRef="control"><scalar dataType="xsd:string" dictRef="g:control">11/6=1,8=1,9=11,15=111,16=1/1,2,10</scalar></list></module><module cmlx:lineCount="1" cmlx:templateRef="l1.control"><list cmlx:templateRef="control"><scalar dataType="xsd:string" dictRef="g:control">10/6=1/2</scalar></list></module><module cmlx:lineCount="1" cmlx:templateRef="l1.control"><list cmlx:templateRef="control"><scalar dataType="xsd:string" dictRef="g:control">6/7=2,8=2,9=2,10=2,18=1,28=1/1</scalar></list></module><module cmlx:lineCount="1" cmlx:templateRef="l1.control"><list cmlx:templateRef="control"><scalar dataType="xsd:string" dictRef="g:control">7/8=1,10=1,25=1/1,2,3,16</scalar></list></module><module cmlx:lineCount="1" cmlx:templateRef="l1.control"><list cmlx:templateRef="control"><scalar dataType="xsd:string" dictRef="g:control">1/10=4,30=1,46=1/3</scalar></list></module><module cmlx:lineCount="1" cmlx:templateRef="l1.control"><list cmlx:templateRef="control"><scalar dataType="xsd:string" dictRef="g:control">99//99</scalar></list></module><module cmlx:lineCount="3" cmlx:templateRef="l101.title"><scalar dataType="xsd:string" dictRef="cc:title" cmlx:templateRef="title">CH3</scalar></module><module cmlx:lineCount="2" cmlx:templateRef="l101.redundantcoords"><scalar dataType="xsd:string" dictRef="g:redundant" cmlx:templateRef="redundant">Redundant internal coordinates taken from checkpoint file:</scalar><scalar dataType="xsd:string" dictRef="g:checkpoint" cmlx:templateRef="checkpoint">/tmp/webmo/4/Gau-5929.chk</scalar></module><module cmlx:lineCount="5" cmlx:templateRef="l101.zmata"><list cmlx:templateRef="chargemult"><list><scalar dataType="xsd:integer" dictRef="x:formalCharge">0</scalar><scalar dataType="xsd:integer" dictRef="x:multiplicity">2</scalar></list></list><list cmlx:lineCount="4" cmlx:templateRef="atom"><array dataType="xsd:string" dictRef="cc:elementType" size="4">C H H H</array><array dataType="xsd:integer" dictRef="g:type" size="4">0 0 0 0</array><array dataType="xsd:double" dictRef="cc:x3" size="4">0.0 0.0 0.9373146498 -0.9373146498</array><array dataType="xsd:double" dictRef="cc:y3" size="4">0.0 0.0 0.0 0.0</array><array dataType="xsd:double" dictRef="cc:z3" size="4">0.0 1.0823177307 -0.5411588654 -0.5411588654</array></list></module><list cmlx:templateRef="link1a"><scalar dataType="xsd:string" dictRef="g:link1a">Recover connectivity data from disk.</scalar></list></module><module cmlx:lineCount="20" cmlx:templateRef="l103"><list cmlx:templateRef="berny"><scalar dataType="xsd:string" dictRef="g:optimization">Initialization pass.</scalar></list><module cmlx:lineCount="13" cmlx:templateRef="l103.init"><list cmlx:templateRef="length"><array dataType="xsd:string" size="3" dictRef="g:symbol">R1 R2 R3</array><array dataType="xsd:integer" size="3" dictRef="g:atom1">1 1 1</array><array dataType="xsd:integer" size="3" dictRef="g:atom2">2 3 4</array><array dataType="xsd:double" size="3" dictRef="cc:distance">1.0823 1.0823 1.0823</array><array delimiter="|" dataType="xsd:string" size="3" dictRef="g:deriv">|calculate D2E/DX2 analytically|calculate D2E/DX2 analytically|calculate D2E/DX2 analytically|</array></list><list cmlx:templateRef="angle"><array dataType="xsd:string" size="3" dictRef="g:symbol">A1 A2 A3</array><array dataType="xsd:integer" size="3" dictRef="g:atom1">2 2 3</array><array dataType="xsd:integer" size="3" dictRef="g:atom2">1 1 1</array><array dataType="xsd:integer" size="3" dictRef="g:atom3">3 4 4</array><array dataType="xsd:double" size="3" dictRef="cc:angle">120.0 120.0 120.0</array><array delimiter="|" dataType="xsd:string" size="3" dictRef="g:deriv">|calculate D2E/DX2 analytically|calculate D2E/DX2 analytically|calculate D2E/DX2 analytically|</array></list> ! A4    L(3,1,4,2,-2)         180.0            calculate D2E/DX2 analytically  !</module> --------------------------------------------------------------------------------<module cmlx:lineCount="2" cmlx:templateRef="l103.trust"><scalar dataType="xsd:double" dictRef="g:trustrad">0.3</scalar><scalar dataType="xsd:double" dictRef="g:fncerr">1.0E-7</scalar><scalar dataType="xsd:double" dictRef="g:grderr">1.0E-7</scalar><scalar dataType="xsd:integer" dictRef="g:nstep">2</scalar><scalar dataType="xsd:integer" dictRef="g:allowedstep">2</scalar></module> GradGradGradGradGradGradGradGradGradGradGradGradGradGradGradGradGradGrad</module><module cmlx:lineCount="10" cmlx:templateRef="l202.orient"><molecule id="a4" cmlx:templateRef="atom"><atomArray><atom id="a1" elementType="C" x3="0.0" y3="0.0" z3="0.0"><scalar dataType="xsd:integer" dictRef="cc:serial">1</scalar><scalar dataType="xsd:integer" dictRef="g:atomicType">0</scalar><scalar dataType="xsd:integer" dictRef="compchem:atomicNumber">6</scalar></atom><atom id="a2" elementType="H" x3="0.0" y3="0.0" z3="1.082318"><scalar dataType="xsd:integer" dictRef="cc:serial">2</scalar><scalar dataType="xsd:integer" dictRef="g:atomicType">0</scalar><scalar dataType="xsd:integer" dictRef="compchem:atomicNumber">1</scalar></atom><atom id="a3" elementType="H" x3="0.937315" y3="0.0" z3="-0.541159"><scalar dataType="xsd:integer" dictRef="cc:serial">3</scalar><scalar dataType="xsd:integer" dictRef="g:atomicType">0</scalar><scalar dataType="xsd:integer" dictRef="compchem:atomicNumber">1</scalar></atom><atom id="a4" elementType="H" x3="-0.937315" y3="0.0" z3="-0.541159"><scalar dataType="xsd:integer" dictRef="cc:serial">4</scalar><scalar dataType="xsd:integer" dictRef="g:atomicType">0</scalar><scalar dataType="xsd:integer" dictRef="compchem:atomicNumber">1</scalar></atom></atomArray><formula formalCharge="0" concise="C 1 H 3"><atomArray elementType="C H" count="1.0 3.0"/></formula><bondArray><bond atomRefs2="a1 a2" id="a1_a2" order="S"/><bond atomRefs2="a1 a3" id="a1_a3" order="S"/><bond atomRefs2="a1 a4" id="a1_a4" order="S"/></bondArray><property dictRef="cml:molmass"><scalar dataType="xsd:double" units="unit:dalton" xmlns:unit="http://www.xml-cml.org/unit/si/">15.03452</scalar></property></molecule></module><module cmlx:lineCount="6" cmlx:templateRef="l202.distmat"/><module cmlx:lineCount="6" cmlx:templateRef="l202.stoich"><scalar dataType="xsd:string" dictRef="cc:formula" cmlx:templateRef="stoich">CH3(2)</scalar><scalar dataType="xsd:string" dictRef="cc:frameworkgroup" cmlx:templateRef="framework">D3H[O(C),3C2(H)]</scalar><scalar dataType="xsd:integer" dictRef="cc:degfreedom" cmlx:templateRef="degfreedom">1</scalar><scalar dataType="xsd:string" dictRef="cc:pointgroup">D3H</scalar><scalar dataType="xsd:integer" dictRef="cc:operatorcount">12</scalar><scalar dataType="xsd:string" dictRef="cc:largestabelian">C2V</scalar><scalar dataType="xsd:integer" dictRef="cc:operatorcount">4</scalar><scalar dataType="xsd:string" dictRef="cc:largestconciseabelian">C2</scalar><scalar dataType="xsd:integer" dictRef="cc:operatorcount">2</scalar></module><module cmlx:lineCount="10" cmlx:templateRef="l202.orient"><molecule id="a4" cmlx:templateRef="atom"><atomArray><atom id="a1" elementType="C" x3="0.0" y3="0.0" z3="0.0"><scalar dataType="xsd:integer" dictRef="cc:serial">1</scalar><scalar dataType="xsd:integer" dictRef="g:atomicType">0</scalar><scalar dataType="xsd:integer" dictRef="compchem:atomicNumber">6</scalar></atom><atom id="a2" elementType="H" x3="0.0" y3="1.082318" z3="0.0"><scalar dataType="xsd:integer" dictRef="cc:serial">2</scalar><scalar dataType="xsd:integer" dictRef="g:atomicType">0</scalar><scalar dataType="xsd:integer" dictRef="compchem:atomicNumber">1</scalar></atom><atom id="a3" elementType="H" x3="0.937315" y3="-0.541159" z3="0.0"><scalar dataType="xsd:integer" dictRef="cc:serial">3</scalar><scalar dataType="xsd:integer" dictRef="g:atomicType">0</scalar><scalar dataType="xsd:integer" dictRef="compchem:atomicNumber">1</scalar></atom><atom id="a4" elementType="H" x3="-0.937315" y3="-0.541159" z3="0.0"><scalar dataType="xsd:integer" dictRef="cc:serial">4</scalar><scalar dataType="xsd:integer" dictRef="g:atomicType">0</scalar><scalar dataType="xsd:integer" dictRef="compchem:atomicNumber">1</scalar></atom></atomArray><formula formalCharge="0" concise="C 1 H 3"><atomArray elementType="C H" count="1.0 3.0"/></formula><bondArray><bond atomRefs2="a1 a2" id="a1_a2" order="S"/><bond atomRefs2="a1 a3" id="a1_a3" order="S"/><bond atomRefs2="a1 a4" id="a1_a4" order="S"/></bondArray><property dictRef="cml:molmass"><scalar dataType="xsd:double" units="unit:dalton" xmlns:unit="http://www.xml-cml.org/unit/si/">15.03452</scalar></property></molecule></module><module cmlx:lineCount="1" cmlx:templateRef="l202.rotconst"><array dataType="xsd:double" size="3" dictRef="cc:rotconst" cmlx:templateRef="rotconst">285.3850692 285.3850692 142.6925346</array></module><scalar dataType="xsd:integer" dictRef="g:buffer" cmlx:templateRef="buffer">262144</scalar><scalar dataType="xsd:string" dictRef="g:raffenetti" cmlx:templateRef="raff">Raffenetti</scalar><scalar dataType="xsd:string" dictRef="g:twoe" cmlx:templateRef="twoe">Two-electron</scalar><scalar dataType="xsd:double" dictRef="cc:nucrepener" cmlx:templateRef="nucrep">9.6475843126</scalar><module cmlx:lineCount="12" cmlx:templateRef="l301.basis"><scalar dataType="xsd:string" dictRef="cc:basis">6-31G(d)</scalar><scalar dataType="xsd:string" dictRef="cc:diffuse">(6D, 7F)</scalar><list cmlx:lineCount="4" cmlx:templateRef="symmadapt"><array dataType="xsd:integer" dictRef="cc:adapted" size="4">12 1 5 3</array><array dataType="xsd:string" dictRef="cc:symm" size="4">A1 A2 B1 B2</array></list><scalar dataType="xsd:integer" dictRef="cc:basiscount">21</scalar><scalar dataType="xsd:integer" dictRef="g:primbasis">40</scalar><scalar dataType="xsd:integer" dictRef="cc:cartesianbasis">21</scalar><scalar dataType="xsd:integer" dictRef="cc:alphae">5</scalar><scalar dataType="xsd:integer" dictRef="cc:betae">4</scalar><scalar dataType="xsd:integer" dictRef="cc:natoms">4</scalar><scalar dataType="xsd:integer" dictRef="cc:nactiveatoms">4</scalar><scalar dataType="xsd:integer" dictRef="cc:uniqatoms">2</scalar><scalar dataType="xsd:double" dictRef="g:sfac">5.66</scalar><scalar dataType="xsd:integer" dictRef="g:natfmm">60</scalar><scalar dataType="xsd:string" dictRef="g:big">F</scalar></module><module cmlx:lineCount="1" cmlx:templateRef="l302.basis"><list cmlx:templateRef="onee"><scalar dataType="xsd:string" dictRef="g:onee">One-electron integrals</scalar></list></module> NBasis=    21 RedAO= T  NBF=    12     1     5     3 NBsUse=    21 1.00D-06 NBFU=    12     1     5     3 Initial guess read from the checkpoint file: /tmp/webmo/4/Gau-5929.chk Initial guess orbital symmetries:<module cmlx:lineCount="4" cmlx:templateRef="l401.alphabeta"><list cmlx:templateRef="alphabeta"><scalar dataType="xsd:string" dictRef="g:l401.type">Alpha</scalar></list><list cmlx:templateRef="l401"><scalar dataType="xsd:string" dictRef="g:l401">Occupied  (A1') (A1') (E') (E') (A2")</scalar><scalar dataType="xsd:string" dictRef="g:l401">Virtual   (A1') (E') (E') (A2") (E') (E') (A1') (E') (E')</scalar><scalar dataType="xsd:string" dictRef="g:l401">(A1') (E") (E") (A1') (E') (E') (A1')</scalar></list></module><module cmlx:lineCount="4" cmlx:templateRef="l401.alphabeta"><list cmlx:templateRef="alphabeta"><scalar dataType="xsd:string" dictRef="g:l401.type">Beta</scalar></list><list cmlx:templateRef="l401"><scalar dataType="xsd:string" dictRef="g:l401">Occupied  (A1') (A1') (E') (E')</scalar><scalar dataType="xsd:string" dictRef="g:l401">Virtual   (A2") (A1') (E') (E') (E') (E') (A2") (A1') (E')</scalar><scalar dataType="xsd:string" dictRef="g:l401">(E') (A1') (E") (E") (A1') (E') (E') (A1')</scalar></list></module> &lt;S**2&gt; of initial guess= 0.7538 Requested convergence on RMS density matrix=1.00D-08 within 128 cycles. Requested convergence on MAX density matrix=1.00D-06. Requested convergence on             energy=1.00D-06. No special actions if energy rises. Keep R1 and R2 integrals in memory in canonical form, NReq=      539269. SCF Done:  E(UB+HF-LYP) =  -39.8382918286     A.U. after    1 cycles             Convg  =    0.2115D-09             -V/T =  2.0101             S**2   =   0.7538 Annihilation of the first spin contaminant: S**2 before annihilation     0.7538,   after     0.7500<module cmlx:lineCount="1" cmlx:templateRef="l801"/> NBasis=    21 NAE=     5 NBE=     4 NFC=     0 NFV=     0 NROrb=     21 NOA=     5 NOB=     4 NVA=    16 NVB=    17 Symmetrizing basis deriv contribution to polar: IMax=3 JMax=2 DiffMx= 0.00D+00 G2DrvN: will do    5 centers at a time, making    1 passes doing MaxLOS=2. FoFDir/FoFCou used for L=0 through L=2.          Differentiating once with respect to electric field.                with respect to dipole field.          Differentiating once with respect to nuclear coordinates.          Store integrals in memory, NReq=      484125.          There are   9 degrees of freedom in the 1st order CPHF.     9 vectors were produced by pass  0. AX will form   9 AO Fock derivatives at one time.     9 vectors were produced by pass  1.     9 vectors were produced by pass  2.     9 vectors were produced by pass  3.     9 vectors were produced by pass  4.     7 vectors were produced by pass  5.     2 vectors were produced by pass  6. Inv2:  IOpt= 1 Iter= 1 AM= 7.56D-16 Conv= 1.00D-12. Inverted reduced A of dimension   54 with in-core refinement. Isotropic polarizability for W=    0.000000        9.59 Bohr**3. End of Minotr Frequency-dependent properties file   721 does not exist.<module cmlx:lineCount="93" cmlx:templateRef="l601.popanal"> Orbital symmetries: Alpha Orbitals:<module cmlx:lineCount="1" cmlx:templateRef="l4601.occupied"/><module cmlx:lineCount="2" cmlx:templateRef="l4601.virtual"><list cmlx:templateRef="virt"><scalar dataType="xsd:string" dictRef="g:virtorbs">(A1') (E') (E') (A2") (E') (E') (A1') (E') (E')</scalar></list><list cmlx:templateRef="virt"><scalar dataType="xsd:string" dictRef="g:virtorbs">(A1') (E") (E") (A1') (E') (E') (A1')</scalar></list></module> Beta  Orbitals:       Occupied  (A1') (A1') (E') (E')<module cmlx:lineCount="2" cmlx:templateRef="l4601.virtual"><list cmlx:templateRef="virt"><scalar dataType="xsd:string" dictRef="g:virtorbs">(A2") (A1') (E') (E') (E') (E') (A2") (A1') (E')</scalar></list><list cmlx:templateRef="virt"><scalar dataType="xsd:string" dictRef="g:virtorbs">(E') (A1') (E") (E") (A1') (E') (E') (A1')</scalar></list></module><module cmlx:lineCount="1" cmlx:templateRef="l601.state"><scalar dataType="xsd:string" dictRef="g:l601.state">2-A2".</scalar></module><array dataType="xsd:double" size="5" dictRef="g:alphaocc">-10.19143 -0.68133 -0.41651 -0.41651 -0.22427</array><array dataType="xsd:double" size="16" dictRef="g:alphavirt">0.11475 0.18216 0.18216 0.53687 0.54482 0.54482 0.68306 0.91472 0.91472 0.95837 1.65006 1.65006 2.01103 2.18724 2.18724 4.0668</array><module cmlx:lineCount="5" cmlx:templateRef="l601.alphabetaeigen"/><array dataType="xsd:double" size="4" dictRef="g:betaocc">-10.17733 -0.64066 -0.40686 -0.40686</array><module cmlx:lineCount="1" cmlx:templateRef="l601.alphabetaeigen"/><array dataType="xsd:double" size="5" dictRef="g:betavirt">-0.04795 0.13087 0.18767 0.18767 0.55297</array><module cmlx:lineCount="1" cmlx:templateRef="l601.alphabetaeigen"/><array dataType="xsd:double" size="5" dictRef="g:betavirt">0.55297 0.61535 0.7097 0.9196 0.9196</array><module cmlx:lineCount="1" cmlx:templateRef="l601.alphabetaeigen"/><array dataType="xsd:double" size="5" dictRef="g:betavirt">0.98719 1.72166 1.72166 2.09744 2.19851</array><module cmlx:lineCount="1" cmlx:templateRef="l601.alphabetaeigen"/><array dataType="xsd:double" size="2" dictRef="g:betavirt">2.19851 4.10466</array><module cmlx:lineCount="1" cmlx:templateRef="l601.alphabetaeigen"/><module cmlx:lineCount="5" cmlx:templateRef="l601.condensed"><array dataType="xsd:double" size="4" dictRef="x:floatArr" cmlx:idx="1">5.344581 0.381034 0.381034 0.381034</array><array dataType="xsd:double" size="4" dictRef="x:floatArr" cmlx:idx="2">0.381034 0.515947 -0.029771 -0.029771</array><array dataType="xsd:double" size="4" dictRef="x:floatArr" cmlx:idx="3">0.381034 -0.029771 0.515947 -0.029771</array></module><list cmlx:templateRef="popanal"><scalar dataType="xsd:string" dictRef="x:popanal">4  H    0.381034  -0.029771  -0.029771   0.515947</scalar></list><module cmlx:lineCount="43" cmlx:templateRef="mulliken"><module cmlx:lineCount="7" cmlx:templateRef="l601.mullik"><scalar dataType="xsd:string" dictRef="g:title">Mulliken atomic charges:</scalar><scalar dataType="xsd:integer" dictRef="cc:serial">1</scalar><list cmlx:lineCount="4" cmlx:templateRef="row"><array dataType="xsd:integer" dictRef="cc:serial" size="4">1 2 3 4</array><array dataType="xsd:string" dictRef="cc:elementType" size="4">C H H H</array><array dataType="xsd:double" dictRef="x:charge" size="4">-0.487682 0.162561 0.162561 0.162561</array></list><scalar dataType="xsd:string" dictRef="x:type">Mulliken</scalar><scalar dataType="xsd:double" dictRef="x:charge.sum">0.0</scalar></module><module cmlx:lineCount="7" cmlx:templateRef="l601.mullik"><scalar dataType="xsd:string" dictRef="g:title">Atomic charges with hydrogens summed into heavy atoms:</scalar><scalar dataType="xsd:integer" dictRef="cc:serial">1</scalar><list cmlx:lineCount="4" cmlx:templateRef="row"><array dataType="xsd:integer" dictRef="cc:serial" size="4">1 2 3 4</array><array dataType="xsd:string" dictRef="cc:elementType" size="4">C H H H</array><array dataType="xsd:double" dictRef="x:charge" size="4">0.0 0.0 0.0 0.0</array></list><scalar dataType="xsd:string" dictRef="x:type">Mulliken</scalar><scalar dataType="xsd:double" dictRef="x:charge.sum">0.0</scalar></module>          Atomic-Atomic Spin Densities.              1          2          3          4     1  C    1.182342  -0.008873  -0.008873  -0.008873     2  H   -0.008873  -0.044872   0.000919   0.000919     3  H   -0.008873   0.000919  -0.044872   0.000919     4  H   -0.008873   0.000919   0.000919  -0.044872 Mulliken atomic spin densities:              1     1  C    1.155723     2  H   -0.051908     3  H   -0.051908     4  H   -0.051908 Sum of Mulliken spin densities=   1.00000<module cmlx:lineCount="7" cmlx:templateRef="l601.mullik"><scalar dataType="xsd:string" dictRef="g:title">APT atomic charges:</scalar><scalar dataType="xsd:integer" dictRef="cc:serial">1</scalar><list cmlx:lineCount="4" cmlx:templateRef="row"><array dataType="xsd:integer" dictRef="cc:serial" size="4">1 2 3 4</array><array dataType="xsd:string" dictRef="cc:elementType" size="4">C H H H</array><array dataType="xsd:double" dictRef="x:charge" size="4">-0.125179 0.041732 0.041728 0.041728</array></list><scalar dataType="xsd:string" dictRef="x:type">APT</scalar><scalar dataType="xsd:double" dictRef="x:charge.sum">1.0E-5</scalar></module><module cmlx:lineCount="7" cmlx:templateRef="l601.mullik"><scalar dataType="xsd:string" dictRef="g:title">APT Atomic charges with hydrogens summed into heavy atoms:</scalar><scalar dataType="xsd:integer" dictRef="cc:serial">1</scalar><list cmlx:lineCount="4" cmlx:templateRef="row"><array dataType="xsd:integer" dictRef="cc:serial" size="4">1 2 3 4</array><array dataType="xsd:string" dictRef="cc:elementType" size="4">C H H H</array><array dataType="xsd:double" dictRef="x:charge" size="4">8.0E-6 0.0 0.0 0.0</array></list><scalar dataType="xsd:string" dictRef="x:type">APT</scalar><scalar dataType="xsd:double" dictRef="x:charge.sum">1.0E-5</scalar></module><scalar dataType="xsd:double" dictRef="g:electextent2">29.3893</scalar> Charge=     0.0000 electrons</module><module cmlx:lineCount="18" cmlx:templateRef="multipole"><array dataType="xsd:double" size="3" dictRef="cc:dipole">0.0 0.0 0.0</array><scalar dataType="xsd:double" dictRef="x:dipole">0.0</scalar><array dataType="xsd:double" size="3" dictRef="cc:quadrupole">-7.0054 -7.0054 -8.6392</array><array dataType="xsd:double" size="3" dictRef="cc:quadrupole">0.0 0.0 0.0</array><array dataType="xsd:double" size="6" dictRef="cc:quadrupole">0.5446 0.5446 -1.0892 0.0 0.0 0.0</array><array dataType="xsd:double" size="10" dictRef="cc:octapole">0.0 0.7982 0.0 0.0 -0.7982 0.0 0.0 0.0 0.0 0.0</array><array dataType="xsd:double" size="15" dictRef="cc:hexadecapole">-13.9234 -13.9234 -8.9725 0.0 0.0 0.0 0.0 0.0 0.0 -4.6411 -4.1477 -4.1477 0.0 0.0 0.0</array></module></module> Symmetry A1   KE= 3.633691741552D+01 Symmetry A2   KE= 8.557769208622D-34 Symmetry B1   KE= 1.959270329453D+00 Symmetry B2   KE= 1.143698978299D+00<module cmlx:lineCount="2" cmlx:templateRef="l601.polariz"><list cmlx:templateRef="l601.pol"><scalar dataType="xsd:double" dictRef="g:l601.pol.exact">11.864</scalar><scalar dataType="xsd:double" dictRef="g:l601.pol">0.0</scalar><scalar dataType="xsd:double" dictRef="g:l601.pol">11.864</scalar><scalar dataType="xsd:double" dictRef="g:l601.pol">0.0</scalar><scalar dataType="xsd:double" dictRef="g:l601.pol">0.0</scalar><scalar dataType="xsd:double" dictRef="g:l601.pol">5.052</scalar></list><list cmlx:templateRef="l601.pol"><scalar dataType="xsd:double" dictRef="g:l601.pol.approx">13.78</scalar><scalar dataType="xsd:double" dictRef="g:l601.pol">0.0</scalar><scalar dataType="xsd:double" dictRef="g:l601.pol">13.78</scalar><scalar dataType="xsd:double" dictRef="g:l601.pol">0.0</scalar><scalar dataType="xsd:double" dictRef="g:l601.pol">0.0</scalar><scalar dataT
[...]
dataType="xsd:integer" dictRef="cc:serial" size="4">1 2 3 4</array><array dataType="xsd:string" dictRef="x:elementType" size="4">C H H H</array><array dataType="xsd:integer" dictRef="x:isotopeNumber" size="4">13 1 1 1</array><array dataType="xsd:double" dictRef="cc:coupling" size="4">0.11039 -0.01587 -0.01587 -0.01587</array><array dataType="xsd:double" dictRef="cc:coupling" size="4">124.0958 -70.95741 -70.95741 -70.95741</array><array dataType="xsd:double" dictRef="cc:coupling" size="4">44.28046 -25.31937 -25.31937 -25.31937</array><array dataType="xsd:double" dictRef="cc:coupling" size="4">41.3939 -23.66885 -23.66885 -23.66885</array></list><list cmlx:lineCount="4" cmlx:templateRef="fermi.spindipole"><array dataType="xsd:integer" dictRef="cc:serial" size="4">1 2 3 4</array><array dataType="xsd:double" dictRef="g:spindipole.xx" size="4">-0.54758 -0.073225 0.040763 0.040763</array><array dataType="xsd:double" dictRef="g:spindipole.yy" size="4">-0.54758 0.078758 -0.035229 -0.035229</array><array dataType="xsd:double" dictRef="g:spindipole.zz" size="4">1.09516 -0.005533 -0.005533 -0.005533</array></list><list cmlx:lineCount="4" cmlx:templateRef="fermi.spindipole"><array dataType="xsd:integer" dictRef="cc:serial" size="4">1 2 3 4</array><array dataType="xsd:double" dictRef="g:spindipole.xy" size="4">0.0 0.0 -0.065811 0.065811</array><array dataType="xsd:double" dictRef="g:spindipole.xz" size="4">0.0 0.0 0.0 0.0</array><array dataType="xsd:double" dictRef="g:spindipole.yz" size="4">0.0 0.0 0.0 0.0</array></list></module><module cmlx:lineCount="21" cmlx:templateRef="l601.anisospin"><module cmlx:lineCount="3" cmlx:templateRef="atom"><matrix rows="3" columns="3" dataType="xsd:double" dictRef="g:axis" cmlx:templateRef="baa">0.9672 -0.254 0.0 0.254 0.9672 0.0 0.0 0.0 1.0</matrix><vector3 dictRef="g:coupling.au">-0.5476 -0.5476 1.0952</vector3><vector3 dictRef="g:coupling.mhz">-73.48 -73.48 146.96</vector3><vector3 dictRef="g:coupling.g">-26.219 -26.219 52.439</vector3><vector3 dictRef="g:coupling.ten">-24.51 -24.51 49.021</vector3><scalar dataType="xsd:integer" dictRef="x:serial">1</scalar><scalar dataType="xsd:string" dictRef="x:elementType">C</scalar><scalar dataType="xsd:integer" dictRef="x:isotopeNumber">13</scalar></module> <module cmlx:lineCount="3" cmlx:templateRef="atom"><matrix rows="3" columns="3" dataType="xsd:double" dictRef="g:axis" cmlx:templateRef="baa">1.0 0.0 0.0 0.0 0.0 1.0 0.0 1.0 0.0</matrix><vector3 dictRef="g:coupling.au">-0.0732 -0.0055 0.0788</vector3><vector3 dictRef="g:coupling.mhz">-39.069 -2.952 42.022</vector3><vector3 dictRef="g:coupling.g">-13.941 -1.053 14.994</vector3><vector3 dictRef="g:coupling.ten">-13.032 -0.985 14.017</vector3><scalar dataType="xsd:integer" dictRef="x:serial">2</scalar><scalar dataType="xsd:string" dictRef="x:elementType">H</scalar><scalar dataType="xsd:integer" dictRef="x:isotopeNumber">1</scalar></module> <module cmlx:lineCount="3" cmlx:templateRef="atom"><matrix rows="3" columns="3" dataType="xsd:double" dictRef="g:axis" cmlx:templateRef="baa">0.5 0.866 0.0 0.0 0.0 1.0 0.866 -0.5 0.0</matrix><vector3 dictRef="g:coupling.au">-0.0732 -0.0055 0.0788</vector3><vector3 dictRef="g:coupling.mhz">-39.069 -2.952 42.022</vector3><vector3 dictRef="g:coupling.g">-13.941 -1.053 14.994</vector3><vector3 dictRef="g:coupling.ten">-13.032 -0.985 14.017</vector3><scalar dataType="xsd:integer" dictRef="x:serial">3</scalar><scalar dataType="xsd:string" dictRef="x:elementType">H</scalar><scalar dataType="xsd:integer" dictRef="x:isotopeNumber">1</scalar></module>               Baa    -0.0732   -39.069   -13.941   -13.032 -0.5000  0.8660  0.0000     4 H(1)   Bbb    -0.0055    -2.952    -1.053    -0.985  0.0000  0.0000  1.0000              Bcc     0.0788    42.022    14.994    14.017  0.8660  0.5000  0.0000</module>  ---------------------------------------------------------------------------------<module cmlx:lineCount="96" cmlx:templateRef="l716"><module cmlx:lineCount="32" cmlx:templateRef="l716.forcematrix"> Full mass-weighted force constant matrix: Low frequencies ---  -63.8967  -63.8941  -61.6201   -0.0049    0.0442    0.5572 Low frequencies ---  448.8080 1430.3384 1430.3401<module cmlx:lineCount="1" cmlx:templateRef="l716.diagvib"/>        0.0488850       0.0488958      11.9888511<array dataType="xsd:integer" size="6" dictRef="x:serial">1 2 3 4 5 6</array><array delimiter="|" dataType="xsd:string" size="6" dictRef="cc:irrep">|A2"|E'|E'|A1'|E'|E'|</array><array dataType="xsd:double" size="6" dictRef="cc:frequency">448.808 1430.3384 1430.3401 3147.5943 3322.5096 3322.5105</array><array dataType="xsd:double" size="6" dictRef="cc:redmass">1.2356 1.102 1.102 1.0078 1.1185 1.1185</array><array dataType="xsd:double" size="6" dictRef="cc:forceconst">0.1466 1.3283 1.3283 5.8829 7.2746 7.2746</array><array dataType="xsd:double" size="6" dictRef="cc:irintensity">89.7358 2.3316 2.3308 0.0 7.4763 7.4762</array><module cmlx:lineCount="27" cmlx:templateRef="l716.freq.chunkx"><array dataType="xsd:integer" size="4" dictRef="x:serial">1 2 3 4</array><array dataType="xsd:integer" size="4" dictRef="cc:atomicNumber">6 1 1 1</array><array dataType="xsd:double" size="72" dictRef="cc:displacement">0.0 0.0 0.14 0.0 0.09 0.0 -0.09 0.0 0.0 0.0 0.0 -0.57 0.0 0.07 0.0 0.81 0.0 0.0 0.0 0.0 -0.57 -0.38 -0.59 0.0 0.15 0.38 0.0 0.0 0.0 -0.57 0.38 -0.59 0.0 0.15 -0.38 0.0 0.0 0.0 0.0 0.1 0.0 0.0 0.0 0.1 0.0 0.0 0.58 0.0 0.02 0.0 0.0 0.0 -0.81 0.0 0.5 -0.29 0.0 -0.61 0.36 0.0 0.36 -0.19 0.0 -0.5 -0.29 0.0 -0.61 -0.36 0.0 -0.36 -0.19 0.0</array></module></module><module cmlx:lineCount="26" cmlx:templateRef="l716.thermochemistry"> ------------------- - Thermochemistry - -------------------<scalar dataType="xsd:double" dictRef="cc:temp">298.15</scalar><scalar dataType="xsd:double" dictRef="cc:press">1.0</scalar><list cmlx:lineCount="4" cmlx:templateRef="mass"><array dataType="xsd:integer" dictRef="cc:serial" size="4">1 2 3 4</array><array dataType="xsd:integer" dictRef="x:elementType" size="4">6 1 1 1</array><array dataType="xsd:double" dictRef="cc:atomicmass" size="4">12.0 1.00783 1.00783 1.00783</array></list><scalar dataType="xsd:double" dictRef="cc:molmass" cmlx:templateRef="molmass">15.02348</scalar><matrix rows="3" columns="3" dataType="xsd:double" dictRef="cc:moi.eigenvectors">-0.45331 0.89135 0.0 0.89135 0.45331 0.0 0.0 0.0 1.0</matrix><array dataType="xsd:double" size="3" dictRef="cc:moi" cmlx:templateRef="eigen">6.32388 6.32388 12.64776</array><scalar dataType="xsd:integer" dictRef="cc:symmnumber">6</scalar><array dataType="xsd:double" size="3" dictRef="cc:rottemp" cmlx:templateRef="rottemp">13.69631 13.69631 6.84815</array><array dataType="xsd:double" size="3" dictRef="cc:rotconst" cmlx:templateRef="rotconst">285.38507 285.38507 142.69253</array><scalar dataType="xsd:double" dictRef="cc:zpe" units="u:jmol-1">78368.0</scalar> Warning -- explicit consideration of   1 degrees of freedom as           vibrations may cause significant error<array dataType="xsd:double" size="6" dictRef="cc:vibtemp">645.73 2057.94 2057.94 4528.68 4780.34 4780.35</array> </module><module cmlx:lineCount="9" cmlx:templateRef="l716.zeropoint"><scalar dataType="xsd:string" dictRef="cc:zpe.correction">0.029849</scalar><scalar dataType="xsd:string" dictRef="cc:zpe.thermalcorrener">0.032959</scalar><scalar dataType="xsd:string" dictRef="cc:zpe.thermalcorrenthalpy">0.033903</scalar><scalar dataType="xsd:string" dictRef="cc:zpe.thermalcorrgfe">0.011713</scalar><scalar dataType="xsd:string" dictRef="cc:zpe.sumelectzpe">-39.808443</scalar><scalar dataType="xsd:string" dictRef="cc:zpe.sumelectthermal">-39.805333</scalar><scalar dataType="xsd:string" dictRef="cc:zpe.sumelectthermal">-39.804388</scalar><scalar dataType="xsd:string" dictRef="cc:zpe.sumelectthermalfe">-39.826579</scalar> </module><module cmlx:lineCount="1" cmlx:templateRef="l716.thermoprops"/>                      KCal/Mol        Cal/Mol-Kelvin    Cal/Mol-Kelvin Total                   20.682              7.516             46.705 Electronic               0.000              0.000              1.377 Translational            0.889              2.981             34.068 Rotational               0.889              2.981             10.429 Vibrational             18.905              1.555              0.831 Vibration  1             0.808              1.364              0.799                       Q            Log10(Q)             Ln(Q) Total Bot       0.409856D-05         -5.387369        -12.404874 Total V=0       0.219831D+09          8.342089         19.208370 Vib (Bot)       0.211011D-13        -13.675695        -31.489451 Vib (Bot)  1    0.382464D+00         -0.417409         -0.961120 Vib (V=0)       0.113178D+01          0.053763          0.123794 Vib (V=0)  1    0.112951D+01          0.052889          0.121781 Electronic      0.200000D+01          0.301030          0.693147 Translational   0.228882D+07          6.359611         14.643545 Rotational      0.424312D+02          1.627686          3.747885 ***** Axes restored to original set *****<module cmlx:lineCount="10" cmlx:templateRef="l716.forces"><molecule id="l716.forces" cmlx:templateRef="force"><atomArray><atom id="a1" elementType="C"><scalar dataType="xsd:integer" dictRef="x:serial">1</scalar><scalar dataType="xsd:double" dictRef="x:dx3">0.0</scalar><scalar dataType="xsd:double" dictRef="x:dy3">0.0</scalar><scalar dataType="xsd:double" dictRef="x:dz3">0.0</scalar><scalar dataType="xsd:integer" dictRef="compchem:atomicNumber">6</scalar></atom><atom id="a2" elementType="H"><scalar dataType="xsd:integer" dictRef="x:serial">2</scalar><scalar dataType="xsd:double" dictRef="x:dx3">0.0</scalar><scalar dataType="xsd:double" dictRef="x:dy3">0.0</scalar><scalar dataType="xsd:double" dictRef="x:dz3">3.09901E-4</scalar><scalar dataType="xsd:integer" dictRef="compchem:atomicNumber">1</scalar></atom><atom id="a3" elementType="H"><scalar dataType="xsd:integer" dictRef="x:serial">3</scalar><scalar dataType="xsd:double" dictRef="x:dx3">2.68382E-4</scalar><scalar dataType="xsd:double" dictRef="x:dy3">0.0</scalar><scalar dataType="xsd:double" dictRef="x:dz3">-1.54951E-4</scalar><scalar dataType="xsd:integer" dictRef="compchem:atomicNumber">1</scalar></atom><atom id="a4" elementType="H"><scalar dataType="xsd:integer" dictRef="x:serial">4</scalar><scalar dataType="xsd:double" dictRef="x:dx3">-2.68382E-4</scalar><scalar dataType="xsd:double" dictRef="x:dy3">0.0</scalar><scalar dataType="xsd:double" dictRef="x:dz3">-1.54951E-4</scalar><scalar dataType="xsd:integer" dictRef="compchem:atomicNumber">1</scalar></atom></atomArray><formula formalCharge="0" concise="C 1 H 3"><atomArray elementType="C H" count="1.0 3.0"/></formula><property dictRef="cml:molmass"><scalar dataType="xsd:double" units="unit:dalton" xmlns:unit="http://www.xml-cml.org/unit/si/">12.0107</scalar></property></molecule><list cmlx:templateRef="cartesianforce"><scalar dataType="xsd:double" dictRef="cc:maxforce">3.09901E-4</scalar><scalar dataType="xsd:double" dictRef="cc:rmsforce">1.54951E-4</scalar></list></module></module><module cmlx:lineCount="57" cmlx:templateRef="l103"><list cmlx:templateRef="berny"><scalar dataType="xsd:string" dictRef="g:optimization">Internal  Forces:  Max     0.000309901 RMS     0.000202878</scalar></list> Search for a local minimum. Step number   1 out of a maximum of   2 All quantities printed in internal units (Hartrees-Bohrs-Radians) Second derivative matrix not updated -- analytic derivatives used. The second derivative matrix:                          R1        R2        R3        A1        A2           R1           0.37663           R2           0.00062   0.37663           R3           0.00062   0.00062   0.37663           A1           0.00544   0.00544  -0.01087   0.06549           A2           0.00544  -0.01087   0.00544  -0.03274   0.06549           A3          -0.01087   0.00544   0.00544  -0.03274  -0.03274           A4           0.00000   0.00000   0.00000   0.00000   0.00000                          A3        A4           A3           0.06549           A4           0.00000   0.00657     Eigenvalues ---    0.00657   0.09727   0.09727   0.37697   0.37697     Eigenvalues ---    0.377861000.00000 Angle between quadratic step and forces=   0.00 degrees. Linear search not attempted -- first point. Iteration  1 RMS(Cart)=  0.00053691 RMS(Int)=  0.00000000 Iteration  2 RMS(Cart)=  0.00000000 RMS(Int)=  0.00000000<module cmlx:lineCount="9" cmlx:templateRef="l103.deltas"><list cmlx:lineCount="7" cmlx:templateRef="delta"><array dataType="xsd:string" dictRef="cc:variable" size="7">R1 R2 R3 A1 A2 A3 A4</array><array dataType="xsd:double" dictRef="g:lastval" size="7">2.04528 2.04528 2.04528 2.0944 2.0944 2.0944 3.14159</array><array dataType="xsd:double" dictRef="cc:deriv" size="7">3.1E-4 3.1E-4 3.1E-4 0.0 0.0 0.0 0.0</array><array dataType="xsd:double" dictRef="cc:delta.linear" size="7">0.0 0.0 0.0 0.0 0.0 0.0 0.0</array><array dataType="xsd:double" dictRef="cc:delta.quad" size="7">8.2E-4 8.2E-4 8.2E-4 0.0 0.0 0.0 0.0</array><array dataType="xsd:double" dictRef="cc:delta.total" size="7">8.2E-4 8.2E-4 8.2E-4 0.0 0.0 0.0 0.0</array><array dataType="xsd:double" dictRef="cc:newval" size="7">2.0461 2.0461 2.0461 2.0944 2.0944 2.0944 3.14159</array></list></module><module cmlx:lineCount="5" cmlx:templateRef="l103.itemconverge"><list cmlx:lineCount="4" cmlx:templateRef="row"><array dataType="xsd:string" dictRef="g:item"/><array dataType="xsd:double" dictRef="g:value" size="4">4.5E-4 3.0E-4 0.0018 0.0012</array><array dataType="xsd:double" dictRef="g:threshold" size="4">0.0 0.0 0.0 0.0</array><array dataType="xsd:string" dictRef="g:converged" size="4">YES YES YES YES</array></list></module><module cmlx:lineCount="1" cmlx:templateRef="preddelta"><list cmlx:templateRef="predicted"><scalar dataType="xsd:double" dictRef="g:predchange">-3.812448E-7</scalar></list></module><module cmlx:lineCount="15" cmlx:templateRef="l103.optimizedparam"><list cmlx:templateRef="completed"><scalar dataType="xsd:string" dictRef="g:optimization">Optimization completed.</scalar><scalar dataType="xsd:string" dictRef="g:optimization">-- Stationary point found.</scalar></list><list cmlx:templateRef="length"><array dataType="xsd:string" size="3" dictRef="g:symbol">R1 R2 R3</array><array dataType="xsd:integer" size="3" dictRef="g:atom1">1 1 1</array><array dataType="xsd:integer" size="3" dictRef="g:atom2">2 3 4</array><array dataType="xsd:double" size="3" dictRef="cc:distance">1.0823 1.0823 1.0823</array><array delimiter="|" dataType="xsd:string" size="3" dictRef="g:deriv">|-DE/DX =    0.0003|-DE/DX =    0.0003|-DE/DX =    0.0003|</array></list><list cmlx:templateRef="angle"><array dataType="xsd:string" size="3" dictRef="g:symbol">A1 A2 A3</array><array dataType="xsd:integer" size="3" dictRef="g:atom1">2 2 3</array><array dataType="xsd:integer" size="3" dictRef="g:atom2">1 1 1</array><array dataType="xsd:integer" size="3" dictRef="g:atom3">3 4 4</array><array dataType="xsd:double" size="3" dictRef="cc:angle">120.0 120.0 120.0</array><array delimiter="|" dataType="xsd:string" size="3" dictRef="g:deriv">|-DE/DX =    0.0|-DE/DX =    0.0|-DE/DX =    0.0|</array></list> ! A4    L(3,1,4,2,-2)         180.0            -DE/DX =    0.0                 !</module> -------------------------------------------------------------------------------- GradGradGradGradGradGradGradGradGradGradGradGradGradGradGradGradGradGrad</module><module cmlx:lineCount="20" cmlx:templateRef="l9999.archive"><scalar dataType="xsd:string" dictRef="cc:hostname">GINC-NODE01</scalar><scalar dataType="xsd:string" dictRef="g:operation">Freq</scalar><scalar dataType="xsd:string" dictRef="cc:method">UB3LYP</scalar><scalar dataType="xsd:string" dictRef="cc:basis">6-31G(d)</scalar><scalar dataType="xsd:string" dictRef="cc:jobname">CHS60A</scalar><scalar dataType="xsd:date" dictRef="cc:date">2006-11-21T00:00:00Z</scalar><scalar dataType="xsd:string" dictRef="g:keyword">#NGEOM=ALLCHECK</scalar><scalar dataType="xsd:string" dictRef="g:keyword">GUESS=READ</scalar><scalar dataType="xsd:string" dictRef="g:keyword">SCRF=CHECK</scalar><scalar dataType="xsd:string" dictRef="g:keyword">GENCHK</scalar><scalar dataType="xsd:string" dictRef="g:keyword">UB3LYP/6-31G(D)</scalar><scalar dataType="xsd:string" dictRef="g:keyword">FREQ</scalar><scalar dataType="xsd:string" dictRef="cc:title">CH3</scalar><molecule id="a4"><atomArray><atom id="a1" elementType="C" x3="0.0" y3="0.0" z3="0.0"><scalar dataType="xsd:integer" dictRef="compchem:atomicNumber">6</scalar></atom><atom id="a2" elementType="H" x3="0.0" y3="0.0" z3="1.0823177307"><scalar dataType="xsd:integer" dictRef="compchem:atomicNumber">1</scalar></atom><atom id="a3" elementType="H" x3="0.9373146498" y3="0.0" z3="-0.5411588654"><scalar dataType="xsd:integer" dictRef="compchem:atomicNumber">1</scalar></atom><atom id="a4" elementType="H" x3="-0.9373146498" y3="0.0" z3="-0.5411588654"><scalar dataType="xsd:integer" dictRef="compchem:atomicNumber">1</scalar></atom></atomArray><formula formalCharge="0" concise="C 1 H 3" dictRef="cc:formula.calc"/><bondArray><bond atomRefs2="a1 a2" id="a1_a2" order="S"/><bond atomRefs2="a1 a3" id="a1_a3" order="S"/><bond atomRefs2="a1 a4" id="a1_a4" order="S"/></bondArray><property dictRef="cml:molmass"><scalar dataType="xsd:double" units="unit:dalton" xmlns:unit="http://www.xml-cml.org/unit/si/">15.03452</scalar></property><formula concise="C 1 H 3" dictRef="cc:formula.user"/></molecule><scalar dataType="xsd:string" dictRef="cc:version">x86-Linux-G03RevB.04</scalar><scalar dataType="xsd:string" dictRef="cc:electronicstate">2-A2"</scalar><scalar dataType="xsd:double" dictRef="cc:hfenergy" units="nonsi:hartree">-39.8382918</scalar><scalar dataType="xsd:string" dictRef="x:S2">0.753759</scalar><scalar dataType="xsd:string" dictRef="x:S2-1">0.</scalar><scalar dataType="xsd:string" dictRef="x:S2A">0.750007</scalar><scalar dataType="xsd:double" dictRef="cc:rmsd" units="nonsi:unknown">2.115E-10</scalar><scalar dataType="xsd:double" dictRef="cc:rmsf" units="nonsi:unknown">1.55E-4</scalar><array dataType="xsd:double" size="3" dictRef="cc:dipole" units="nonsi:debye">0.0 0.0 0.0</array><array dataType="xsd:double" size="36" dictRef="cc:dipolederiv" units="nonsi:unknown">0.0479653 0.0 0.0 0.0 -0.4714531 0.0 0.0 0.0 0.0479495 0.0393261 0.0 0.0 0.0 0.1571758 0.0 0.0 0.0 -0.0713058 -0.0436468 0.0 0.0479019 0.0 0.1571572 0.0 0.0478992 0.0 0.0116731 -0.0436468 0.0 -0.0479019 0.0 0.1571572 0.0 -0.0478992 0.0 0.0116731</array><array dataType="xsd:double" size="6" dictRef="cc:polarizability" units="nonsi:unknown">11.8637772 0.0 5.0516833 0.0 0.0 11.864082</array><scalar dataType="xsd:string" dictRef="cc:pointgroup">D03H [O(C1),3C2(H1)]</scalar><array dataType="xsd:double" size="78" dictRef="x:unknown">0.62802806 0.0 0.01838793 0.0 0.0 0.6280286 -0.05648384 0.0 0.0 0.0468138 0.0 -0.0061381 0.0 0.0 0.00194223 0.0 0.0 -0.36220508 0.0 0.0 0.37663204 -0.28577344 0.0 0.13238094 0.00483444 0.0 -0.00345382 0.29417748 0.0 -0.00613151 0.0 0.0 0.00209793 0.0 0.0 0.00194223 0.13238083 0.0 -0.13291295 0.02432041 0.0 -0.0072129 -0.14281548 0.0 0.12926836 -0.28577344 0.0 -0.13238094 0.00483444 0.0 0.00345382 -0.01323656 0.0 -0.01388711 0.29417748 0.0 -0.00613151 0.0 0.0 0.00209793 0.0 0.0 0.00209793 0.0 0.0 0.00194223 -0.13238083 0.0 -0.13291295 -0.02432041 0.0 -0.0072129 0.01388711 0.0 0.0108581 0.14281548 0.0 0.12926836</array><array dataType="xsd:double" size="12" dictRef="x:unknown">0.0 0.0 0.0 0.0 0.0 -3.099E-4 -2.6838E-4 0.0 1.5495E-4 2.6838E-4 0.0 1.5495E-4</array></module> IF OTHER PEOPLE ARE GOING TO TALK, CONVERSATION IS SIMPLY IMPOSSIBLE.                                               -- WHISTLER'S PRINCIPLE<module cmlx:lineCount="3" cmlx:templateRef="jobcpu"><scalar dictRef="cc:jobtime" dataType="xsd:string">PT12.700S</scalar><scalar dataType="xsd:date" dictRef="cc:jobdatetime.end">2006-11-21T10:18:42Z</scalar><scalar dataType="xsd:string" dictRef="cc:program">Gaussian 03</scalar></module></module>
