 Entering Gaussian System, Link 0=/usr/local/gaussian/g03/g03
 Initial command:
 /usr/local/gaussian/g03/l1.exe /tmp/webmo/4/Gau-5928.inp -scrdir=/tmp/webmo/4/
 Entering Link 1 = /usr/local/gaussian/g03/l1.exe PID=      5929.
  
 Copyright (c) 1988,1990,1992,1993,1995,1998,2003, Gaussian, Inc.
                  All Rights Reserved.
  
 This is the Gaussian(R) 03 program.  It is based on the
 the Gaussian(R) 98 system (copyright 1998, Gaussian, Inc.),
 the Gaussian(R) 94 system (copyright 1995, Gaussian, Inc.),
 the Gaussian 92(TM) system (copyright 1992, Gaussian, Inc.),
 the Gaussian 90(TM) system (copyright 1990, Gaussian, Inc.),
 the Gaussian 88(TM) system (copyright 1988, Gaussian, Inc.),
 the Gaussian 86(TM) system (copyright 1986, Carnegie Mellon
 University), and the Gaussian 82(TM) system (copyright 1983,
 Carnegie Mellon University). Gaussian is a federally registered
 trademark of Gaussian, Inc.
  
 This software contains proprietary and confidential information,
 including trade secrets, belonging to Gaussian, Inc.
  
 This software is provided under written license and may be
 used, copied, transmitted, or stored only in accord with that
 written license.
  
 The following legend is applicable only to US Government
 contracts under DFARS:
  
                    RESTRICTED RIGHTS LEGEND
  
 Use, duplication or disclosure by the US Government is subject
 to restrictions as set forth in subparagraph (c)(1)(ii) of the
 Rights in Technical Data and Computer Software clause at DFARS
 252.227-7013.
  
 Gaussian, Inc.
 Carnegie Office Park, Building 6, Pittsburgh, PA 15106 USA
  
 The following legend is applicable only to US Government
 contracts under FAR:
  
                    RESTRICTED RIGHTS LEGEND
  
 Use, reproduction and disclosure by the US Government is subject
 to restrictions as set forth in subparagraph (c) of the
 Commercial Computer Software - Restricted Rights clause at FAR
 52.227-19.
  
 Gaussian, Inc.
 Carnegie Office Park, Building 6, Pittsburgh, PA 15106 USA
  
  
 ---------------------------------------------------------------
 Warning -- This program may not be used in any manner that
 competes with the business of Gaussian, Inc. or will provide
 assistance to any competitor of Gaussian, Inc.  The licensee
 of this program is prohibited from giving any competitor of
 Gaussian, Inc. access to this program.  By using this program,
 the user acknowledges that Gaussian, Inc. is engaged in the
 business of creating and licensing software in the field of
 computational chemistry and represents and warrants to the
 licensee that it is not a competitor of Gaussian, Inc. and that
 it will not use this program in any manner prohibited above.
 ---------------------------------------------------------------
  

 Cite this work as:
 Gaussian 03, Revision B.04,
 M. J. Frisch, G. W. Trucks, H. B. Schlegel, G. E. Scuseria, 
 M. A. Robb, J. R. Cheeseman, J. A. Montgomery, Jr., T. Vreven, 
 K. N. Kudin, J. C. Burant, J. M. Millam, S. S. Iyengar, J. Tomasi, 
 V. Barone, B. Mennucci, M. Cossi, G. Scalmani, N. Rega, 
 G. A. Petersson, H. Nakatsuji, M. Hada, M. Ehara, K. Toyota, 
 R. Fukuda, J. Hasegawa, M. Ishida, T. Nakajima, Y. Honda, O. Kitao, 
 H. Nakai, M. Klene, X. Li, J. E. Knox, H. P. Hratchian, J. B. Cross, 
 C. Adamo, J. Jaramillo, R. Gomperts, R. E. Stratmann, O. Yazyev, 
 A. J. Austin, R. Cammi, C. Pomelli, J. W. Ochterski, P. Y. Ayala, 
 K. Morokuma, G. A. Voth, P. Salvador, J. J. Dannenberg, 
 V. G. Zakrzewski, S. Dapprich, A. D. Daniels, M. C. Strain, 
 O. Farkas, D. K. Malick, A. D. Rabuck, K. Raghavachari, 
 J. B. Foresman, J. V. Ortiz, Q. Cui, A. G. Baboul, S. Clifford, 
 J. Cioslowski, B. B. Stefanov, G. Liu, A. Liashenko, P. Piskorz, 
 I. Komaromi, R. L. Martin, D. J. Fox, T. Keith, M. A. Al-Laham, 
 C. Y. Peng, A. Nanayakkara, M. Challacombe, P. M. W. Gill, 
 B. Johnson, W. Chen, M. W. Wong, C. Gonzalez, and J. A. Pople, 
 Gaussian, Inc., Pittsburgh PA, 2003.
 
 *********************************************
 Gaussian 03:  x86-Linux-G03RevB.04 2-Jun-2003
                  21-Nov-2006 
 *********************************************
 --------------------------
 #N B3LYP/6-31G(d) OPT FREQ
 --------------------------
 1/14=-1,18=20,26=3,38=1/1,3;
 2/9=110,17=6,18=5,40=1/2;
 3/5=1,6=6,7=1,11=2,16=1,25=1,30=1,74=-5/1,2,3;
 4//1;
 5/5=2,38=5/2;
 6/7=2,8=2,9=2,10=2,28=1/1;
 7//1,2,3,16;
 1/14=-1,18=20/3(1);
 99//99;
 2/9=110/2;
 3/5=1,6=6,7=1,11=2,16=1,25=1,30=1,74=-5/1,2,3;
 4/5=5,16=3/1;
 5/5=2,38=5/2;
 7//1,2,3,16;
 1/14=-1,18=20/3(-5);
 2/9=110/2;
 6/7=2,8=2,9=2,10=2,19=2,28=1/1;
 99/9=1/99;
 ---
 CH3
 ---
 Symbolic Z-matrix:
 Charge =  0 Multiplicity = 2
 C
 H                    1    B1
 H                    1    B2       2    A1
 H                    1    B3       2    A2       3    D1       0
       Variables:
  D1                 -180.                       
  B1                    1.09                     
  B2                    1.09                     
  A1                  120.                       
  B3                    1.09                     
  A2                  120.                       
 

 GradGradGradGradGradGradGradGradGradGradGradGradGradGradGradGradGradGrad
 Berny optimization.
 Initialization pass.
                           ----------------------------
                           !    Initial Parameters    !
                           ! (Angstroms and Degrees)  !
 --------------------------                            --------------------------
 ! Name  Definition              Value          Derivative Info.                !
 --------------------------------------------------------------------------------
 ! R1    R(1,2)                  1.09           estimate D2E/DX2                !
 ! R2    R(1,3)                  1.09           estimate D2E/DX2                !
 ! R3    R(1,4)                  1.09           estimate D2E/DX2                !
 ! A1    A(2,1,3)              120.0            estimate D2E/DX2                !
 ! A2    A(2,1,4)              120.0            estimate D2E/DX2                !
 ! A3    A(3,1,4)              120.0            estimate D2E/DX2                !
 ! A4    L(3,1,4,2,-2)         180.0            estimate D2E/DX2                !
 --------------------------------------------------------------------------------
 Trust Radius=3.00D-01 FncErr=1.00D-07 GrdErr=1.00D-06
 Number of steps in this run=  20 maximum allowed number of steps= 100.
 GradGradGradGradGradGradGradGradGradGradGradGradGradGradGradGradGradGrad

                          Input orientation:                          
 ---------------------------------------------------------------------
 Center     Atomic     Atomic              Coordinates (Angstroms)
 Number     Number      Type              X           Y           Z
 ---------------------------------------------------------------------
    1          6             0        0.000000    0.000000    0.000000
    2          1             0        0.000000    0.000000    1.090000
    3          1             0        0.943968    0.000000   -0.545000
    4          1             0       -0.943968    0.000000   -0.545000
 ---------------------------------------------------------------------
                    Distance matrix (angstroms):
                    1          2          3          4
     1  C    0.000000
     2  H    1.090000   0.000000
     3  H    1.090000   1.887935   0.000000
     4  H    1.090000   1.887935   1.887935   0.000000
 Stoichiometry    CH3(2)
 Framework group  D3H[O(C),3C2(H)]
 Deg. of freedom     1
 Full point group                 D3H     NOp  12
 Largest Abelian subgroup         C2V     NOp   4
 Largest concise Abelian subgroup C2      NOp   2
                         Standard orientation:                         
 ---------------------------------------------------------------------
 Center     Atomic     Atomic              Coordinates (Angstroms)
 Number     Number      Type              X           Y           Z
 ---------------------------------------------------------------------
    1          6             0        0.000000    0.000000    0.000000
    2          1             0        0.000000    1.090000    0.000000
    3          1             0        0.943968   -0.545000    0.000000
    4          1             0       -0.943968   -0.545000    0.000000
 ---------------------------------------------------------------------
 Rotational constants (GHZ):    281.3764839    281.3764839    140.6882420
 Standard basis: 6-31G(d) (6D, 7F)
 There are    12 symmetry adapted basis functions of A1  symmetry.
 There are     1 symmetry adapted basis functions of A2  symmetry.
 There are     5 symmetry adapted basis functions of B1  symmetry.
 There are     3 symmetry adapted basis functions of B2  symmetry.
 Integral buffers will be    262144 words long.
 Raffenetti 2 integral format.
 Two-electron integral symmetry is turned on.
    21 basis functions,    40 primitive gaussians,    21 cartesian basis functions
     5 alpha electrons        4 beta electrons
       nuclear repulsion energy         9.5795885875 Hartrees.
 NAtoms=    4 NActive=    4 NUniq=    2 SFac= 5.66D+00 NAtFMM=   60 Big=F
 One-electron integrals computed using PRISM.
 NBasis=    21 RedAO= T  NBF=    12     1     5     3
 NBsUse=    21 1.00D-06 NBFU=    12     1     5     3
 Harris functional with IExCor=  402 diagonalized for initial guess.
 ExpMin= 1.61D-01 ExpMax= 3.05D+03 ExpMxC= 4.57D+02 IAcc=1 IRadAn=         1 AccDes= 1.00D-06
 HarFok:  IExCor= 402 AccDes= 1.00D-06 IRadAn=         1 IDoV=1
 ScaDFX=  1.000000  1.000000  1.000000  1.000000
 Initial guess orbital symmetries:
 Alpha Orbitals:
       Occupied  (A1') (A1') (E') (E') (A2")
       Virtual   (A1') (E') (E') (A2") (E') (E') (A1') (E') (E')
                 (A1') (E") (E") (A1') (E') (E') (A1')
 Beta  Orbitals:
       Occupied  (A1') (A1') (E') (E')
       Virtual   (A2") (A1') (E') (E') (A2") (E') (E') (A1') (E')
                 (E') (A1') (E") (E") (A1') (E') (E') (A1')
 The electronic state of the initial guess is 2-A2".
 <S**2> of initial guess= 0.7500
 Requested convergence on RMS density matrix=1.00D-08 within 128 cycles.
 Requested convergence on MAX density matrix=1.00D-06.
 Requested convergence on             energy=1.00D-06.
 No special actions if energy rises.
 Keep R1 and R2 integrals in memory in canonical form, NReq=      539269.
 Integral accuracy reduced to 1.0D-05 until final iterations.
 Initial convergence to 1.0D-05 achieved.  Increase integral accuracy.
 SCF Done:  E(UB+HF-LYP) =  -39.8381875982     A.U. after   10 cycles
             Convg  =    0.4911D-08             -V/T =  2.0109
             S**2   =   0.7539
 Annihilation of the first spin contaminant:
 S**2 before annihilation     0.7539,   after     0.7500

 **********************************************************************

            Population analysis using the SCF density.

 **********************************************************************

 Orbital symmetries:
 Alpha Orbitals:
       Occupied  (A1') (A1') (E') (E') (A2")
       Virtual   (A1') (E') (E') (A2") (E') (E') (A1') (E') (E')
                 (A1') (E") (E") (A1') (E') (E') (A1')
 Beta  Orbitals:
       Occupied  (A1') (A1') (E') (E')
       Virtual   (A2") (A1') (E') (E') (E') (E') (A2") (A1') (E')
                 (E') (A1') (E") (E") (A1') (E') (E') (A1')
 The electronic state is 2-A2".
 Alpha  occ. eigenvalues --  -10.19367  -0.67929  -0.41489  -0.41489  -0.22432
 Alpha virt. eigenvalues --    0.11193   0.17993   0.17993   0.53643   0.54739
 Alpha virt. eigenvalues --    0.54739   0.68230   0.90828   0.90828   0.95249
 Alpha virt. eigenvalues --    1.65093   1.65093   2.00426   2.17818   2.17818
 Alpha virt. eigenvalues --    4.06213
  Beta  occ. eigenvalues --  -10.17953  -0.63851  -0.40533  -0.40533
  Beta virt. eigenvalues --   -0.04785   0.12823   0.18555   0.18555   0.55561
  Beta virt. eigenvalues --    0.55561   0.61496   0.70822   0.91300   0.91300
  Beta virt. eigenvalues --    0.98117   1.72272   1.72272   2.09120   2.18949
  Beta virt. eigenvalues --    2.18949   4.10003
          Condensed to atoms (all electrons):
              1          2          3          4
     1  C    5.346885   0.379586   0.379586   0.379586
     2  H    0.379586   0.517547  -0.029507  -0.029507
     3  H    0.379586  -0.029507   0.517547  -0.029507
     4  H    0.379586  -0.029507  -0.029507   0.517547
 Mulliken atomic charges:
              1
     1  C   -0.485643
     2  H    0.161881
     3  H    0.161881
     4  H    0.161881
 Sum of Mulliken charges=   0.00000
 Atomic charges with hydrogens summed into heavy atoms:
              1
     1  C    0.000000
     2  H    0.000000
     3  H    0.000000
     4  H    0.000000
 Sum of Mulliken charges=   0.00000
          Atomic-Atomic Spin Densities.
              1          2          3          4
     1  C    1.183320  -0.008891  -0.008891  -0.008891
     2  H   -0.008891  -0.045185   0.000930   0.000930
     3  H   -0.008891   0.000930  -0.045185   0.000930
     4  H   -0.008891   0.000930   0.000930  -0.045185
 Mulliken atomic spin densities:
              1
     1  C    1.156647
     2  H   -0.052216
     3  H   -0.052216
     4  H   -0.052216
 Sum of Mulliken spin densities=   1.00000
 Electronic spatial extent (au):  <R**2>=    29.5980
 Charge=     0.0000 electrons
 Dipole moment (field-independent basis, Debye):
    X=     0.0000    Y=     0.0000    Z=     0.0000  Tot=     0.0000
 Quadrupole moment (field-independent basis, Debye-Ang):
   XX=    -7.0125   YY=    -7.0125   ZZ=    -8.6653
   XY=     0.0000   XZ=     0.0000   YZ=     0.0000
 Traceless Quadrupole moment (field-independent basis, Debye-Ang):
   XX=     0.5509   YY=     0.5509   ZZ=    -1.1019
   XY=     0.0000   XZ=     0.0000   YZ=     0.0000
 Octapole moment (field-independent basis, Debye-Ang**2):
  XXX=     0.0000  YYY=     0.8193  ZZZ=     0.0000  XYY=     0.0000
  XXY=    -0.8193  XXZ=     0.0000  XZZ=     0.0000  YZZ=     0.0000
  YYZ=     0.0000  XYZ=     0.0000
 Hexadecapole moment (field-independent basis, Debye-Ang**3):
 XXXX=   -14.0702 YYYY=   -14.0702 ZZZZ=    -9.0088 XXXY=     0.0000
 XXXZ=     0.0000 YYYX=     0.0000 YYYZ=     0.0000 ZZZX=     0.0000
 ZZZY=     0.0000 XXYY=    -4.6901 XXZZ=    -4.1879 YYZZ=    -4.1879
 XXYZ=     0.0000 YYXZ=     0.0000 ZZXY=     0.0000
 N-N= 9.579588587507D+00 E-N=-1.109100849248D+02  KE= 3.940933961063D+01
 Symmetry A1   KE= 3.631772495119D+01
 Symmetry A2   KE= 6.523480522249D-33
 Symmetry B1   KE= 1.947221880743D+00
 Symmetry B2   KE= 1.144392778696D+00
                          Isotropic Fermi Contact Couplings
        Atom                 a.u.       MegaHertz       Gauss      10(-4) cm-1
     1  C(13)              0.11238     126.33189      45.07836      42.13978
     2  H(1)              -0.01597     -71.37097     -25.46693     -23.80679
     3  H(1)              -0.01597     -71.37097     -25.46693     -23.80679
     4  H(1)              -0.01597     -71.37097     -25.46693     -23.80679
 --------------------------------------------------------
       Center         ----  Spin Dipole Couplings  ----
                      3XX-RR        3YY-RR        3ZZ-RR
 --------------------------------------------------------
     1   Atom       -0.547778     -0.547778      1.095557
     2   Atom       -0.072275      0.078430     -0.006156
     3   Atom        0.040754     -0.034598     -0.006156
     4   Atom        0.040754     -0.034598     -0.006156
 --------------------------------------------------------
                        XY            XZ            YZ
 --------------------------------------------------------
     1   Atom        0.000000      0.000000      0.000000
     2   Atom        0.000000      0.000000      0.000000
     3   Atom       -0.065257      0.000000      0.000000
     4   Atom        0.065257      0.000000      0.000000
 --------------------------------------------------------


 ---------------------------------------------------------------------------------
              Anisotropic Spin Dipole Couplings in Principal Axis System
 ---------------------------------------------------------------------------------

       Atom             a.u.   MegaHertz   Gauss  10(-4) cm-1        Axes

              Baa    -0.5478   -73.507   -26.229   -24.519  0.7001  0.7141  0.0000
     1 C(13)  Bbb    -0.5478   -73.507   -26.229   -24.519  0.7141 -0.7001  0.0000
              Bcc     1.0956   147.013    52.458    49.038  0.0000  0.0000  1.0000
 
              Baa    -0.0723   -38.562   -13.760   -12.863  1.0000  0.0000  0.0000
     2 H(1)   Bbb    -0.0062    -3.284    -1.172    -1.096  0.0000  0.0000  1.0000
              Bcc     0.0784    41.847    14.932    13.959  0.0000  1.0000  0.0000
 
              Baa    -0.0723   -38.562   -13.760   -12.863  0.5000  0.8660  0.0000
     3 H(1)   Bbb    -0.0062    -3.284    -1.172    -1.096  0.0000  0.0000  1.0000
              Bcc     0.0784    41.847    14.932    13.959  0.8660 -0.5000  0.0000
 
              Baa    -0.0723   -38.562   -13.760   -12.863 -0.5000  0.8660  0.0000
     4 H(1)   Bbb    -0.0062    -3.284    -1.172    -1.096  0.0000  0.0000  1.0000
              Bcc     0.0784    41.847    14.932    13.959  0.8660  0.5000  0.0000
 

 ---------------------------------------------------------------------------------

 ***** Axes restored to original set *****
 -------------------------------------------------------------------
 Center     Atomic                   Forces (Hartrees/Bohr)
 Number     Number              X              Y              Z
 -------------------------------------------------------------------
    1          6           0.000000000    0.000000000    0.000000000
    2          1           0.000000000    0.000000000   -0.005057082
    3          1          -0.004379562    0.000000000    0.002528541
    4          1           0.004379562    0.000000000    0.002528541
 -------------------------------------------------------------------
 Cartesian Forces:  Max     0.005057082 RMS     0.002528541

 GradGradGradGradGradGradGradGradGradGradGradGradGradGradGradGradGradGrad
 Berny optimization.
 Internal  Forces:  Max     0.005057082 RMS     0.003310637
 Search for a local minimum.
 Step number   1 out of a maximum of  20
 All quantities printed in internal units (Hartrees-Bohrs-Radians)
 Second derivative matrix not updated -- first step.
 The second derivative matrix:
                          R1        R2        R3        A1        A2
           R1           0.34813
           R2           0.00000   0.34813
           R3           0.00000   0.00000   0.34813
           A1           0.00000   0.00000   0.00000   0.16000
           A2           0.00000   0.00000   0.00000   0.00000   0.16000
           A3           0.00000   0.00000   0.00000   0.00000   0.00000
           A4           0.00000   0.00000   0.00000   0.00000   0.00000
                          A3        A4
           A3           0.16000
           A4           0.00000   0.16000
     Eigenvalues ---    0.16000   0.16000   0.16000   0.34813   0.34813
     Eigenvalues ---    0.348131000.00000
 RFO step:  Lambda=-2.20246733D-04.
 Linear search not attempted -- first point.
 Iteration  1 RMS(Cart)=  0.00950386 RMS(Int)=  0.00000000
 Iteration  2 RMS(Cart)=  0.00000000 RMS(Int)=  0.00000000
 Variable       Old X    -DE/DX   Delta X   Delta X   Delta X     New X
                                 (Linear)    (Quad)   (Total)
    R1        2.05980  -0.00506   0.00000  -0.01452  -0.01452   2.04528
    R2        2.05980  -0.00506   0.00000  -0.01452  -0.01452   2.04528
    R3        2.05980  -0.00506   0.00000  -0.01452  -0.01452   2.04528
    A1        2.09440   0.00000   0.00000   0.00000   0.00000   2.09440
    A2        2.09440   0.00000   0.00000   0.00000   0.00000   2.09440
    A3        2.09440   0.00000   0.00000   0.00000   0.00000   2.09440
    A4        3.14159   0.00000   0.00000   0.00000   0.00000   3.14159
         Item               Value     Threshold  Converged?
 Maximum Force            0.005057     0.000450     NO 
 RMS     Force            0.003311     0.000300     NO 
 Maximum Displacement     0.014517     0.001800     NO 
 RMS     Displacement     0.009504     0.001200     NO 
 Predicted change in Energy=-1.101930D-04
 GradGradGradGradGradGradGradGradGradGradGradGradGradGradGradGradGradGrad

                          Input orientation:                          
 ---------------------------------------------------------------------
 Center     Atomic     Atomic              Coordinates (Angstroms)
 Number     Number      Type              X           Y           Z
 ---------------------------------------------------------------------
    1          6             0        0.000000    0.000000    0.000000
    2          1             0        0.000000    0.000000    1.082318
    3          1             0        0.937315    0.000000   -0.541159
    4          1             0       -0.937315    0.000000   -0.541159
 ---------------------------------------------------------------------
                    Distance matrix (angstroms):
                    1          2          3          4
     1  C    0.000000
     2  H    1.082318   0.000000
     3  H    1.082318   1.874629   0.000000
     4  H    1.082318   1.874629   1.874629   0.000000
 Stoichiometry    CH3(2)
 Framework group  D3H[O(C),3C2(H)]
 Deg. of freedom     1
 Full point group                 D3H     NOp  12
 Largest Abelian subgroup         C2V     NOp   4
 Largest concise Abelian subgroup C2      NOp   2
                         Standard orientation:                         
 ---------------------------------------------------------------------
 Center     Atomic     Atomic              Coordinates (Angstroms)
 Number     Number      Type              X           Y           Z
 ---------------------------------------------------------------------
    1          6             0        0.000000    0.000000    0.000000
    2          1             0        0.000000    1.082318    0.000000
    3          1             0        0.937315   -0.541159    0.000000
    4          1             0       -0.937315   -0.541159    0.000000
 ---------------------------------------------------------------------
 Rotational constants (GHZ):    285.3850692    285.3850692    142.6925346
 Standard basis: 6-31G(d) (6D, 7F)
 There are    12 symmetry adapted basis functions of A1  symmetry.
 There are     1 symmetry adapted basis functions of A2  symmetry.
 There are     5 symmetry adapted basis functions of B1  symmetry.
 There are     3 symmetry adapted basis functions of B2  symmetry.
 Integral buffers will be    262144 words long.
 Raffenetti 2 integral format.
 Two-electron integral symmetry is turned on.
    21 basis functions,    40 primitive gaussians,    21 cartesian basis functions
     5 alpha electrons        4 beta electrons
       nuclear repulsion energy         9.6475843126 Hartrees.
 NAtoms=    4 NActive=    4 NUniq=    2 SFac= 5.66D+00 NAtFMM=   60 Big=F
 One-electron integrals computed using PRISM.
 NBasis=    21 RedAO= T  NBF=    12     1     5     3
 NBsUse=    21 1.00D-06 NBFU=    12     1     5     3
 Initial guess read from the read-write file:
 Initial guess orbital symmetries:
 Alpha Orbitals:
       Occupied  (A1') (A1') (E') (E') (A2")
       Virtual   (A1') (E') (E') (A2") (E') (E') (A1') (E') (E')
                 (A1') (E") (E") (A1') (E') (E') (A1')
 Beta  Orbitals:
       Occupied  (A1') (A1') (E') (E')
       Virtual   (A2") (A1') (E') (E') (E') (E') (A2") (A1') (E')
                 (E') (A1') (E") (E") (A1') (E') (E') (A1')
 <S**2> of initial guess= 0.7538
 Requested convergence on RMS density matrix=1.00D-08 within 128 cycles.
 Requested convergence on MAX density matrix=1.00D-06.
 Requested convergence on             energy=1.00D-06.
 No special actions if energy rises.
 Keep R1 and R2 integrals in memory in canonical form, NReq=      539269.
 SCF Done:  E(UB+HF-LYP) =  -39.8382918286     A.U. after    7 cycles
             Convg  =    0.5649D-08             -V/T =  2.0101
             S**2   =   0.7538
 Annihilation of the first spin contaminant:
 S**2 before annihilation     0.7538,   after     0.7500
 ***** Axes restored to original set *****
 -------------------------------------------------------------------
 Center     Atomic                   Forces (Hartrees/Bohr)
 Number     Number              X              Y              Z
 -------------------------------------------------------------------
    1          6           0.000000000    0.000000000    0.000000000
    2          1           0.000000000    0.000000000    0.000309901
    3          1           0.000268382    0.000000000   -0.000154951
    4          1          -0.000268382    0.000000000   -0.000154951
 -------------------------------------------------------------------
 Cartesian Forces:  Max     0.000309901 RMS     0.000154951

 GradGradGradGradGradGradGradGradGradGradGradGradGradGradGradGradGradGrad
 Berny optimization.
 Internal  Forces:  Max     0.000309901 RMS     0.000202878
 Search for a local minimum.
 Step number   2 out of a maximum of  20
 All quantities printed in internal units (Hartrees-Bohrs-Radians)
 Update second derivatives using D2CorX and points  1  2
 Trust test= 9.46D-01 RLast= 2.51D-02 DXMaxT set to 3.00D-01
 The second derivative matrix:
                          R1        R2        R3        A1        A2
           R1           0.35532
           R2           0.00719   0.35532
           R3           0.00719   0.00719   0.35532
           A1           0.00000   0.00000   0.00000   0.16000
           A2           0.00000   0.00000   0.00000   0.00000   0.16000
           A3           0.00000   0.00000   0.00000   0.00000   0.00000
           A4           0.00000   0.00000   0.00000   0.00000   0.00000
                          A3        A4
           A3           0.16000
           A4           0.00000   0.16000
     Eigenvalues ---    0.16000   0.16000   0.16000   0.34813   0.34813
     Eigenvalues ---    0.369691000.00000
 RFO step:  Lambda= 0.00000000D+00.
 Quartic linear search produced a step of -0.05657.
 Iteration  1 RMS(Cart)=  0.00053760 RMS(Int)=  0.00000000
 Iteration  2 RMS(Cart)=  0.00000000 RMS(Int)=  0.00000000
 Variable       Old X    -DE/DX   Delta X   Delta X   Delta X     New X
                                 (Linear)    (Quad)   (Total)
    R1        2.04528   0.00031   0.00082   0.00000   0.00082   2.04611
    R2        2.04528   0.00031   0.00082   0.00000   0.00082   2.04611
    R3        2.04528   0.00031   0.00082   0.00000   0.00082   2.04611
    A1        2.09440   0.00000   0.00000   0.00000   0.00000   2.09440
    A2        2.09440   0.00000   0.00000   0.00000   0.00000   2.09440
    A3        2.09440   0.00000   0.00000   0.00000   0.00000   2.09440
    A4        3.14159   0.00000   0.00000   0.00000   0.00000   3.14159
         Item               Value     Threshold  Converged?
 Maximum Force            0.000310     0.000450     YES
 RMS     Force            0.000203     0.000300     YES
 Maximum Displacement     0.000821     0.001800     YES
 RMS     Displacement     0.000538     0.001200     YES
 Predicted change in Energy=-3.895079D-07
 Optimization completed.
    -- Stationary point found.
                           ----------------------------
                           !   Optimized Parameters   !
                           ! (Angstroms and Degrees)  !
 --------------------------                            --------------------------
 ! Name  Definition              Value          Derivative Info.                !
 --------------------------------------------------------------------------------
 ! R1    R(1,2)                  1.0823         -DE/DX =    0.0003              !
 ! R2    R(1,3)                  1.0823         -DE/DX =    0.0003              !
 ! R3    R(1,4)                  1.0823         -DE/DX =    0.0003              !
 ! A1    A(2,1,3)              120.0            -DE/DX =    0.0                 !
 ! A2    A(2,1,4)              120.0            -DE/DX =    0.0                 !
 ! A3    A(3,1,4)              120.0            -DE/DX =    0.0                 !
 ! A4    L(3,1,4,2,-2)         180.0            -DE/DX =    0.0                 !
 --------------------------------------------------------------------------------
 GradGradGradGradGradGradGradGradGradGradGradGradGradGradGradGradGradGrad

                          Input orientation:                          
 ---------------------------------------------------------------------
 Center     Atomic     Atomic              Coordinates (Angstroms)
 Number     Number      Type              X           Y           Z
 ---------------------------------------------------------------------
    1          6             0        0.000000    0.000000    0.000000
    2          1             0        0.000000    0.000000    1.082318
    3          1             0        0.937315    0.000000   -0.541159
    4          1             0       -0.937315    0.000000   -0.541159
 ---------------------------------------------------------------------
                    Distance matrix (angstroms):
                    1          2          3          4
     1  C    0.000000
     2  H    1.082318   0.000000
     3  H    1.082318   1.874629   0.000000
     4  H    1.082318   1.874629   1.874629   0.000000
 Stoichiometry    CH3(2)
 Framework group  D3H[O(C),3C2(H)]
 Deg. of freedom     1
 Full point group                 D3H     NOp  12
 Largest Abelian subgroup         C2V     NOp   4
 Largest concise Abelian subgroup C2      NOp   2
                         Standard orientation:                         
 ---------------------------------------------------------------------
 Center     Atomic     Atomic              Coordinates (Angstroms)
 Number     Number      Type              X           Y           Z
 ---------------------------------------------------------------------
    1          6             0        0.000000    0.000000    0.000000
    2          1             0        0.000000    1.082318    0.000000
    3          1             0        0.937315   -0.541159    0.000000
    4          1             0       -0.937315   -0.541159    0.000000
 ---------------------------------------------------------------------
 Rotational constants (GHZ):    285.3850692    285.3850692    142.6925346

 **********************************************************************

            Population analysis using the SCF density.

 **********************************************************************

 Orbital symmetries:
 Alpha Orbitals:
       Occupied  (A1') (A1') (E') (E') (A2")
       Virtual   (A1') (E') (E') (A2") (E') (E') (A1') (E') (E')
                 (A1') (E") (E") (A1') (E') (E') (A1')
 Beta  Orbitals:
       Occupied  (A1') (A1') (E') (E')
       Virtual   (A2") (A1') (E') (E') (E') (E') (A2") (A1') (E')
                 (E') (A1') (E") (E") (A1') (E') (E') (A1')
 The electronic state is 2-A2".
 Alpha  occ. eigenvalues --  -10.19143  -0.68133  -0.41651  -0.41651  -0.22427
 Alpha virt. eigenvalues --    0.11475   0.18216   0.18216   0.53687   0.54482
 Alpha virt. eigenvalues --    0.54482   0.68306   0.91472   0.91472   0.95837
 Alpha virt. eigenvalues --    1.65006   1.65006   2.01103   2.18724   2.18724
 Alpha virt. eigenvalues --    4.06680
  Beta  occ. eigenvalues --  -10.17733  -0.64066  -0.40686  -0.40686
  Beta virt. eigenvalues --   -0.04795   0.13087   0.18767   0.18767   0.55297
  Beta virt. eigenvalues --    0.55297   0.61535   0.70970   0.91960   0.91960
  Beta virt. eigenvalues --    0.98719   1.72166   1.72166   2.09744   2.19851
  Beta virt. eigenvalues --    2.19851   4.10466
          Condensed to atoms (all electrons):
              1          2          3          4
     1  C    5.344581   0.381034   0.381034   0.381034
     2  H    0.381034   0.515947  -0.029771  -0.029771
     3  H    0.381034  -0.029771   0.515947  -0.029771
     4  H    0.381034  -0.029771  -0.029771   0.515947
 Mulliken atomic charges:
              1
     1  C   -0.487682
     2  H    0.162561
     3  H    0.162561
     4  H    0.162561
 Sum of Mulliken charges=   0.00000
 Atomic charges with hydrogens summed into heavy atoms:
              1
     1  C    0.000000
     2  H    0.000000
     3  H    0.000000
     4  H    0.000000
 Sum of Mulliken charges=   0.00000
          Atomic-Atomic Spin Densities.
              1          2          3          4
     1  C    1.182342  -0.008873  -0.008873  -0.008873
     2  H   -0.008873  -0.044872   0.000919   0.000919
     3  H   -0.008873   0.000919  -0.044872   0.000919
     4  H   -0.008873   0.000919   0.000919  -0.044872
 Mulliken atomic spin densities:
              1
     1  C    1.155723
     2  H   -0.051908
     3  H   -0.051908
     4  H   -0.051908
 Sum of Mulliken spin densities=   1.00000
 Electronic spatial extent (au):  <R**2>=    29.3893
 Charge=     0.0000 electrons
 Dipole moment (field-independent basis, Debye):
    X=     0.0000    Y=     0.0000    Z=     0.0000  Tot=     0.0000
 Quadrupole moment (field-independent basis, Debye-Ang):
   XX=    -7.0054   YY=    -7.0054   ZZ=    -8.6392
   XY=     0.0000   XZ=     0.0000   YZ=     0.0000
 Traceless Quadrupole moment (field-independent basis, Debye-Ang):
   XX=     0.5446   YY=     0.5446   ZZ=    -1.0892
   XY=     0.0000   XZ=     0.0000   YZ=     0.0000
 Octapole moment (field-independent basis, Debye-Ang**2):
  XXX=     0.0000  YYY=     0.7982  ZZZ=     0.0000  XYY=     0.0000
  XXY=    -0.7982  XXZ=     0.0000  XZZ=     0.0000  YZZ=     0.0000
  YYZ=     0.0000  XYZ=     0.0000
 Hexadecapole moment (field-independent basis, Debye-Ang**3):
 XXXX=   -13.9234 YYYY=   -13.9234 ZZZZ=    -8.9725 XXXY=     0.0000
 XXXZ=     0.0000 YYYX=     0.0000 YYYZ=     0.0000 ZZZX=     0.0000
 ZZZY=     0.0000 XXYY=    -4.6411 XXZZ=    -4.1477 YYZZ=    -4.1477
 XXYZ=     0.0000 YYXZ=     0.0000 ZZXY=     0.0000
 N-N= 9.647584312563D+00 E-N=-1.110661732508D+02  KE= 3.943988671958D+01
 Symmetry A1   KE= 3.633691741305D+01
 Symmetry A2   KE= 8.557769213119D-34
 Symmetry B1   KE= 1.959270328451D+00
 Symmetry B2   KE= 1.143698978077D+00
                          Isotropic Fermi Contact Couplings
        Atom                 a.u.       MegaHertz       Gauss      10(-4) cm-1
     1  C(13)              0.11039     124.09579      44.28046      41.39390
     2  H(1)              -0.01587     -70.95742     -25.31937     -23.66885
     3  H(1)              -0.01587     -70.95742     -25.31937     -23.66885
     4  H(1)              -0.01587     -70.95742     -25.31937     -23.66885
 --------------------------------------------------------
       Center         ----  Spin Dipole Couplings  ----
                      3XX-RR        3YY-RR        3ZZ-RR
 --------------------------------------------------------
     1   Atom       -0.547580     -0.547580      1.095160
     2   Atom       -0.073225      0.078758     -0.005533
     3   Atom        0.040763     -0.035229     -0.005533
     4   Atom        0.040763     -0.035229     -0.005533
 --------------------------------------------------------
                        XY            XZ            YZ
 --------------------------------------------------------
     1   Atom        0.000000      0.000000      0.000000
     2   Atom        0.000000      0.000000      0.000000
     3   Atom       -0.065811      0.000000      0.000000
     4   Atom        0.065811      0.000000      0.000000
 --------------------------------------------------------


 ---------------------------------------------------------------------------------
              Anisotropic Spin Dipole Couplings in Principal Axis System
 ---------------------------------------------------------------------------------

       Atom             a.u.   MegaHertz   Gauss  10(-4) cm-1        Axes

              Baa    -0.5476   -73.480   -26.219   -24.510  0.1484  0.9889  0.0000
     1 C(13)  Bbb    -0.5476   -73.480   -26.219   -24.510  0.9889 -0.1484  0.0000
              Bcc     1.0952   146.960    52.439    49.021  0.0000  0.0000  1.0000
 
              Baa    -0.0732   -39.069   -13.941   -13.032  1.0000  0.0000  0.0000
     2 H(1)   Bbb    -0.0055    -2.952    -1.053    -0.985  0.0000  0.0000  1.0000
              Bcc     0.0788    42.022    14.994    14.017  0.0000  1.0000  0.0000
 
              Baa    -0.0732   -39.069   -13.941   -13.032  0.5000  0.8660  0.0000
     3 H(1)   Bbb    -0.0055    -2.952    -1.053    -0.985  0.0000  0.0000  1.0000
              Bcc     0.0788    42.022    14.994    14.017  0.8660 -0.5000  0.0000
 
              Baa    -0.0732   -39.069   -13.941   -13.032 -0.5000  0.8660  0.0000
     4 H(1)   Bbb    -0.0055    -2.952    -1.053    -0.985  0.0000  0.0000  1.0000
              Bcc     0.0788    42.022    14.994    14.017  0.8660  0.5000  0.0000
 

 ---------------------------------------------------------------------------------

 Final structure in terms of initial Z-matrix:
 C
 H,1,B1
 H,1,B2,2,A1
 H,1,B3,2,A2,3,D1,0
      Variables:
 D1=180.
 B1=1.08231773
 B2=1.08231773
 A1=120.
 B3=1.08231773
 A2=120.
 1\1\GINC-NODE01\FOpt\UB3LYP\6-31G(d)\C1H3(2)\CHS60A\21-Nov-2006\0\\#N 
 B3LYP/6-31G(D) OPT FREQ\\CH3\\0,2\C,0.,0.,0.\H,0.,0.,1.0823177307\H,0.
 9373146498,0.,-0.5411588654\H,-0.9373146498,0.,-0.5411588654\\Version=
 x86-Linux-G03RevB.04\State=2-A2"\HF=-39.8382918\S2=0.753759\S2-1=0.\S2
 A=0.750007\RMSD=5.649e-09\RMSF=1.550e-04\Dipole=0.,0.,0.\PG=D03H [O(C1
 ),3C2(H1)]\\@


 In the beginning the Universe was created.
 This has made a lot of people very angry
 and been widely regarded as a bad move.
                               -D.Adams
 Job cpu time:  0 days  0 hours  0 minutes 11.6 seconds.
 File lengths (MBytes):  RWF=     12 Int=      0 D2E=      0 Chk=      7 Scr=      1
 Normal termination of Gaussian 03 at Tue Nov 21 10:18:29 2006.
 Link1:  Proceeding to internal job step number  2.
 ------------------------------------------------------------------
 #N Geom=AllCheck Guess=Read SCRF=Check GenChk UB3LYP/6-31G(d) Freq
 ------------------------------------------------------------------
 1/10=4,29=7,30=1,38=1,40=1,46=1/1,3;
 2/40=1/2;
 3/5=1,6=6,7=1,11=2,16=1,25=1,30=1,70=2,71=2,74=-5/1,2,3;
 4/5=1,7=2/1;
 5/5=2,38=6/2;
 8/6=4,10=90,11=11/1;
 11/6=1,8=1,9=11,15=111,16=1/1,2,10;
 10/6=1/2;
 6/7=2,8=2,9=2,10=2,18=1,28=1/1;
 7/8=1,10=1,25=1/1,2,3,16;
 1/10=4,30=1,46=1/3;
 99//99;
 ---
 CH3
 ---
 Redundant internal coordinates taken from checkpoint file:
 /tmp/webmo/4/Gau-5929.chk
 Charge =  0 Multiplicity = 2
 C,0,0.,0.,0.
 H,0,0.,0.,1.0823177307
 H,0,0.9373146498,0.,-0.5411588654
 H,0,-0.9373146498,0.,-0.5411588654
 Recover connectivity data from disk.

 GradGradGradGradGradGradGradGradGradGradGradGradGradGradGradGradGradGrad
 Berny optimization.
 Initialization pass.
                           ----------------------------
                           !    Initial Parameters    !
                           ! (Angstroms and Degrees)  !
 --------------------------                            --------------------------
 ! Name  Definition              Value          Derivative Info.                !
 --------------------------------------------------------------------------------
 ! R1    R(1,2)                  1.0823         calculate D2E/DX2 analytically  !
 ! R2    R(1,3)                  1.0823         calculate D2E/DX2 analytically  !
 ! R3    R(1,4)                  1.0823         calculate D2E/DX2 analytically  !
 ! A1    A(2,1,3)              120.0            calculate D2E/DX2 analytically  !
 ! A2    A(2,1,4)              120.0            calculate D2E/DX2 analytically  !
 ! A3    A(3,1,4)              120.0            calculate D2E/DX2 analytically  !
 ! A4    L(3,1,4,2,-2)         180.0            calculate D2E/DX2 analytically  !
 --------------------------------------------------------------------------------
 Trust Radius=3.00D-01 FncErr=1.00D-07 GrdErr=1.00D-07
 Number of steps in this run=   2 maximum allowed number of steps=   2.
 GradGradGradGradGradGradGradGradGradGradGradGradGradGradGradGradGradGrad

                          Input orientation:                          
 ---------------------------------------------------------------------
 Center     Atomic     Atomic              Coordinates (Angstroms)
 Number     Number      Type              X           Y           Z
 ---------------------------------------------------------------------
    1          6             0        0.000000    0.000000    0.000000
    2          1             0        0.000000    0.000000    1.082318
    3          1             0        0.937315    0.000000   -0.541159
    4          1             0       -0.937315    0.000000   -0.541159
 ---------------------------------------------------------------------
                    Distance matrix (angstroms):
                    1          2          3          4
     1  C    0.000000
     2  H    1.082318   0.000000
     3  H    1.082318   1.874629   0.000000
     4  H    1.082318   1.874629   1.874629   0.000000
 Stoichiometry    CH3(2)
 Framework group  D3H[O(C),3C2(H)]
 Deg. of freedom     1
 Full point group                 D3H     NOp  12
 Largest Abelian subgroup         C2V     NOp   4
 Largest concise Abelian subgroup C2      NOp   2
                         Standard orientation:                         
 ---------------------------------------------------------------------
 Center     Atomic     Atomic              Coordinates (Angstroms)
 Number     Number      Type              X           Y           Z
 ---------------------------------------------------------------------
    1          6             0        0.000000    0.000000    0.000000
    2          1             0        0.000000    1.082318    0.000000
    3          1             0        0.937315   -0.541159    0.000000
    4          1             0       -0.937315   -0.541159    0.000000
 ---------------------------------------------------------------------
 Rotational constants (GHZ):    285.3850692    285.3850692    142.6925346
 Standard basis: 6-31G(d) (6D, 7F)
 There are    12 symmetry adapted basis functions of A1  symmetry.
 There are     1 symmetry adapted basis functions of A2  symmetry.
 There are     5 symmetry adapted basis functions of B1  symmetry.
 There are     3 symmetry adapted basis functions of B2  symmetry.
 Integral buffers will be    262144 words long.
 Raffenetti 2 integral format.
 Two-electron integral symmetry is turned on.
    21 basis functions,    40 primitive gaussians,    21 cartesian basis functions
     5 alpha electrons        4 beta electrons
       nuclear repulsion energy         9.6475843126 Hartrees.
 NAtoms=    4 NActive=    4 NUniq=    2 SFac= 5.66D+00 NAtFMM=   60 Big=F
 One-electron integrals computed using PRISM.
 NBasis=    21 RedAO= T  NBF=    12     1     5     3
 NBsUse=    21 1.00D-06 NBFU=    12     1     5     3
 Initial guess read from the checkpoint file:
 /tmp/webmo/4/Gau-5929.chk
 Initial guess orbital symmetries:
 Alpha Orbitals:
       Occupied  (A1') (A1') (E') (E') (A2")
       Virtual   (A1') (E') (E') (A2") (E') (E') (A1') (E') (E')
                 (A1') (E") (E") (A1') (E') (E') (A1')
 Beta  Orbitals:
       Occupied  (A1') (A1') (E') (E')
       Virtual   (A2") (A1') (E') (E') (E') (E') (A2") (A1') (E')
                 (E') (A1') (E") (E") (A1') (E') (E') (A1')
 <S**2> of initial guess= 0.7538
 Requested convergence on RMS density matrix=1.00D-08 within 128 cycles.
 Requested convergence on MAX density matrix=1.00D-06.
 Requested convergence on             energy=1.00D-06.
 No special actions if energy rises.
 Keep R1 and R2 integrals in memory in canonical form, NReq=      539269.
 SCF Done:  E(UB+HF-LYP) =  -39.8382918286     A.U. after    1 cycles
             Convg  =    0.2115D-09             -V/T =  2.0101
             S**2   =   0.7538
 Annihilation of the first spin contaminant:
 S**2 before annihilation     0.7538,   after     0.7500
 Range of M.O.s used for correlation:     1    21
 NBasis=    21 NAE=     5 NBE=     4 NFC=     0 NFV=     0
 NROrb=     21 NOA=     5 NOB=     4 NVA=    16 NVB=    17
 Symmetrizing basis deriv contribution to polar:
 IMax=3 JMax=2 DiffMx= 0.00D+00
 G2DrvN: will do    5 centers at a time, making    1 passes doing MaxLOS=2.
 FoFDir/FoFCou used for L=0 through L=2.
          Differentiating once with respect to electric field.
                with respect to dipole field.
          Differentiating once with respect to nuclear coordinates.
          Store integrals in memory, NReq=      484125.
          There are   9 degrees of freedom in the 1st order CPHF.
     9 vectors were produced by pass  0.
 AX will form   9 AO Fock derivatives at one time.
     9 vectors were produced by pass  1.
     9 vectors were produced by pass  2.
     9 vectors were produced by pass  3.
     9 vectors were produced by pass  4.
     7 vectors were produced by pass  5.
     2 vectors were produced by pass  6.
 Inv2:  IOpt= 1 Iter= 1 AM= 7.56D-16 Conv= 1.00D-12.
 Inverted reduced A of dimension   54 with in-core refinement.
 Isotropic polarizability for W=    0.000000        9.59 Bohr**3.
 End of Minotr Frequency-dependent properties file   721 does not exist.

 **********************************************************************

            Population analysis using the SCF density.

 **********************************************************************

 Orbital symmetries:
 Alpha Orbitals:
       Occupied  (A1') (A1') (E') (E') (A2")
       Virtual   (A1') (E') (E') (A2") (E') (E') (A1') (E') (E')
                 (A1') (E") (E") (A1') (E') (E') (A1')
 Beta  Orbitals:
       Occupied  (A1') (A1') (E') (E')
       Virtual   (A2") (A1') (E') (E') (E') (E') (A2") (A1') (E')
                 (E') (A1') (E") (E") (A1') (E') (E') (A1')
 The electronic state is 2-A2".
 Alpha  occ. eigenvalues --  -10.19143  -0.68133  -0.41651  -0.41651  -0.22427
 Alpha virt. eigenvalues --    0.11475   0.18216   0.18216   0.53687   0.54482
 Alpha virt. eigenvalues --    0.54482   0.68306   0.91472   0.91472   0.95837
 Alpha virt. eigenvalues --    1.65006   1.65006   2.01103   2.18724   2.18724
 Alpha virt. eigenvalues --    4.06680
  Beta  occ. eigenvalues --  -10.17733  -0.64066  -0.40686  -0.40686
  Beta virt. eigenvalues --   -0.04795   0.13087   0.18767   0.18767   0.55297
  Beta virt. eigenvalues --    0.55297   0.61535   0.70970   0.91960   0.91960
  Beta virt. eigenvalues --    0.98719   1.72166   1.72166   2.09744   2.19851
  Beta virt. eigenvalues --    2.19851   4.10466
          Condensed to atoms (all electrons):
              1          2          3          4
     1  C    5.344581   0.381034   0.381034   0.381034
     2  H    0.381034   0.515947  -0.029771  -0.029771
     3  H    0.381034  -0.029771   0.515947  -0.029771
     4  H    0.381034  -0.029771  -0.029771   0.515947
 Mulliken atomic charges:
              1
     1  C   -0.487682
     2  H    0.162561
     3  H    0.162561
     4  H    0.162561
 Sum of Mulliken charges=   0.00000
 Atomic charges with hydrogens summed into heavy atoms:
              1
     1  C    0.000000
     2  H    0.000000
     3  H    0.000000
     4  H    0.000000
 Sum of Mulliken charges=   0.00000
          Atomic-Atomic Spin Densities.
              1          2          3          4
     1  C    1.182342  -0.008873  -0.008873  -0.008873
     2  H   -0.008873  -0.044872   0.000919   0.000919
     3  H   -0.008873   0.000919  -0.044872   0.000919
     4  H   -0.008873   0.000919   0.000919  -0.044872
 Mulliken atomic spin densities:
              1
     1  C    1.155723
     2  H   -0.051908
     3  H   -0.051908
     4  H   -0.051908
 Sum of Mulliken spin densities=   1.00000
 APT atomic charges:
              1
     1  C   -0.125179
     2  H    0.041732
     3  H    0.041728
     4  H    0.041728
 Sum of APT charges=   0.00001
 APT Atomic charges with hydrogens summed into heavy atoms:
              1
     1  C    0.000008
     2  H    0.000000
     3  H    0.000000
     4  H    0.000000
 Sum of APT charges=   0.00001
 Electronic spatial extent (au):  <R**2>=    29.3893
 Charge=     0.0000 electrons
 Dipole moment (field-independent basis, Debye):
    X=     0.0000    Y=     0.0000    Z=     0.0000  Tot=     0.0000
 Quadrupole moment (field-independent basis, Debye-Ang):
   XX=    -7.0054   YY=    -7.0054   ZZ=    -8.6392
   XY=     0.0000   XZ=     0.0000   YZ=     0.0000
 Traceless Quadrupole moment (field-independent basis, Debye-Ang):
   XX=     0.5446   YY=     0.5446   ZZ=    -1.0892
   XY=     0.0000   XZ=     0.0000   YZ=     0.0000
 Octapole moment (field-independent basis, Debye-Ang**2):
  XXX=     0.0000  YYY=     0.7982  ZZZ=     0.0000  XYY=     0.0000
  XXY=    -0.7982  XXZ=     0.0000  XZZ=     0.0000  YZZ=     0.0000
  YYZ=     0.0000  XYZ=     0.0000
 Hexadecapole moment (field-independent basis, Debye-Ang**3):
 XXXX=   -13.9234 YYYY=   -13.9234 ZZZZ=    -8.9725 XXXY=     0.0000
 XXXZ=     0.0000 YYYX=     0.0000 YYYZ=     0.0000 ZZZX=     0.0000
 ZZZY=     0.0000 XXYY=    -4.6411 XXZZ=    -4.1477 YYZZ=    -4.1477
 XXYZ=     0.0000 YYXZ=     0.0000 ZZXY=     0.0000
 N-N= 9.647584312563D+00 E-N=-1.110661732595D+02  KE= 3.943988672327D+01
 Symmetry A1   KE= 3.633691741552D+01
 Symmetry A2   KE= 8.557769208622D-34
 Symmetry B1   KE= 1.959270329453D+00
 Symmetry B2   KE= 1.143698978299D+00
  Exact polarizability:  11.864   0.000  11.864   0.000   0.000   5.052
 Approx polarizability:  13.780   0.000  13.780   0.000   0.000   5.874
                          Isotropic Fermi Contact Couplings
        Atom                 a.u.       MegaHertz       Gauss      10(-4) cm-1
     1  C(13)              0.11039     124.09580      44.28046      41.39390
     2  H(1)              -0.01587     -70.95741     -25.31937     -23.66885
     3  H(1)              -0.01587     -70.95741     -25.31937     -23.66885
     4  H(1)              -0.01587     -70.95741     -25.31937     -23.66885
 --------------------------------------------------------
       Center         ----  Spin Dipole Couplings  ----
                      3XX-RR        3YY-RR        3ZZ-RR
 --------------------------------------------------------
     1   Atom       -0.547580     -0.547580      1.095160
     2   Atom       -0.073225      0.078758     -0.005533
     3   Atom        0.040763     -0.035229     -0.005533
     4   Atom        0.040763     -0.035229     -0.005533
 --------------------------------------------------------
                        XY            XZ            YZ
 --------------------------------------------------------
     1   Atom        0.000000      0.000000      0.000000
     2   Atom        0.000000      0.000000      0.000000
     3   Atom       -0.065811      0.000000      0.000000
     4   Atom        0.065811      0.000000      0.000000
 --------------------------------------------------------


 ---------------------------------------------------------------------------------
              Anisotropic Spin Dipole Couplings in Principal Axis System
 ---------------------------------------------------------------------------------

       Atom             a.u.   MegaHertz   Gauss  10(-4) cm-1        Axes

              Baa    -0.5476   -73.480   -26.219   -24.510  0.9672 -0.2540  0.0000
     1 C(13)  Bbb    -0.5476   -73.480   -26.219   -24.510  0.2540  0.9672  0.0000
              Bcc     1.0952   146.960    52.439    49.021  0.0000  0.0000  1.0000
 
              Baa    -0.0732   -39.069   -13.941   -13.032  1.0000  0.0000  0.0000
     2 H(1)   Bbb    -0.0055    -2.952    -1.053    -0.985  0.0000  0.0000  1.0000
              Bcc     0.0788    42.022    14.994    14.017  0.0000  1.0000  0.0000
 
              Baa    -0.0732   -39.069   -13.941   -13.032  0.5000  0.8660  0.0000
     3 H(1)   Bbb    -0.0055    -2.952    -1.053    -0.985  0.0000  0.0000  1.0000
              Bcc     0.0788    42.022    14.994    14.017  0.8660 -0.5000  0.0000
 
              Baa    -0.0732   -39.069   -13.941   -13.032 -0.5000  0.8660  0.0000
     4 H(1)   Bbb    -0.0055    -2.952    -1.053    -0.985  0.0000  0.0000  1.0000
              Bcc     0.0788    42.022    14.994    14.017  0.8660  0.5000  0.0000
 

 ---------------------------------------------------------------------------------

 Full mass-weighted force constant matrix:
 Low frequencies ---  -63.8967  -63.8941  -61.6201   -0.0049    0.0442    0.5572
 Low frequencies ---  448.8080 1430.3384 1430.3401
 Diagonal vibrational polarizability:
        0.0488850       0.0488958      11.9888511
 Harmonic frequencies (cm**-1), IR intensities (KM/Mole), Raman scattering
 activities (A**4/AMU), depolarization ratios for plane and unpolarized
 incident light, reduced masses (AMU), force constants (mDyne/A),
 and normal coordinates:
                     1                      2                      3
                    A2"                    E'                     E'
 Frequencies --   448.8080              1430.3384              1430.3401
 Red. masses --     1.2356                 1.1020                 1.1020
 Frc consts  --     0.1466                 1.3283                 1.3283
 IR Inten    --    89.7358                 2.3316                 2.3308
 Atom AN      X      Y      Z        X      Y      Z        X      Y      Z
   1   6     0.00   0.00   0.14     0.00   0.09   0.00    -0.09   0.00   0.00
   2   1     0.00   0.00  -0.57     0.00   0.07   0.00     0.81   0.00   0.00
   3   1     0.00   0.00  -0.57    -0.38  -0.59   0.00     0.15   0.38   0.00
   4   1     0.00   0.00  -0.57     0.38  -0.59   0.00     0.15  -0.38   0.00
                     4                      5                      6
                    A1'                    E'                     E'
 Frequencies --  3147.5943              3322.5096              3322.5105
 Red. masses --     1.0078                 1.1185                 1.1185
 Frc consts  --     5.8829                 7.2746                 7.2746
 IR Inten    --     0.0000                 7.4763                 7.4762
 Atom AN      X      Y      Z        X      Y      Z        X      Y      Z
   1   6     0.00   0.00   0.00     0.10   0.00   0.00     0.00   0.10   0.00
   2   1     0.00   0.58   0.00     0.02   0.00   0.00     0.00  -0.81   0.00
   3   1     0.50  -0.29   0.00    -0.61   0.36   0.00     0.36  -0.19   0.00
   4   1    -0.50  -0.29   0.00    -0.61  -0.36   0.00    -0.36  -0.19   0.00

 -------------------
 - Thermochemistry -
 -------------------
 Temperature   298.150 Kelvin.  Pressure   1.00000 Atm.
 Atom  1 has atomic number  6 and mass  12.00000
 Atom  2 has atomic number  1 and mass   1.00783
 Atom  3 has atomic number  1 and mass   1.00783
 Atom  4 has atomic number  1 and mass   1.00783
 Molecular mass:    15.02348 amu.
 Principal axes and moments of inertia in atomic units:
                           1         2         3
     EIGENVALUES --     6.32388   6.32388  12.64776
           X           -0.45331   0.89135   0.00000
           Y            0.89135   0.45331   0.00000
           Z            0.00000   0.00000   1.00000
 This molecule is an oblate symmetric top.
 Rotational symmetry number  6.
 Rotational temperatures (Kelvin)     13.69631    13.69631     6.84815
 Rotational constants (GHZ):         285.38507   285.38507   142.69253
 Zero-point vibrational energy      78368.0 (Joules/Mol)
                                   18.73039 (Kcal/Mol)
 Warning -- explicit consideration of   1 degrees of freedom as
           vibrations may cause significant error
 Vibrational temperatures:    645.73  2057.94  2057.94  4528.68  4780.34
          (Kelvin)           4780.35
 
 Zero-point correction=                           0.029849 (Hartree/Particle)
 Thermal correction to Energy=                    0.032959
 Thermal correction to Enthalpy=                  0.033903
 Thermal correction to Gibbs Free Energy=         0.011713
 Sum of electronic and zero-point Energies=            -39.808443
 Sum of electronic and thermal Energies=               -39.805333
 Sum of electronic and thermal Enthalpies=             -39.804388
 Sum of electronic and thermal Free Energies=          -39.826579
 
                     E (Thermal)             CV                S
                      KCal/Mol        Cal/Mol-Kelvin    Cal/Mol-Kelvin
 Total                   20.682              7.516             46.705
 Electronic               0.000              0.000              1.377
 Translational            0.889              2.981             34.068
 Rotational               0.889              2.981             10.429
 Vibrational             18.905              1.555              0.831
 Vibration  1             0.808              1.364              0.799
                       Q            Log10(Q)             Ln(Q)
 Total Bot       0.409856D-05         -5.387369        -12.404874
 Total V=0       0.219831D+09          8.342089         19.208370
 Vib (Bot)       0.211011D-13        -13.675695        -31.489451
 Vib (Bot)  1    0.382464D+00         -0.417409         -0.961120
 Vib (V=0)       0.113178D+01          0.053763          0.123794
 Vib (V=0)  1    0.112951D+01          0.052889          0.121781
 Electronic      0.200000D+01          0.301030          0.693147
 Translational   0.228882D+07          6.359611         14.643545
 Rotational      0.424312D+02          1.627686          3.747885
 ***** Axes restored to original set *****
 -------------------------------------------------------------------
 Center     Atomic                   Forces (Hartrees/Bohr)
 Number     Number              X              Y              Z
 -------------------------------------------------------------------
    1          6           0.000000000    0.000000000    0.000000000
    2          1           0.000000000    0.000000000    0.000309901
    3          1           0.000268382    0.000000000   -0.000154951
    4          1          -0.000268382    0.000000000   -0.000154951
 -------------------------------------------------------------------
 Cartesian Forces:  Max     0.000309901 RMS     0.000154951

 GradGradGradGradGradGradGradGradGradGradGradGradGradGradGradGradGradGrad
 Berny optimization.
 Internal  Forces:  Max     0.000309901 RMS     0.000202878
 Search for a local minimum.
 Step number   1 out of a maximum of   2
 All quantities printed in internal units (Hartrees-Bohrs-Radians)
 Second derivative matrix not updated -- analytic derivatives used.
 The second derivative matrix:
                          R1        R2        R3        A1        A2
           R1           0.37663
           R2           0.00062   0.37663
           R3           0.00062   0.00062   0.37663
           A1           0.00544   0.00544  -0.01087   0.06549
           A2           0.00544  -0.01087   0.00544  -0.03274   0.06549
           A3          -0.01087   0.00544   0.00544  -0.03274  -0.03274
           A4           0.00000   0.00000   0.00000   0.00000   0.00000
                          A3        A4
           A3           0.06549
           A4           0.00000   0.00657
     Eigenvalues ---    0.00657   0.09727   0.09727   0.37697   0.37697
     Eigenvalues ---    0.377861000.00000
 Angle between quadratic step and forces=   0.00 degrees.
 Linear search not attempted -- first point.
 Iteration  1 RMS(Cart)=  0.00053691 RMS(Int)=  0.00000000
 Iteration  2 RMS(Cart)=  0.00000000 RMS(Int)=  0.00000000
 Variable       Old X    -DE/DX   Delta X   Delta X   Delta X     New X
                                 (Linear)    (Quad)   (Total)
    R1        2.04528   0.00031   0.00000   0.00082   0.00082   2.04610
    R2        2.04528   0.00031   0.00000   0.00082   0.00082   2.04610
    R3        2.04528   0.00031   0.00000   0.00082   0.00082   2.04610
    A1        2.09440   0.00000   0.00000   0.00000   0.00000   2.09440
    A2        2.09440   0.00000   0.00000   0.00000   0.00000   2.09440
    A3        2.09440   0.00000   0.00000   0.00000   0.00000   2.09440
    A4        3.14159   0.00000   0.00000   0.00000   0.00000   3.14159
         Item               Value     Threshold  Converged?
 Maximum Force            0.000310     0.000450     YES
 RMS     Force            0.000203     0.000300     YES
 Maximum Displacement     0.000820     0.001800     YES
 RMS     Displacement     0.000537     0.001200     YES
 Predicted change in Energy=-3.812448D-07
 Optimization completed.
    -- Stationary point found.
                           ----------------------------
                           !   Optimized Parameters   !
                           ! (Angstroms and Degrees)  !
 --------------------------                            --------------------------
 ! Name  Definition              Value          Derivative Info.                !
 --------------------------------------------------------------------------------
 ! R1    R(1,2)                  1.0823         -DE/DX =    0.0003              !
 ! R2    R(1,3)                  1.0823         -DE/DX =    0.0003              !
 ! R3    R(1,4)                  1.0823         -DE/DX =    0.0003              !
 ! A1    A(2,1,3)              120.0            -DE/DX =    0.0                 !
 ! A2    A(2,1,4)              120.0            -DE/DX =    0.0                 !
 ! A3    A(3,1,4)              120.0            -DE/DX =    0.0                 !
 ! A4    L(3,1,4,2,-2)         180.0            -DE/DX =    0.0                 !
 --------------------------------------------------------------------------------
 GradGradGradGradGradGradGradGradGradGradGradGradGradGradGradGradGradGrad

 1\1\GINC-NODE01\Freq\UB3LYP\6-31G(d)\C1H3(2)\CHS60A\21-Nov-2006\0\\#N 
 GEOM=ALLCHECK GUESS=READ SCRF=CHECK GENCHK UB3LYP/6-31G(D) FREQ\\CH3\\
 0,2\C,0.,0.,0.\H,0.,0.,1.0823177307\H,0.9373146498,0.,-0.5411588654\H,
 -0.9373146498,0.,-0.5411588654\\Version=x86-Linux-G03RevB.04\State=2-A
 2"\HF=-39.8382918\S2=0.753759\S2-1=0.\S2A=0.750007\RMSD=2.115e-10\RMSF
 =1.550e-04\Dipole=0.,0.,0.\DipoleDeriv=0.0479653,0.,0.,0.,-0.4714531,0
 .,0.,0.,0.0479495,0.0393261,0.,0.,0.,0.1571758,0.,0.,0.,-0.0713058,-0.
 0436468,0.,0.0479019,0.,0.1571572,0.,0.0478992,0.,0.0116731,-0.0436468
 ,0.,-0.0479019,0.,0.1571572,0.,-0.0478992,0.,0.0116731\Polar=11.863777
 2,0.,5.0516833,0.,0.,11.864082\PG=D03H [O(C1),3C2(H1)]\NImag=0\\0.6280
 2806,0.,0.01838793,0.,0.,0.62802860,-0.05648384,0.,0.,0.04681380,0.,-0
 .00613810,0.,0.,0.00194223,0.,0.,-0.36220508,0.,0.,0.37663204,-0.28577
 344,0.,0.13238094,0.00483444,0.,-0.00345382,0.29417748,0.,-0.00613151,
 0.,0.,0.00209793,0.,0.,0.00194223,0.13238083,0.,-0.13291295,0.02432041
 ,0.,-0.00721290,-0.14281548,0.,0.12926836,-0.28577344,0.,-0.13238094,0
 .00483444,0.,0.00345382,-0.01323656,0.,-0.01388711,0.29417748,0.,-0.00
 613151,0.,0.,0.00209793,0.,0.,0.00209793,0.,0.,0.00194223,-0.13238083,
 0.,-0.13291295,-0.02432041,0.,-0.00721290,0.01388711,0.,0.01085810,0.1
 4281548,0.,0.12926836\\0.,0.,0.,0.,0.,-0.00030990,-0.00026838,0.,0.000
 15495,0.00026838,0.,0.00015495\\\@


 IF OTHER PEOPLE ARE GOING TO TALK, CONVERSATION IS SIMPLY IMPOSSIBLE.

                                               -- WHISTLER'S PRINCIPLE
 Job cpu time:  0 days  0 hours  0 minutes 12.7 seconds.
 File lengths (MBytes):  RWF=     12 Int=      0 D2E=      0 Chk=      7 Scr=      1
 Normal termination of Gaussian 03 at Tue Nov 21 10:18:42 2006.
