<?xml version="1.0" encoding="UTF-8"?>
<module cmlx:templateRef="gaussian.log" xmlns="http://www.xml-cml.org/schema" xmlns:cmlx="http://www.xml-cml.org/schema/cmlx"> Entering Gaussian System, Link 0=/usr/local/Gaussian/g03/g03 Initial command: /usr/local/Gaussian/g03/l1.exe /export/scratch//webmo/3295/Gau-17395.inp -scrdir=/export/scratch//webmo/3295/ Entering Link 1 = /usr/local/Gaussian/g03/l1.exe PID=     17398.  <module cmlx:lineCount="60" cmlx:templateRef="l1.legal"><scalar dataType="xsd:string" dictRef="g:l1.legal">Copyright (c) 1988,1990,1992,1993,1995,1998,2003, Gaussian, Inc.</scalar></module>  <module cmlx:lineCount="20" cmlx:templateRef="l1.citation"><list cmlx:templateRef="citation"><scalar dataType="xsd:string" dictRef="g:l1.citation">Cite this work as:</scalar></list></module> <module cmlx:lineCount="25" cmlx:templateRef="l1.end"><scalar dataType="xsd:string" dictRef="cc:run.date">20-Aug-2006</scalar><scalar dataType="xsd:string" dictRef="cc:program">Gaussian 03</scalar><scalar dataType="xsd:string" dictRef="cc:version">Sun64-SVR4-Unix-G03RevB.04</scalar><scalar dataType="xsd:string" dictRef="cc:program.date">2-Jun-2003</scalar><list cmlx:templateRef="control"><scalar dataType="xsd:string" dictRef="g:control">1/14=-1,18=20,26=3,38=1/1,3</scalar><scalar dataType="xsd:string" dictRef="g:control">2/9=110,17=6,18=5,40=1/2</scalar><scalar dataType="xsd:string" dictRef="g:control">3/5=4,6=6,7=111,11=2,16=1,25=1,30=1,74=-5/1,2,3</scalar><scalar dataType="xsd:string" dictRef="g:control">4//1</scalar><scalar dataType="xsd:string" dictRef="g:control">5/5=2,38=5/2</scalar><scalar dataType="xsd:string" dictRef="g:control">6/7=2,8=2,9=2,10=2,28=1/1</scalar><scalar dataType="xsd:string" dictRef="g:control">7//1,2,3,16</scalar><scalar dataType="xsd:string" dictRef="g:control">1/14=-1,18=20/3(1)</scalar><scalar dataType="xsd:string" dictRef="g:control">99//99</scalar><scalar dataType="xsd:string" dictRef="g:control">2/9=110/2</scalar><scalar dataType="xsd:string" dictRef="g:control">3/5=4,6=6,7=111,11=2,16=1,25=1,30=1,74=-5/1,2,3</scalar><scalar dataType="xsd:string" dictRef="g:control">4/5=5,16=3/1</scalar><scalar dataType="xsd:string" dictRef="g:control">5/5=2,38=5/2</scalar><scalar dataType="xsd:string" dictRef="g:control">7//1,2,3,16</scalar><scalar dataType="xsd:string" dictRef="g:control">1/14=-1,18=20/3(-5)</scalar><scalar dataType="xsd:string" dictRef="g:control">2/9=110/2</scalar><scalar dataType="xsd:string" dictRef="g:control">6/7=2,8=2,9=2,10=2,19=2,28=1/1</scalar><scalar dataType="xsd:string" dictRef="g:control">99/9=1/99</scalar></list></module><module cmlx:lineCount="3" cmlx:templateRef="l101.title"><scalar dataType="xsd:string" dictRef="cc:title" cmlx:templateRef="title">nitrobz/cl basis</scalar></module><module cmlx:lineCount="58" cmlx:templateRef="l101"><list cmlx:templateRef="rest"><scalar dataType="xsd:string" dictRef="x:l101"/></list></module>                    Isotopes and Nuclear Properties:<module cmlx:lineCount="8" cmlx:templateRef="l101.isotope">  Atom         1           2           3           4           5           6           7           8           9          10 IAtWgt=          12          12          12          12          12          12           1           1           1           1 AtmWgt=  12.0000000  12.0000000  12.0000000  12.0000000  12.0000000  12.0000000   1.0078250   1.0078250   1.0078250   1.0078250 IAtSpn=           0           0           0           0           0           0           1           1           1           1 AtZEff=   0.0000000   0.0000000   0.0000000   0.0000000   0.0000000   0.0000000   0.0000000   0.0000000   0.0000000   0.0000000 AtQMom=   0.0000000   0.0000000   0.0000000   0.0000000   0.0000000   0.0000000   0.0000000   0.0000000   0.0000000   0.0000000 AtGFac=   0.0000000   0.0000000   0.0000000   0.0000000   0.0000000   0.0000000   2.7928460   2.7928460   2.7928460   2.7928460</module><module cmlx:lineCount="8" cmlx:templateRef="l101.isotope">  Atom        11          12          13          14          15 IAtWgt=          14          16          16           1          35 AtmWgt=  14.0030740  15.9949146  15.9949146   1.0078250  34.9688527 IAtSpn=           2           0           0           1           3 AtZEff=   0.0000000   0.0000000   0.0000000   0.0000000   0.0000000 AtQMom=   1.5600000   0.0000000   0.0000000   0.0000000  -8.2490000 AtGFac=   0.4037610   0.0000000   0.0000000   2.7928460   0.8218740</module><module cmlx:lineCount="99" cmlx:templateRef="l103"><list cmlx:templateRef="berny"><scalar dataType="xsd:string" dictRef="g:optimization">Initialization pass.</scalar></list><module cmlx:lineCount="92" cmlx:templateRef="l103.init"><list cmlx:templateRef="length"><array dataType="xsd:string" size="18" dictRef="g:symbol">R1 R2 R3 R4 R5 R6 R7 R8 R9 R10 R11 R12 R13 R14 R15 R16 R17 R18</array><array dataType="xsd:integer" size="18" dictRef="g:atom1">1 1 1 1 2 2 3 3 4 4 5 5 5 6 6 7 11 11</array><array dataType="xsd:integer" size="18" dictRef="g:atom2">2 6 14 15 3 11 4 10 5 9 6 8 15 7 15 15 12 13</array><array dataType="xsd:double" size="18" dictRef="cc:distance">1.3803 1.4052 1.0803 3.075 1.3918 1.482 1.3928 1.081 1.3848 1.0826 1.4073 1.0825 3.1119 1.081 2.5999 2.7005 1.2211 1.22</array><array delimiter="|" dataType="xsd:string" size="18" dictRef="g:deriv">|estimate D2E/DX2|estimate D2E/DX2|estimate D2E/DX2|estimate D2E/DX2|estimate D2E/DX2|estimate D2E/DX2|estimate D2E/DX2|estimate D2E/DX2|estimate D2E/DX2|estimate D2E/DX2|estimate D2E/DX2|estimate D2E/DX2|estimate D2E/DX2|estimate D2E/DX2|estimate D2E/DX2|estimate D2E/DX2|estimate D2E/DX2|estimate D2E/DX2|</array></list><list cmlx:templateRef="angle"><array dataType="xsd:string" size="28" dictRef="g:symbol">A1 A2 A3 A4 A5 A6 A7 A8 A9 A10 A11 A12 A13 A14 A15 A16 A17 A18 A19 A20 A21 A22 A23 A24 A25 A26 A27 A28</array><array dataType="xsd:integer" size="28" dictRef="g:atom1">2 2 2 6 14 1 1 3 2 2 4 3 3 5 4 4 4 6 8 1 1 5 2 2 12 1 1 5</array><array dataType="xsd:integer" size="28" dictRef="g:atom2">1 1 1 1 1 2 2 2 3 3 3 4 4 4 5 5 5 5 5 6 6 6 11 11 11 15 15 15</array><array dataType="xsd:integer" size="28" dictRef="g:atom3">6 14 15 14 15 3 11 11 4 10 10 5 9 9 6 8 15 8 15 5 7 7 12 13 13 5 7 7</array><array dataType="xsd:double" size="28" dictRef="cc:angle">118.4779 120.0112 113.3137 121.5095 98.2402 122.1534 118.993 118.8531 119.1393 119.0988 121.7619 120.0961 119.6078 120.2961 120.2236 120.463 113.7313 119.3101 98.2984 119.8984 119.5155 120.1391 117.3052 117.4201 125.2741 46.3386 43.1917 42.9626</array><array delimiter="|" dataType="xsd:string" size="28" dictRef="g:deriv">|estimate D2E/DX2|estimate D2E/DX2|estimate D2E/DX2|estimate D2E/DX2|estimate D2E/DX2|estimate D2E/DX2|estimate D2E/DX2|estimate D2E/DX2|estimate D2E/DX2|estimate D2E/DX2|estimate D2E/DX2|estimate D2E/DX2|estimate D2E/DX2|estimate D2E/DX2|estimate D2E/DX2|estimate D2E/DX2|estimate D2E/DX2|estimate D2E/DX2|estimate D2E/DX2|estimate D2E/DX2|estimate D2E/DX2|estimate D2E/DX2|estimate D2E/DX2|estimate D2E/DX2|estimate D2E/DX2|estimate D2E/DX2|estimate D2E/DX2|estimate D2E/DX2|</array></list><list cmlx:templateRef="dihed"><array dataType="xsd:string" size="39" dictRef="g:symbol">D1 D2 D3 D4 D5 D6 D7 D8 D9 D10 D11 D12 D13 D14 D15 D16 D17 D18 D19 D20 D21 D22 D23 D24 D25 D26 D27 D28 D29 D30 D31 D32 D33 D34 D35 D36 D37 D38 D39</array><array dataType="xsd:integer" size="39" dictRef="g:atom1">6 6 14 14 15 15 2 2 14 14 2 2 14 14 1 1 11 11 1 1 3 3 2 2 10 10 3 3 3 9 9 9 4 4 8 8 4 4 8</array><array dataType="xsd:integer" size="39" dictRef="g:atom2">1 1 1 1 1 1 1 1 1 1 1 1 1 1 2 2 2 2 2 2 2 2 3 3 3 3 4 4 4 4 4 4 5 5 5 5 5 5 5</array><array dataType="xsd:integer" size="39" dictRef="g:atom3">2 2 2 2 2 2 6 6 6 6 15 15 15 15 3 3 3 3 11 11 11 11 4 4 4 4 5 5 5 5 5 5 6 6 6 6 15 15 15</array><array dataType="xsd:integer" size="39" dictRef="g:atom4">3 11 3 11 3 11 5 7 5 7 5 7 5 7 4 10 4 10 12 13 12 13 5 9 5 9 6 8 15 6 8 15 1 7 1 7 1 7 1</array><array dataType="xsd:double" size="39" dictRef="cc:dihed">-0.4405 179.8084 179.9817 0.2306 -64.6046 115.6443 1.1642 173.5046 -179.2646 -6.9242 77.8712 140.3946 -154.3417 -91.8183 -0.2283 179.7024 179.5232 -0.5461 -179.2369 1.0388 1.0036 -178.7207 0.1677 -179.9275 -179.7611 0.1437 0.5628 179.8991 63.7005 -179.3413 -0.0050 -116.2036 -1.2399 -173.532 179.4162 7.1241 -78.9787 -141.978 152.4277</array><array delimiter="|" dataType="xsd:string" size="39" dictRef="g:deriv">|estimate D2E/DX2|estimate D2E/DX2|estimate D2E/DX2|estimate D2E/DX2|estimate D2E/DX2|estimate D2E/DX2|estimate D2E/DX2|estimate D2E/DX2|estimate D2E/DX2|estimate D2E/DX2|estimate D2E/DX2|estimate D2E/DX2|estimate D2E/DX2|estimate D2E/DX2|estimate D2E/DX2|estimate D2E/DX2|estimate D2E/DX2|estimate D2E/DX2|estimate D2E/DX2|estimate D2E/DX2|estimate D2E/DX2|estimate D2E/DX2|estimate D2E/DX2|estimate D2E/DX2|estimate D2E/DX2|estimate D2E/DX2|estimate D2E/DX2|estimate D2E/DX2|estimate D2E/DX2|estimate D2E/DX2|estimate D2E/DX2|estimate D2E/DX2|estimate D2E/DX2|estimate D2E/DX2|estimate D2E/DX2|estimate D2E/DX2|estimate D2E/DX2|estimate D2E/DX2|estimate D2E/DX2|</array></list> ! D40   D(8,5,15,7)            89.4284         estimate D2E/DX2                !</module> --------------------------------------------------------------------------------<module cmlx:lineCount="2" cmlx:templateRef="l103.trust"><scalar dataType="xsd:double" dictRef="g:trustrad">0.3</scalar><scalar dataType="xsd:double" dictRef="g:fncerr">1.0E-7</scalar><scalar dataType="xsd:double" dictRef="g:grderr">1.0E-6</scalar><scalar dataType="xsd:integer" dictRef="g:nstep">96</scalar><scalar dataType="xsd:integer" dictRef="g:allowedstep">100</scalar></module> GradGradGradGradGradGradGradGradGradGradGradGradGradGradGradGradGradGrad</module><module cmlx:lineCount="21" cmlx:templateRef="l202.orient"><molecule id="mol.l202.orient" cmlx:templateRef="atom"><atomArray><atom id="a1" elementType="C" x3="0.0" y3="0.0" z3="0.0"><scalar dataType="xsd:integer" dictRef="cc:serial">1</scalar><scalar dataType="xsd:integer" dictRef="g:atomicType">0</scalar><scalar dataType="xsd:integer" dictRef="compchem:atomicNumber">6</scalar></atom><atom id="a2" elementType="C" x3="0.0" y3="0.0" z3="1.380341"><scalar dataType="xsd:integer" dictRef="cc:serial">2</scalar><scalar dataType="xsd:integer" dictRef="g:atomicType">0</scalar><scalar dataType="xsd:integer" dictRef="compchem:atomicNumber">6</scalar></atom><atom id="a3" elementType="C" x3="1.178327" y3="0.0" z3="2.121035"><scalar dataType="xsd:integer" dictRef="cc:serial">3</scalar><scalar dataType="xsd:integer" dictRef="g:atomicType">0</scalar><scalar dataType="xsd:integer" dictRef="compchem:atomicNumber">6</scalar></atom><atom id="a4" elementType="C" x3="2.399959" y3="-0.004847" z3="1.452013"><scalar dataType="xsd:integer" dictRef="cc:serial">4</scalar><scalar dataType="xsd:integer" dictRef="g:atomicType">0</scalar><scalar dataType="xsd:integer" dictRef="compchem:atomicNumber">6</scalar></atom><atom id="a5" elementType="C" x3="2.433523" y3="-0.006081" z3="0.067665"><scalar dataType="xsd:integer" dictRef="cc:serial">5</scalar><scalar dataType="xsd:integer" dictRef="g:atomicType">0</scalar><scalar dataType="xsd:integer" dictRef="compchem:atomicNumber">6</scalar></atom><atom id="a6" elementType="C" x3="1.235136" y3="0.009496" z3="-0.670028"><scalar dataType="xsd:integer" dictRef="cc:serial">6</scalar><scalar dataType="xsd:integer" dictRef="g:atomicType">0</scalar><scalar dataType="xsd:integer" dictRef="compchem:atomicNumber">6</scalar></atom><atom id="a7" elementType="H" x3="1.258409" y3="-0.096748" z3="-1.74557"><scalar dataType="xsd:integer" dictRef="cc:serial">7</scalar><scalar dataType="xsd:integer" dictRef="g:atomicType">0</scalar><scalar dataType="xsd:integer" dictRef="compchem:atomicNumber">1</scalar></atom><atom id="a8" elementType="H" x3="3.379651" y3="-0.008198" z3="-0.458383"><scalar dataType="xsd:integer" dictRef="cc:serial">8</scalar><scalar dataType="xsd:integer" dictRef="g:atomicType">0</scalar><scalar dataType="xsd:integer" dictRef="compchem:atomicNumber">1</scalar></atom><atom id="a9" elementType="H" x3="3.32119" y3="-0.006073" z3="2.020645"><scalar dataType="xsd:integer" dictRef="cc:serial">9</scalar><scalar dataType="xsd:integer" dictRef="g:atomicType">0</scalar><scalar dataType="xsd:integer" dictRef="compchem:atomicNumber">1</scalar></atom><atom id="a10" elementType="H" x3="1.120729" y3="0.004906" z3="3.200514"><scalar dataType="xsd:integer" dictRef="cc:serial">10</scalar><scalar dataType="xsd:integer" dictRef="g:atomicType">0</scalar><scalar dataType="xsd:integer" dictRef="compchem:atomicNumber">1</scalar></atom><atom id="a11" elementType="N" x3="-1.29627" y3="-0.005631" z3="2.098676"><scalar dataType="xsd:integer" dictRef="cc:serial">11</scalar><scalar dataType="xsd:integer" dictRef="g:atomicType">0</scalar><scalar dataType="xsd:integer" dictRef="compchem:atomicNumber">7</scalar></atom><atom id="a12" elementType="O" x3="-1.260411" y3="0.008976" z3="3.3192"><scalar dataType="xsd:integer" dictRef="cc:serial">12</scalar><scalar dataType="xsd:integer" dictRef="g:atomicType">0</scalar><scalar dataType="xsd:integer" dictRef="compchem:atomicNumber">8</scalar></atom><atom id="a13" elementType="O" x3="-2.312436" y3="-0.029678" z3="1.423908"><scalar dataType="xsd:integer" dictRef="cc:serial">13</scalar><scalar dataType="xsd:integer" dictRef="g:atomicType">0</scalar><scalar dataType="xsd:integer" dictRef="compchem:atomicNumber">8</scalar></atom><atom id="a14" elementType="H" x3="-0.935451" y3="-2.99E-4" z3="-0.540327"><scalar dataType="xsd:integer" dictRef="cc:serial">14</scalar><scalar dataType="xsd:integer" dictRef="g:atomicType">0</scalar><scalar dataType="xsd:integer" dictRef="compchem:atomicNumber">1</scalar></atom><atom id="a15" elementType="Cl" x3="1.211093" y3="2.551081" z3="-1.216988"><scalar dataType="xsd:integer" dictRef="cc:serial">15</scalar><scalar dataType="xsd:integer" dictRef="g:atomicType">0</scalar><scalar dataType="xsd:integer" dictRef="compchem:atomicNumber">17</scalar></atom></atomArray><formula formalCharge="0" concise="C 6 H 5 Cl 1 N 1 O 2"><atomArray elementType="C H Cl N O" count="6.0 5.0 1.0 1.0 2.0"/></formula><bondArray><bond atomRefs2="a1 a2" id="a1_a2" order="2"/><bond atomRefs2="a1 a6" id="a1_a6" order="S"/><bond atomRefs2="a1 a14" id="a1_a14" order="S"/><bond atomRefs2="a2 a3" id="a2_a3" order="S"/><bond atomRefs2="a2 a11" id="a2_a11" order="S"/><bond atomRefs2="a3 a4" id="a3_a4" order="2"/><bond atomRefs2="a3 a10" id="a3_a10" order="S"/><bond atomRefs2="a4 a5" id="a4_a5" order="S"/><bond atomRefs2="a4 a9" id="a4_a9" order="S"/><bond atomRefs2="a5 a6" id="a5_a6" order="2"/><bond atomRefs2="a5 a8" id="a5_a8" order="S"/><bond atomRefs2="a6 a7" id="a6_a7" order="S"/><bond atomRefs2="a11 a12" id="a11_a12" order="S"/><bond atomRefs2="a11 a13" id="a11_a13" order="S"/></bondArray><property dictRef="cml:molmass"><scalar dataType="xsd:double" units="unit:dalton" xmlns:unit="http://www.xml-cml.org/unit/si/">158.5624</scalar></property></molecule></module><module cmlx:lineCount="34" cmlx:templateRef="l202.distmat"><array dataType="xsd:double" size="105" dictRef="cc:distance">0.0 1.380341 0.0 2.426364 1.391791 0.0 2.805025 2.401033 1.392838 0.0 2.434471 2.764994 2.406633 1.384755 0.0 1.405201 2.393672 2.791657 2.420759 1.407325 0.0 2.154059 3.371094 3.868644 3.396486 2.162622 1.081028 0.0 3.410604 3.847468 3.39106 2.146956 1.082538 2.155006 2.482813 0.0 3.887589 3.382356 2.145222 1.082595 2.145247 3.404642 4.295075 2.479718 0.0 3.391069 2.137542 1.081026 2.166513 3.396806 3.872235 4.949044 4.300049 2.496846 0.0 2.466736 1.48201 2.474704 3.75237 4.246924 3.751528 4.616591 5.329427 4.618119 2.656321 3.550466 2.312551 2.717191 4.109123 4.921165 4.705497 5.65752 5.983361 4.762095 2.3841 2.715834 2.313037 3.559817 4.712544 4.935998 4.119632 4.775041 5.995276 5.665192 3.865766 1.080288 2.13636 3.398662 3.885151 3.423401 2.174481 2.504982 4.315887 4.967656 4.268699 3.075032 3.83678 4.201367 3.881976 3.111872 2.599885 2.700488 3.439191 4.633986 5.099559</array></module><module cmlx:lineCount="6" cmlx:templateRef="l202.stoich"><scalar dataType="xsd:string" dictRef="cc:formula" cmlx:templateRef="stoich">C6H5ClNO2(2)</scalar><scalar dataType="xsd:string" dictRef="cc:frameworkgroup" cmlx:templateRef="framework">C1[X(C6H5ClNO2)]</scalar><scalar dataType="xsd:integer" dictRef="cc:degfreedom" cmlx:templateRef="degfreedom">39</scalar><scalar dataType="xsd:string" dictRef="cc:pointgroup">C1</scalar><scalar dataType="xsd:integer" dictRef="cc:operatorcount">1</scalar><scalar dataType="xsd:string" dictRef="cc:largestabelian">C1</scalar><scalar dataType="xsd:integer" dictRef="cc:operatorcount">1</scalar><scalar dataType="xsd:string" dictRef="cc:largestconciseabelian">C1</scalar><scalar dataType="xsd:integer" dictRef="cc:operatorcount">1</scalar></module><module cmlx:lineCount="21" cmlx:templateRef="l202.orient"><molecule id="a15" cmlx:templateRef="atom"><atomArray><atom id="a1" elementType="C" x3="0.062501" y3="-0.439417" z3="0.908797"><scalar dataType="xsd:integer" dictRef="cc:serial">1</scalar><scalar dataType="xsd:integer" dictRef="g:atomicType">0</scalar><scalar dataType="xsd:integer" dictRef="compchem:atomicNumber">6</scalar></atom><atom id="a2" elementType="C" x3="-0.896492" y3="0.198841" z3="0.148336"><scalar dataType="xsd:integer" dictRef="cc:serial">2</scalar><scalar dataType="xsd:integer" dictRef="g:atomicType">0</scalar><scalar dataType="xsd:integer" dictRef="compchem:atomicNumber">6</scalar></atom><atom id="a3" elementType="C" x3="-0.676635" y3="1.447794" z3="-0.425128"><scalar dataType="xsd:integer" dictRef="cc:serial">3</scalar><scalar dataType="xsd:integer" dictRef="g:atomicType">0</scalar><scalar dataType="xsd:integer" dictRef="compchem:atomicNumber">6</scalar></atom><atom id="a4" elementType="C" x3="0.547875" y3="2.080357" z3="-0.224039"><scalar dataType="xsd:integer" dictRef="cc:serial">4</scalar><scalar dataType="xsd:integer" dictRef="g:atomicType">0</scalar><scalar dataType="xsd:integer" dictRef="compchem:atomicNumber">6</scalar></atom><atom id="a5" elementType="C" x3="1.53013" y3="1.466611" z3="0.534933"><scalar dataType="xsd:integer" dictRef="cc:serial">5</scalar><scalar dataType="xsd:integer" dictRef="g:atomicType">0</scalar><scalar dataType="xsd:integer" dictRef="compchem:atomicNumber">6</scalar></atom><atom id="a6" elementType="C" x3="1.301275" y3="0.196746" z3="1.096745"><scalar dataType="xsd:integer" dictRef="cc:serial">6</scalar><scalar dataType="xsd:integer" dictRef="g:atomicType">0</scalar><scalar dataType="xsd:integer" dictRef="compchem:atomicNumber">6</scalar></atom><atom id="a7" elementType="H" x3="2.024883" y3="-0.235828" z3="1.773422"><scalar dataType="xsd:integer" dictRef="cc:serial">7</scalar><scalar dataType="xsd:integer" dictRef="g:atomicType">0</scalar><scalar dataType="xsd:integer" dictRef="compchem:atomicNumber">1</scalar></atom><atom id="a8" elementType="H" x3="2.484566" y3="1.952141" z3="0.69368"><scalar dataType="xsd:integer" dictRef="cc:serial">8</scalar><scalar dataType="xsd:integer" dictRef="g:atomicType">0</scalar><scalar dataType="xsd:integer" dictRef="compchem:atomicNumber">1</scalar></atom><atom id="a9" elementType="H" x3="0.726583" y3="3.052513" z3="-0.665614"><scalar dataType="xsd:integer" dictRef="cc:serial">9</scalar><scalar dataType="xsd:integer" dictRef="g:atomicType">0</scalar><scalar dataType="xsd:integer" dictRef="compchem:atomicNumber">1</scalar></atom><atom id="a10" elementType="H" x3="-1.460744" y3="1.900464" z3="-1.015788"><scalar dataType="xsd:integer" dictRef="cc:serial">10</scalar><scalar dataType="xsd:integer" dictRef="g:atomicType">0</scalar><scalar dataType="xsd:integer" dictRef="compchem:atomicNumber">1</scalar></atom><atom id="a11" elementType="N" x3="-2.205545" y3="-0.463718" z3="-0.060824"><scalar dataType="xsd:integer" dictRef="cc:serial">11</scalar><scalar dataType="xsd:integer" dictRef="g:atomicType">0</scalar><scalar dataType="xsd:integer" dictRef="compchem:atomicNumber">7</scalar></atom><atom id="a12" elementType="O" x3="-3.025912" y3="0.121787" z3="-0.750288"><scalar dataType="xsd:integer" dictRef="cc:serial">12</scalar><scalar dataType="xsd:integer" dictRef="g:atomicType">0</scalar><scalar dataType="xsd:integer" dictRef="compchem:atomicNumber">8</scalar></atom><atom id="a13" elementType="O" x3="-2.378759" y3="-1.546838" z3="0.473341"><scalar dataType="xsd:integer" dictRef="cc:serial">13</scalar><scalar dataType="xsd:integer" dictRef="g:atomicType">0</scalar><scalar dataType="xsd:integer" dictRef="compchem:atomicNumber">8</scalar></atom><atom id="a14" elementType="H" x3="-0.145283" y3="-1.408751" z3="1.338028"><scalar dataType="xsd:integer" dictRef="cc:serial">14</scalar><scalar dataType="xsd:integer" dictRef="g:atomicType">0</scalar><scalar dataType="xsd:integer" dictRef="compchem:atomicNumber">1</scalar></atom><atom id="a15" elementType="Cl" x3="2.578486" y3="-1.195276" z3="-0.689426"><scalar dataType="xsd:integer" dictRef="cc:serial">15</scalar><scalar dataType="xsd:integer" dictRef="g:atomicType">0</scalar><scalar dataType="xsd:integer" dictRef="compchem:atomicNumber">17</scalar></atom></atomArray><formula formalCharge="0" concise="C 6 H 5 Cl 1 N 1 O 2"><atomArray elementType="C H Cl N O" count="6.0 5.0 1.0 1.0 2.0"/></formula><bondArray><bond atomRefs2="a1 a2" id="a1_a2" order="2"/><bond atomRefs2="a1 a6" id="a1_a6" order="S"/><bond atomRefs2="a1 a14" id="a1_a14" order="S"/><bond atomRefs2="a2 a3" id="a2_a3" order="S"/><bond atomRefs2="a2 a11" id="a2_a11" order="S"/><bond atomRefs2="a3 a4" id="a3_a4" order="2"/><bond atomRefs2="a3 a10" id="a3_a10" order="S"/><bond atomRefs2="a4 a5" id="a4_a5" order="S"/><bond atomRefs2="a4 a9" id="a4_a9" order="S"/><bond atomRefs2="a5 a6" id="a5_a6" order="2"/><bond atomRefs2="a5 a8" id="a5_a8" order="S"/><bond atomRefs2="a6 a7" id="a6_a7" order="S"/><bond atomRefs2="a11 a12" id="a11_a12" order="S"/><bond atomRefs2="a11 a13" id="a11_a13" order="S"/></bondArray><property dictRef="cml:molmass"><scalar dataType="xsd:double" units="unit:dalton" xmlns:unit="http://www.xml-cml.org/unit/si/">158.5624</scalar></property></molecule></module><module cmlx:lineCount="1" cmlx:templateRef="l202.rotconst"><array dataType="xsd:double" size="3" dictRef="cc:rotconst" cmlx:templateRef="rotconst">1.7855426 0.7380817 0.6056523</array></module><scalar dataType="xsd:integer" dictRef="g:buffer" cmlx:templateRef="buffer">131072</scalar><scalar dataType="xsd:string" dictRef="g:raffenetti" cmlx:templateRef="raff">Raffenetti</scalar><scalar dataType="xsd:string" dictRef="g:twoe" cmlx:templateRef="twoe">Two-electron</scalar><module cmlx:lineCount="12" cmlx:templateRef="l301.basis"><scalar dataType="xsd:string" dictRef="cc:basis">6-311+G(d,p)</scalar><scalar dataType="xsd:string" dictRef="cc:diffuse">(5D, 7F)</scalar><list cmlx:lineCount="1" cmlx:templateRef="symmadapt"><array dataType="xsd:integer" dictRef="cc:adapted" size="1">258</array><array dataType="xsd:string" dictRef="cc:symm" size="1">A</array></list><scalar dataType="xsd:integer" dictRef="cc:basiscount">258</scalar><scalar dataType="xsd:integer" dictRef="g:primbasis">417</scalar><scalar dataType="xsd:integer" dictRef="cc:cartesianbasis">268</scalar><scalar dataType="xsd:integer" dictRef="cc:alphae">41</scalar><scalar dataType="xsd:integer" dictRef="cc:betae">40</scalar> IExCor= 402 DFT=T Ex=B+HF Corr=LYP ExCW=0 ScaHFX=  0.200000 ScaDFX=  0.800000  0.720000  1.000000  0.810000 IRadAn=      0 IRanWt=     -1 IRanGd=            0 ICorTp=0 NAtoms=   15 NActive=   15 NUniq=   15 SFac= 1.00D+00 NAtFMM=   60 Big=F</module> NPDir=0 NMtPBC=     1 NCelOv=     1 NCel=       1 NClECP=     1 NCelD=      1         NCelK=      1 NCelE2=     1 NClLst=     1 CellRange=     0.0.<module cmlx:lineCount="1" cmlx:templateRef="l302.basis"><list cmlx:templateRef="onee"><scalar dataType="xsd:string" dictRef="g:onee">One-electron integrals</scalar></list></module> NBasis=   258 RedAO= T  NBF=   258 NBsUse=   258 1.00D-06 NBFU=   258 Precomputing XC quadrature grid using IXCGrd= 2 IRadAn=           0 IRanWt=          -1 IRanGd=           0. NRdTot=     962 NPtTot=      121932 NUsed=      128727 NTot=      128759 NSgBfM=   267   267   267   267.<module cmlx:lineCount="1" cmlx:templateRef="l303.basis"><list cmlx:templateRef="l303"><scalar dataType="xsd:integer" dictRef="g:dipdrv">1</scalar></list></module> Harris functional with IExCor=  402 diagonalized for initial guess. ExpMin= 4.38D-02 ExpMax= 1.06D+05 ExpMxC= 3.62D+03 IAcc=2 IRadAn=         4 AccDes= 0.00D+00 HarFok:  IExCor= 402 AccDes= 0.00D+00 IRadAn=         4 IDoV=1 ScaDFX=  1.000000  1.000000  1.000000  1.000000 Harris En= -897.168830014190     Initial guess orbital symmetries:<module cmlx:lineCount="24" cmlx:templateRef="l401.alphabeta"><list cmlx:templateRef="alphabeta"><scalar dataType="xsd:string" dictRef="g:l401.type">Alpha</scalar></list><list cmlx:templateRef="l401"><scalar dataType="xsd:string" dictRef="g:l401">Occupied  (A) (A) (A) (A) (A) (A) (A) (A) (A) (A) (A) (A)</scalar><scalar dataType="xsd:string" dictRef="g:l401">(A) (A) (A) (A) (A) (A) (A) (A) (A) (A) (A) (A)</scalar><scalar dataType="xsd:string" dictRef="g:l401">(A) (A) (A) (A) (A) (A) (A) (A) (A) (A) (A) (A)</scalar><scalar dataType="xsd:string" dictRef="g:l401">(A) (A) (A) (A) (A)</scalar><scalar dataType="xsd:string" dictRef="g:l401">Virtual   (A) (A) (A) (A) (A) (A) (A) (A) (A) (A) (A) (A)</scalar><scalar dataType="xsd:string" dictRef="g:l401">(A) (A) (A) (A) (A) (A) (A) (A) (A) (A) (A) (A)</scalar><scalar dataType="xsd:string" dictRef="g:l401">(A) (A) (A) (A) (A) (A) (A) (A) (A) (A) (A) (A)</scalar><scalar dataType="xsd:string" dictRef="g:l401">(A) (A) (A) (A) (A) (A) (A) (A) (A) (A) (A) (A)</scalar><scalar dataType="xsd:string" dictRef="g:l401">(A) (A) (A) (A) (A) (A) (A) (A) (A) (A) (A) (A)</scalar><scalar dataType="xsd:string" dictRef="g:l401">(A) (A) (A) (A) (A) (A) (A) (A) (A) (A) (A) (A)</scalar><scalar dataType="xsd:string" dictRef="g:l401">(A) (A) (A) (A) (A) (A) (A) (A) (A) (A) (A) (A)</scalar><scalar dataType="xsd:string" dictRef="g:l401">(A) (A) (A) (A) (A) (A) (A) (A) (A) (A) (A) (A)</scalar><scalar dataType="xsd:string" dictRef="g:l401">(A) (A) (A) (A) (A) (A) (A) (A) (A) (A) (A) (A)</scalar><scalar dataType="xsd:string" dictRef="g:l401">(A) (A) (A) (A) (A) (A) (A) (A) (A) (A) (A) (A)</scalar><scalar dataType="xsd:string" dictRef="g:l401">(A) (A) (A) (A) (A) (A) (A) (A) (A) (A) (A) (A)</scalar><scalar dataType="xsd:string" dictRef="g:l401">(A) (A) (A) (A) (A) (A) (A) (A) (A) (A) (A) (A)</scalar><scalar dataType="xsd:string" dictRef="g:l401">(A) (A) (A) (A) (A) (A) (A) (A) (A) (A) (A) (A)</scalar><scalar dataType="xsd:string" dictRef="g:l401">(A) (A) (A) (A) (A) (A) (A) (A) (A) (A) (A) (A)</scalar><scalar dataType="xsd:string" dictRef="g:l401">(A) (A) (A) (A) (A) (A) (A) (A) (A) (A) (A) (A)</scalar><scalar dataType="xsd:string" dictRef="g:l401">(A) (A) (A) (A) (A) (A) (A) (A) (A) (A) (A) (A)</scalar><scalar dataType="xsd:string" dictRef="g:l401">(A) (A) (A) (A) (A) (A) (A) (A) (A) (A) (A) (A)</scalar><scalar dataType="xsd:string" dictRef="g:l401">(A) (A) (A) (A) (A) (A) (A) (A) (A) (A) (A) (A)</scalar><scalar dataType="xsd:string" dictRef="g:l401">(A)</scalar></list></module><module cmlx:lineCount="24" cmlx:templateRef="l401.alphabeta"><list cmlx:templateRef="alphabeta"><scalar dataType="xsd:string" dictRef="g:l401.type">Beta</scalar></list><list cmlx:templateRef="l401"><scalar dataType="xsd:string" dictRef="g:l401">Occupied  (A) (A) (A) (A) (A) (A) (A) (A) (A) (A) (A) (A)</scalar><scalar dataType="xsd:string" dictRef="g:l401">(A) (A) (A) (A) (A) (A) (A) (A) (A) (A) (A) (A)</scalar><scalar dataType="xsd:string" dictRef="g:l401">(A) (A) (A) (A) (A) (A) (A) (A) (A) (A) (A) (A)</scalar><scalar dataType="xsd:string" dictRef="g:l401">(A) (A) (A) (A)</scalar><scalar dataType="xsd:string" dictRef="g:l401">Virtual   (A) (A) (A) (A) (A) (A) (A) (A) (A) (A) (A) (A)</scalar><scalar dataType="xsd:string" dictRef="g:l401">(A) (A) (A) (A) (A) (A) (A) (A) (A) (A) (A) (A)</scalar><scalar dataType="xsd:string" dictRef="g:l401">(A) (A) (A) (A) (A) (A) (A) (A) (A) (A) (A) (A)</scalar><scalar dataType="xsd:string" dictRef="g:l401">(A) (A) (A) (A) (A) (A) (A) (A) (A) (A) (A) (A)</scalar><scalar dataType="xsd:string" dictRef="g:l401">(A) (A) (A) (A) (A) (A) (A) (A) (A) (A) (A) (A)</scalar><scalar dataType="xsd:string" dictRef="g:l401">(A) (A) (A) (A) (A) (A) (A) (A) (A) (A) (A) (A)</scalar><scalar dataType="xsd:string" dictRef="g:l401">(A) (A) (A) (A) (A) (A) (A) (A) (A) (A) (A) (A)</scalar><scalar dataType="xsd:string" dictRef="g:l401">(A) (A) (A) (A) (A) (A) (A) (A) (A) (A) (A) (A)</scalar><scalar dataType="xsd:string" dictRef="g:l401">(A) (A) (A) (A) (A) (A) (A) (A) (A) (A) (A) (A)</scalar><scalar dataType="xsd:string" dictRef="g:l401">(A) (A) (A) (A) (A) (A) (A) (A) (A) (A) (A) (A)</scalar><scalar dataType="xsd:string" dictRef="g:l401">(A) (A) (A) (A) (A) (A) (A) (A) (A) (A) (A) (A)</scalar><scalar dataType="xsd:string" dictRef="g:l401">(A) (A) (A) (A) (A) (A) (A) (A) (A) (A) (A) (A)</scalar><scalar dataType="xsd:string" dictRef="g:l401">(A) (A) (A) (A) (A) (A) (A) (A) (A) (A) (A) (A)</scalar><scalar dataType="xsd:string" dictRef="g:l401">(A) (A) (A) (A) (A) (A) (A) (A) (A) (A) (A) (A)</scalar><scalar dataType="xsd:string" dictRef="g:l401">(A) (A) (A) (A) (A) (A) (A) (A) (A) (A) (A) (A)</scalar><scalar dataType="xsd:string" dictRef="g:l401">(A) (A) (A) (A) (A) (A) (A) (A) (A) (A) (A) (A)</scalar><scalar dataType="xsd:string" dictRef="g:l401">(A) (A) (A) (A) (A) (A) (A) (A) (A) (A) (A) (A)</scalar><scalar dataType="xsd:string" dictRef="g:l401">(A) (A) (A) (A) (A) (A) (A) (A) (A) (A) (A) (A)</scalar><scalar dataType="xsd:string" dictRef="g:l401">(A) (A)</scalar></list></module> The electronic state of the initial guess is 2-A. &lt;S**2&gt; of initial guess= 0.7500<module cmlx:lineCount="381" cmlx:templateRef="l502"><list cmlx:templateRef="l502.type"><scalar dataType="xsd:string" dictRef="g:l502.type">UHF open</scalar></list> Requested convergence on RMS density matrix=1.00D-08 within 128 cycles. Requested convergence on MAX density matrix=1.00D-06. Requested convergence on             energy=1.00D-06. No special actions if energy rises. Using DIIS extrapolation, IDIIS=  1040. Integral symmetry usage will be decided dynamically.       128726 words used for storage of precomputed grid. IEnd=    400407 IEndB=    400407 NGot=   6291456 MDV=   5979782 LenX=   5979782 Fock matrices will be formed incrementally for  20 cycles.<module cmlx:lineCount="364" cmlx:templateRef="l502.cycle"><list cmlx:templateRef="cycle"><list><scalar dataType="xsd:integer" dictRef="cc:cycle">1</scalar><scalar dataType="xsd:integer" dictRef="g:pass">1</scalar><scalar dataType="xsd:integer" dictRef="g:idiag">1</scalar></list></list><module cmlx:lineCount="1" cmlx:templateRef="l502.e"><list cmlx:templateRef="l502.e"><scalar dataType="xsd:double" dictRef="g:l502.e">-896.744400771759</scalar></list></module> Cycle   2  Pass 1  IDiag  1:<module cmlx:lineCount="1" cmlx:templateRef="l502.ediff"><list cmlx:templateRef="l502.ediff"><list><scalar dataType="xsd:double" dictRef="g:l502.e">-896.814878990537</scalar><scalar dataType="xsd:double" dictRef="g:l502.deltae">-0.070478218779</scalar></list></list></module> Cycle   3  Pass 1  IDiag  1:<module cmlx:lineCount="1" cmlx:templateRef="l502.ediff"><list cmlx:templateRef="l502.ediff"><list><scalar dataType="xsd:double" dictRef="g:l502.e">-897.037472221803</scalar><scalar dataType="xsd:double" dictRef="g:l502.deltae">-0.222593231266</scalar></list></list></module> Cycle   4  Pass 1  IDiag  1:<module cmlx:lineCount="1" cmlx:templateRef="l502.ediff"><list cmlx:templateRef="l502.ediff"><list><scalar dataType="xsd:double" dictRef="g:l502.e">-897.048886847788</scalar><scalar dataType="xsd:double" dictRef="g:l502.deltae">-0.011414625984</scalar></list></list></module> Cycle   5  Pass 1  IDiag  1:<module cmlx:lineCount="1" cmlx:templateRef="l502.ediff"><list cmlx:templateRef="l502.ediff"><list><scalar dataType="xsd:double" dictRef="g:l502.e">-897.051833992482</scalar><scalar dataType="xsd:double" dictRef="g:l502.deltae">-0.002947144694</scalar></list></list></module> Cycle   6  Pass 1  IDiag  1:<module cmlx:lineCount="1" cmlx:templateRef="l502.ediff"><list cmlx:templateRef="l502.ediff"><list><scalar dataType="xsd:double" dictRef="g:l502.e">-897.052284134426</scalar><scalar dataType="xsd:double" dictRef="g:l502.deltae">-4.50141944E-4</scalar></list></list></module> Cycle   7  Pass 1  IDiag  1:                    CP:  5.93D-01<module cmlx:lineCount="1" cmlx:templateRef="l502.ediff"><list cmlx:templateRef="l502.ediff"><list><scalar dataType="xsd:double" dictRef="g:l502.e">-897.05232504505</scalar><scalar dataType="xsd:double" dictRef="g:l502.deltae">-4.0910624E-5</scalar></list></list></module> Cycle   8  Pass 1  IDiag  1:                    CP:  5.99D-01  8.47D-01<module cmlx:lineCount="1" cmlx:templateRef="l502.ediff"><list cmlx:templateRef="l502.ediff"><list><scalar dataType="xsd:double" dictRef="g:l502.e">-897.052348073425</scalar><scalar dataType="xsd:double" dictRef="g:l502.deltae">-2.3028375E-5</scalar></list></list></module> Cycle   9  Pass 1  IDiag  1:                    CP:  6.25D-01  9.54D-01  9.14D-01<module cmlx:lineCount="1" cmlx:templateRef="l502.ediff"><list cmlx:templateRef="l502.ediff"><list><scalar dataType="xsd:double" dictRef="g:l502.e">-897.05235276136</scalar><scalar dataType="xsd:double" dictRef="g:l502.deltae">-4.687935E-6</scalar></list></list></module> Cycle  10  Pass 1  IDiag  1:                    CP:  6.20D-01  1.02D+00  1.04D+00  9.96D-01<module cmlx:lineCount="1" cmlx:templateRef="l502.ediff"><list cmlx:templateRef="l502.ediff"><list><scalar dataType="xsd:double" dictRef="g:l502.e">-897.052355055086</scalar><scalar dataType="xsd:double" dictRef="g:l502.deltae">-2.293726E-6</scalar></list></list></module> Cycle  11  Pass 1  IDiag  1:                    CP:  6.09D-01  1.07D+00  1.12D+00  1.08D+00  1.09D+00<module cmlx:lineCount="1" cmlx:templateRef="l502.ediff"><list cmlx:templateRef="l502.ediff"><list><scalar dataType="xsd:double" dictRef="g:l502.e">-897.052355760834</scalar><scalar dataType="xsd:double" dictRef="g:l502.deltae">-7.05748E-7</scalar></list></list></module> Cycle  12  Pass 1  IDiag  1:                    CP:  6.11D-01  1.06D+00  1.14D+00  1.15D+00  1.26D+00                    CP:  1.07D+00<module cmlx:lineCount="1" cmlx:templateRef="l502.ediff"><list cmlx:templateRef="l502.ediff"><list><scalar dataType="xsd:double" dictRef="g:l502.e">-897.052355961307</scalar><scalar dataType="xsd:double" dictRef="g:l502.deltae">-2.00473E-7</scalar></list></list></module> Cycle  13  Pass 1  IDiag  1:                    CP:  6.14D-01  1.05D+00  1.12D+00  1.19D+00  1.43D+00                    CP:  1.25D+00  8.48D-01<module cmlx:lineCount="1" cmlx:templateRef="l502.ediff"><list cmlx:templateRef="l502.ediff"><list><scalar dataType="xsd:double" dictRef="g:l502.e">-897.052356010892</scalar><scalar dataType="xsd:double" dictRef="g:l502.deltae">-4.9585E-8</scalar></list></list></module> Cycle  14  Pass 1  IDiag  1:                    CP:  6.15D-01  1.05D+00  1.11D+00  1.16D+00  1.43D+00                    CP:  1.41D+00  1.01D+00  9.18D-01<module cmlx:lineCount="1" cmlx:templateRef="l502.ediff"><list cmlx:templateRef="l502.ediff"><list><scalar dataType="xsd:double" dictRef="g:l502.e">-897.052356016126</scalar><scalar dataType="xsd:double" dictRef="g:l502.deltae">-5.233E-9</scalar></list></list></module> Cycle  15  Pass 1  IDiag  1:                    CP:  6.14D-01  1.05D+00  1.12D+00  1.16D+00  1.42D+00                    CP:  1.44D+00  1.05D+00  1.02D+00  1.17D+00<module cmlx:lineCount="1" cmlx:templateRef="l502.ediff"><list cmlx:templateRef="l502.ediff"><list><scalar dataType="xsd:double" dictRef="g:l502.e">-897.052356017453</scalar><scalar dataType="xsd:double" dictRef="g:l502.deltae">-1.327E-9</scalar></list></list></module> Cycle  16  Pass 1  IDiag  1:                    CP:  6.15D-01  1.05D+00  1.11D+00  1.16D+00  1.43D+00                    CP:  1.45D+00  1.07D+00  1.11D+00  1.39D+00  1.29D+00<module cmlx:lineCount="1" cmlx:templateRef="l502.ediff"><list cmlx:templateRef="l502.ediff"><list><scalar dataType="xsd:double" dictRef="g:l502.e">-897.052356018065</scalar><scalar dataType="xsd:double" dictRef="g:l502.deltae">-6.11E-10</scalar></list></list></module> Cycle  17  Pass 1  IDiag  1:                    CP:  6.15D-01  1.05D+00  1.12D+00  1.16D+00  1.44D+00                    CP:  1.46D+00  1.07D+00  1.16D+00  1.58D+00  1.77D+00                    CP:  1.66D+00<module cmlx:lineCount="1" cmlx:templateRef="l502.ediff"><list cmlx:templateRef="l502.ediff"><list><scalar dataType="xsd:double" dictRef="g:l502.e">-897.052356018425</scalar><scalar dataType="xsd:double" dictRef="g:l502.deltae">-3.6E-10</scalar></list></list></module> Cycle  18  Pass 1  IDiag  1:                    CP:  6.15D-01  1.05D+00  1.12D+00  1.16D+00  1.44D+00                    CP:  1.48D+00  1.09D+00  1.20D+00  1.81D+00  2.30D+00                    CP:  2.50D+00  1.42D+00<module cmlx:lineCount="1" cmlx:templateRef="l502.ediff"><list cmlx:templateRef="l502.ediff"><list><scalar dataType="xsd:double" dictRef="g:l502.e">-897.052356018671</scalar><scalar dataType="xsd:double" dictRef="g:l502.deltae">-2.46E-10</scalar></list></list></module> Cycle  19  Pass 1  IDiag  1:                    CP:  6.15D-01  1.05D+00  1.12D+00  1.16D+00  1.44D+00                    CP:  1.49D+00  1.09D+00  1.23D+00  1.89D+00  2.62D+00                    CP:  3.00D+00  1.85D+00  1.34D+00<module cmlx:lineCount="1" cmlx:templateRef="l502.ediff"><list cmlx:templateRef="l502.ediff"><list><scalar dataType="xsd:double" dictRef="g:l502.e">-897.052356018718</scalar><scalar dataType="xsd:double" dictRef="g:l502.deltae">-4.7E-11</scalar></list></list></module> Cycle  20  Pass 1  IDiag  1: Restarting incremental Fock formation.<module cmlx:lineCount="1" cmlx:templateRef="l502.ediff"><list cmlx:templateRef="l502.ediff"><list><scalar dataType="xsd:double" dictRef="g:l502.e">-897.05235601872</scalar><scalar dataType="xsd:double" dictRef="g:l502.deltae">-2.0E-12</scalar></list></list></module> Cycle  21  Pass 1  IDiag  1:<module cmlx:lineCount="1" cmlx:templateRef="l502.ediff"><list cmlx:templateRef="l502.ediff"><list><scalar dataType="xsd:double" dictRef="g:l502.e">-897.05235601872</scalar><scalar dataType="xsd:double" dictRef="g:l502.deltae">0.0</scalar></list></list></module> RMSDP=6.18D-09 MaxDP=4.39D-07 DE=-4.55D-13 OVMax= 6.58D-07</module><module cmlx:lineCount="4" cmlx:templateRef="l502.footer"><list cmlx:templateRef="l502"><scalar dataType="xsd:string" dictRef="g:l502">SCF Done:  E(UB+HF-LYP) =  -897.052356019     A.U. after   21 cycles</scalar><scalar dataType="xsd:string" dictRef="g:l502">Convg  =    0.6176D-08             -V/T =  2.0030</scalar><scalar dataType="xsd:string" dictRef="g:l502">S**2   =   0.7586</scalar><scalar dataType="xsd:string" dictRef="g:l502">KE= 8.943759600889D+02 PE=-3.235398423927D+03 EE= 8.832358574928D+02</scalar></list></module></module> Annihilation of the first spin contaminant: S**2 before annihilation     0.7586,   after     0.7501 Copying SCF densities to generalized density rwf, ISCF=1 IROHF=0.<module cmlx:lineCount="333" cmlx:templateRef="l601.popanal"> Orbital symmetries: Alpha Orbitals:<module cmlx:lineCount="4" cmlx:templateRef="l4601.occupied"><list cmlx:templateRef="occ"><scalar dataType="xsd:string" dictRef="g:occorbs">(A) (A) (A) (A) (A) (A) (A) (A) (A) (A) (A) (A)</scalar></list><list cmlx:templateRef="occ"><scalar dataType="xsd:string" dictRef="g:occorbs">(A) (A) (A) (A) (A) (A) (A) (A) (A) (A) (A) (A)</scalar><scalar dataType="xsd:string" dictRef="g:occorbs">(A) (A) (A) (A) (A) (A) (A) (A) (A) (A) (A) (A)</scalar><scalar dataType="xsd:string" dictRef="g:occorbs">(A) (A) (A) (A) (A)</scalar></list></module><module cmlx:lineCount="19" cmlx:templateRef="l4601.virtual"><list cmlx:templateRef="virt"><scalar dataType="xsd:string" dictRef="g:virtorbs">(A) (A) (A) (A) (A) (A) (A) (A) (A) (A) (A) (A)</scalar></list><list cmlx:templateRef="virt"><scalar dataType="xsd:string" dictRef="g:virtorbs">(A) (A) (A) (A) (A) (A) (A) (A) (A) (A) (A) (A)</scalar><scalar dataType="xsd:string" dictRef="g:virtorbs">(A) (A) (A) (A) (A) (A) (A) (A) (A) (A) (A) (A)</scalar><scalar dataType="xsd:string" dictRef="g:virtorbs">(A) (A) (A) (A) (A) (A) (A) (A) (A) (A) (A) (A)</scalar><scalar dataType="xsd:string" dictRef="g:virtorbs">(A) (A) (A) (A) (A) (A) (A) (A) (A) (A) (A) (A)</scalar><scalar dataType="xsd:string" dictRef="g:virtorbs">(A) (A) (A) (A) (A) (A) (A) (A) (A) (A) (A) (A)</scalar><scalar dataType="xsd:string" dictRef="g:virtorbs">(A) (A) (A) (A) (A) (A) (A) (A) (A) (A) (A) (A)</scalar><scalar dataType="xsd:string" dictRef="g:virtorbs">(A) (A) (A) (A) (A) (A) (A) (A) (A) (A) (A) (A)</scalar><scalar dataType="xsd:string" dictRef="g:virtorbs">(A) (A) (A) (A) (A) (A) (A) (A) (A) (A) (A) (A)</scalar><scalar dataType="xsd:string" dictRef="g:virtorbs">(A) (A) (A) (A) (A) (A) (A) (A) (A) (A) (A) (A)</scalar><scalar dataType="xsd:string" dictRef="g:virtorbs">(A) (A) (A) (A) (A) (A) (A) (A) (A) (A) (A) (A)</scalar><scalar dataType="xsd:string" dictRef="g:virtorbs">(A) (A) (A) (A) (A) (A) (A) (A) (A) (A) (A) (A)</scalar><scalar dataType="xsd:string" dictRef="g:virtorbs">(A) (A) (A) (A) (A) (A) (A) (A) (A) (A) (A) (A)</scalar><scalar dataType="xsd:string" dictRef="g:virtorbs">(A) (A) (A) (A) (A) (A) (A) (A) (A) (A) (A) (A)</scalar><scalar dataType="xsd:string" dictRef="g:virtorbs">(A) (A) (A) (A) (A) (A) (A) (A) (A) (A) (A) (A)</scalar><scalar dataType="xsd:string" dictRef="g:virtorbs">(A) (A) (A) (A) (A) (A) (A) (A) (A) (A) (A) (A)</scalar><scalar dataType="xsd:string" dictRef="g:virtorbs">(A) (A) (A) (A) (A) (A) (A) (A) (A) (A) (A) (A)</scalar><scalar dataType="xsd:string" dictRef="g:virtorbs">(A) (A) (A) (A) (A) (A) (A) (A) (A) (A) (A) (A)</scalar><scalar dataType="xsd:string" dictRef="g:virtorbs">(A)</scalar></list></module> Beta  Orbitals:       Occupied  (A) (A) (A) (A) (A) (A) (A) (A) (A) (A) (A) (A)                 (A) (A) (A) (A) (A) (A) (A) (A) (A) (A) (A) (A)                 (A) (A) (A) (A) (A) (A) (A) (A) (A) (A) (A) (A)                 (A) (A) (A) (A)<module cmlx:lineCount="19" cmlx:templateRef="l4601.virtual"><list cmlx:templateRef="virt"><scalar dataType="xsd:string" dictRef="g:virtorbs">(A) (A) (A) (A) (A) (A) (A) (A) (A) (A) (A) (A)</scalar></list><list cmlx:templateRef="virt"><scalar dataType="xsd:string" dictRef="g:virtorbs">(A) (A) (A) (A) (A) (A) (A) (A) (A) (A) (A) (A)</scalar><scalar dataType="xsd:string" dictRef="g:virtorbs">(A) (A) (A) (A) (A) (A) (A) (A) (A) (A) (A) (A)</scalar><scalar dataType="xsd:string" dictRef="g:virtorbs">(A) (A) (A) (A) (A) (A) (A) (A) (A) (A) (A) (A)</scalar><scalar dataType="xsd:string" dictRef="g:virtorbs">(A) (A) (A) (A) (A) (A) (A) (A) (A) (A) (A) (A)</scalar><scalar dataType="xsd:string" dictRef="g:virtorbs">(A) (A) (A) (A) (A) (A) (A) (A) (A) (A) (A) (A)</scalar><scalar dataType="xsd:string" dictRef="g:virtorbs">(A) (A) (A) (A) (A) (A) (A) (A) (A) (A) (A) (A)</scalar><scalar dataType="xsd:string" dictRef="g:virtorbs">(A) (A) (A) (A) (A) (A) (A) (A) (A) (A) (A) (A)</scalar><scalar dataType="xsd:string" dictRef="g:virtorbs">(A) (A) (A) (A) (A) (A) (A) (A) (A) (A) (A) (A)</scalar><scalar dataType="xsd:string" dictRef="g:virtorbs">(A) (A) (A) (A) (A) (A) (A) (A) (A) (A) (A) (A)</scalar><scalar dataType="xsd:string" dictRef="g:virtorbs">(A) (A) (A) (A) (A) (A) (A) (A) (A) (A) (A) (A)</scalar><scalar dataType="xsd:string" dictRef="g:virtorbs">(A) (A) (A) (A) (A) (A) (A) (A) (A) (A) (A) (A)</scalar><scalar dataType="xsd:string" dictRef="g:virtorbs">(A) (A) (A) (A) (A) (A) (A) (A) (A) (A) (A) (A)</scalar><scalar dataType="xsd:string" dictRef="g:virtorbs">(A) (A) (A) (A) (A) (A) (A) (A) (A) (A) (A) (A)</scalar><scalar dataType="xsd:string" dictRef="g:virtorbs">(A) (A) (A) (A) (A) (A) (A) (A) (A) (A) (A) (A)</scalar><scalar dataType="xsd:string" dictRef="g:virtorbs">(A) (A) (A) (A) (A) (A) (A) (A) (A) (A) (A) (A)</scalar><scalar dataType="xsd:string" dictRef="g:virtorbs">(A) (A) (A) (A) (A) (A) (A) (A) (A) (A) (A) (A)</scalar><scalar dataType="xsd:string" dictRef="g:virtorbs">(A) (A) (A) (A) (A) (A) (A) (A) (A) (A) (A) (A)</scalar><scalar dataType="xsd:string" dictRef="g:virtorbs">(A) (A)</scalar></list></module><module cmlx:lineCount="1" cmlx:templateRef="l601.state"><scalar dataType="xsd:string" dictRef="g:l601.state">2-A.</scalar></module><array dataType="xsd:double" size="41" dictRef="g:alphaocc">-101.54543 -19.18088 -19.18082 -14.57619 -10.26845 -10.24581 -10.24076 -10.24036 -10.23689 -10.22769 -9.45721 -7.22824 -7.211 -7.21091 -1.26201 -1.08869 -0.9294 -0.8423 -0.81578 -0.79374 -0.73555 -0.66958 -0.63131 -0.59457 -0.56487 -0.544 -0.54351 -0.50893 -0.50086 -0.48246 -0.43841 -0.42395 -0.40665 -0.3653 -0.34074 -0.33856 -0.32841 -0.32298 -0.3143 -0.30541 -0.29179</array><array dataType="xsd:double" size="217" dictRef="g:alphavirt">-0.12149 -0.06927 -0.03726 -0.01415 0.00884 0.01443 0.02794 0.03796 0.0396 0.04822 0.0666 0.07382 0.07458 0.08701 0.09135 0.09524 0.1031 0.10962 0.11555 0.12284 0.12482 0.13119 0.13415 0.14487 0.15331 0.15905 0.16293 0.16726 0.17673 0.1822 0.18633 0.18728 0.1926 0.19778 0.20203 0.20681 0.21086 0.23208 0.245 0.24736 0.25221 0.25484 0.25753 0.26868 0.2737 0.28499 0.29355 0.29973 0.30291 0.31815 0.3417 0.37527 0.39322 0.39874 0.42062 0.43702 0.44349 0.46903 0.47607 0.47701 0.48631 0.50171 0.51494 0.52384 0.5331 0.54027 0.56328 0.56882 0.58366 0.58831 0.61104 0.62811 0.63562 0.65539 0.67011 0.67455 0.68379 0.71215 0.71639 0.75919 0.77206 0.78434 0.79318 0.80562 0.81907 0.82155 0.85886 0.86272 0.87112 0.88977 0.8978 0.90538 0.9347 0.9413 0.95143 0.9547 1.00253 1.01381 1.03945 1.0443 1.05971 1.08713 1.08857 1.0929 1.14783 1.16852 1.17707 1.19099 1.20689 1.24608 1.2886 1.32081 1.35546 1.43659 1.46815 1.47455 1.50788 1.52576 1.54511 1.56064 1.56805 1.60643 1.6105 1.67982 1.68957 1.70135 1.74035 1.75343 1.78208 1.81568 1.82676 1.83839 1.85685 1.88957 1.91156 1.92485 1.92956 1.95437 1.97021 1.99589 2.03096 2.08207 2.14869 2.24801 2.26303 2.27908 2.28653 2.29666 2.3251 2.36318 2.38634 2.40268 2.41676 2.46474 2.53893 2.56954 2.6023 2.62295 2.67214 2.70915 2.7238 2.73414 2.74022 2.7472 2.76826 2.79151 2.80218 2.80586 2.82695 2.84579 2.8483 2.86989 2.88632 2.89471 3.02393 3.09292 3.12825 3.22165 3.2839 3.32543 3.34817 3.37016 3.45243 3.47417 3.52128 3.60134 3.67094 3.76597 3.79488 3.80212 3.94668 3.99165 4.10603 4.11078 4.52047 4.69412 4.78261 4.96969 4.99791 5.08962 5.14957 5.70774 6.25317 9.6754 23.52891 23.87606 23.92024 24.01287 24.04948 24.14092 25.86205 25.88202 26.05454 35.38698 49.87859 49.98671 215.65215</array><module cmlx:lineCount="53" cmlx:templateRef="l601.alphabetaeigen"/><array dataType="xsd:double" size="5" dictRef="g:betaocc">-101.54018 -19.181 -19.18087 -14.57611 -10.26926</array><module cmlx:lineCount="1" cmlx:templateRef="l601.alphabetaeigen"/><array dataType="xsd:double" size="5" dictRef="g:betaocc">-10.2445 -10.23889 -10.23839 -10.23526 -10.22848</array><module cmlx:lineCount="1" cmlx:templateRef="l601.alphabetaeigen"/><array dataType="xsd:double" size="5" dictRef="g:betaocc">-9.45214 -7.21155 -7.20787 -7.2078 -1.26208</array><module cmlx:lineCount="1" cmlx:templateRef="l601.alphabetaeigen"/><array dataType="xsd:double" size="5" dictRef="g:betaocc">-1.08885 -0.92651 -0.84041 -0.80909 -0.7591</array><module cmlx:lineCount="1" cmlx:templateRef="l601.alphabetaeigen"/><array dataType="xsd:double" size="5" dictRef="g:betaocc">-0.73282 -0.66708 -0.62997 -0.5942 -0.56502</array><module cmlx:lineCount="1" cmlx:templateRef="l601.alphabetaeigen"/><array dataType="xsd:double" size="5" dictRef="g:betaocc">-0.54325 -0.54252 -0.50768 -0.49962 -0.48107</array><module cmlx:lineCount="1" cmlx:templateRef="l601.alphabetaeigen"/><array dataType="xsd:double" size="5" dictRef="g:betaocc">-0.42546 -0.42222 -0.40534 -0.34168 -0.33872</array><module cmlx:lineCount="1" cmlx:templateRef="l601.alphabetaeigen"/><array dataType="xsd:double" size="5" dictRef="g:betaocc">-0.32508 -0.3229 -0.3204 -0.30236 -0.29661</array><module cmlx:lineCount="1" cmlx:templateRef="l601.alphabetaeigen"/><array dataType="xsd:double" size="5" dictRef="g:betavirt">-0.20228 -0.11744 -0.05936 -0.0334 -0.0138</array><module cmlx:lineCount="1" cmlx:templateRef="l601.alphabetaeigen"/><array dataType="xsd:double" size="5" dictRef="g:betavirt">0.00905 0.01472 0.0284 0.03895 0.03996</array><module cmlx:lineCount="1" cmlx:templateRef="l601.alphabetaeigen"/><array dataType="xsd:double" size="5" dictRef="g:betavirt">0.04868 0.06774 0.07416 0.0749 0.08986</array><module cmlx:lineCount="1" cmlx:templateRef="l601.alphabetaeigen"/><array dataType="xsd:double" size="5" dictRef="g:betavirt">0.09162 0.09737 0.10309 0.11042 0.11548</array><module cmlx:lineCount="1" cmlx:templateRef="l601.alphabetaeigen"/><array dataType="xsd:double" size="5" dictRef="g:betavirt">0.12375 0.1259 0.13142 0.13422 0.14557</array><module cmlx:lineCount="1" cmlx:templateRef="l601.alphabetaeigen"/><array dataType="xsd:double" size="5" dictRef="g:betavirt">0.15488 0.15932 0.16355 0.1684 0.17755</array><module cmlx:lineCount="1" cmlx:templateRef="l601.alphabetaeigen"/><array dataType="xsd:double" size="5" dictRef="g:betavirt">0.18264 0.18699 0.18758 0.19311 0.19858</array><module cmlx:lineCount="1" cmlx:templateRef="l601.alphabetaeigen"/><array dataType="xsd:double" size="5" dictRef="g:betavirt">0.20291 0.20765 0.21176 0.23345 0.24559</array><module cmlx:lineCount="1" cmlx:templateRef="l601.alphabetaeigen"/><array dataType="xsd:double" size="5" dictRef="g:betavirt">0.24791 0.25222 0.25537 0.25814 0.27066</array><module cmlx:lineCount="1" cmlx:templateRef="l601.alphabetaeigen"/><array dataType="xsd:double" size="5" dictRef="g:betavirt">0.27442 0.28647 0.29388 0.30074 0.30326</array><module cmlx:lineCount="1" cmlx:templateRef="l601.alphabetaeigen"/><array dataType="xsd:double" size="5" dictRef="g:betavirt">0.31858 0.34185 0.37554 0.39363 0.39896</array><module cmlx:lineCount="1" cmlx:templateRef="l601.alphabetaeigen"/><array dataType="xsd:double" size="5" dictRef="g:betavirt">0.42128 0.43854 0.45839 0.47198 0.47757</array><module cmlx:lineCount="1" cmlx:templateRef="l601.alphabetaeigen"/><array dataType="xsd:double" size="5" dictRef="g:betavirt">0.48096 0.49004 0.50463 0.51776 0.52625</array><module cmlx:lineCount="1" cmlx:templateRef="l601.alphabetaeigen"/><array dataType="xsd:double" size="5" dictRef="g:betavirt">0.53529 0.5481 0.5635 0.56886 0.59042</array><module cmlx:lineCount="1" cmlx:templateRef="l601.alphabetaeigen"/><array dataType="xsd:double" size="5" dictRef="g:betavirt">0.59704 0.61268 0.63364 0.63651 0.65655</array><module cmlx:lineCount="1" cmlx:templateRef="l601.alphabetaeigen"/><array dataType="xsd:double" size="5" dictRef="g:betavirt">0.67158 0.67725 0.68477 0.71612 0.72067</array><module cmlx:lineCount="1" cmlx:templateRef="l601.alphabetaeigen"/><array dataType="xsd:double" size="5" dictRef="g:betavirt">0.76132 0.77935 0.78647 0.79432 0.80778</array><module cmlx:lineCount="1" cmlx:templateRef="l601.alphabetaeigen"/><array dataType="xsd:double" size="5" dictRef="g:betavirt">0.8213 0.82441 0.86125 0.87228 0.8862</array><module cmlx:lineCount="1" cmlx:templateRef="l601.alphabetaeigen"/><array dataType="xsd:double" size="5" dictRef="g:betavirt">0.90035 0.90444 0.91892 0.94044 0.9508</array><module cmlx:lineCount="1" cmlx:templateRef="l601.alphabetaeigen"/><array dataType="xsd:double" size="5" dictRef="g:betavirt">0.95763 0.97074 1.00968 1.02512 1.04292</array><module cmlx:lineCount="1" cmlx:templateRef="l601.alphabetaeigen"/><array dataType="xsd:double" size="5" dictRef="g:betavirt">1.04808 1.06433 1.08888 1.0916 1.09585</array><module cmlx:lineCount="1" cmlx:templateRef="l601.alphabetaeigen"/><array dataType="xsd:double" size="5" dictRef="g:betavirt">1.14919 1.16913 1.18385 1.1932 1.21242</array><module cmlx:lineCount="1" cmlx:templateRef="l601.alphabetaeigen"/><array dataType="xsd:double" size="5" dictRef="g:betavirt">1.24875 1.28908 1.32454 1.35614 1.43753</array><module cmlx:lineCount="1" cmlx:templateRef="l601.alphabetaeigen"/><array dataType="xsd:double" size="5" dictRef="g:betavirt">1.46925 1.47628 1.50979 1.52762 1.54713</array><module cmlx:lineCount="1" cmlx:templateRef="l601.alphabetaeigen"/><array dataType="xsd:double" size="5" dictRef="g:betavirt">1.56405 1.56832 1.60686 1.61338 1.68062</array><module cmlx:lineCount="1" cmlx:templateRef="l601.alphabetaeigen"/><array dataType="xsd:double" size="5" dictRef="g:betavirt">1.69307 1.70256 1.7425 1.75383 1.78289</array><module cmlx:lineCount="1" cmlx:templateRef="l601.alphabetaeigen"/><array dataType="xsd:double" size="5" dictRef="g:betavirt">1.81634 1.82837 1.84109 1.86086 1.89269</array><module cmlx:lineCount="1" cmlx:templateRef="l601.alphabetaeigen"/><array dataType="xsd:double" size="5" dictRef="g:betavirt">1.91385 1.92743 1.93023 1.95745 1.97201</array><module cmlx:lineCount="1" cmlx:templateRef="l601.alphabetaeigen"/><array dataType="xsd:double" size="5" dictRef="g:betavirt">1.99762 2.03451 2.08354 2.14996 2.24907</array><module cmlx:lineCount="1" cmlx:templateRef="l601.alphabetaeigen"/><array dataType="xsd:double" size="5" dictRef="g:betavirt">2.26912 2.28428 2.29313 2.30171 2.34343</array><module cmlx:lineCount="1" cmlx:templateRef="l601.alphabetaeigen"/><array dataType="xsd:double" size="5" dictRef="g:betavirt">2.3634 2.38774 2.40365 2.42391 2.46718</array><module cmlx:lineCount="1" cmlx:templateRef="l601.alphabetaeigen"/><array dataType="xsd:double" size="5" dictRef="g:betavirt">2.53966 2.5707 2.60609 2.62458 2.67232</array><module cmlx:lineCount="1" cmlx:templateRef="l601.alphabetaeigen"/><array dataType="xsd:double" size="5" dictRef="g:betavirt">2.70967 2.72484 2.73464 2.74132 2.74955</array><module cmlx:lineCount="1" cmlx:templateRef="l601.alphabetaeigen"/><array dataType="xsd:double" size="5" dictRef="g:betavirt">2.76825 2.79343 2.80353 2.808 2.83184</array><module cmlx:lineCount="1" cmlx:templateRef="l601.alphabetaeigen"/><array dataType="xsd:double" size="5" dictRef="g:betavirt">2.84667 2.85115 2.87203 2.88742 2.8962</array><module cmlx:lineCount="1" cmlx:templateRef="l601.alphabetaeigen"/><array dataType="xsd:double" size="5" dictRef="g:betavirt">3.02887 3.0926 3.12951 3.22188 3.28463</array><module cmlx:lineCount="1" cmlx:templateRef="l601.alphabetaeigen"/><array dataType="xsd:double" size="5" dictRef="g:betavirt">3.32648 3.34869 3.37 3.45382 3.47571</array><module cmlx:lineCount="1" cmlx:templateRef="l601.alphabetaeigen"/><array dataType="xsd:double" size="5" dictRef="g:betavirt">3.52189 3.60225 3.67096 3.76724 3.79527</array><module cmlx:lineCount="1" cmlx:templateRef="l601.alphabetaeigen"/><array dataType="xsd:double" size="5" dictRef="g:betavirt">3.80227 3.94864 3.99347 4.10839 4.1132</array><module cmlx:lineCount="1" cmlx:templateRef="l601.alphabetaeigen"/><array dataType="xsd:double" size="5" dictRef="g:betavirt">4.52047 4.69397 4.78559 4.96931 4.99752</array><module cmlx:lineCount="1" cmlx:templateRef="l601.alphabetaeigen"/><array dataType="xsd:double" size="5" dictRef="g:betavirt">5.08956 5.1495 5.70764 6.25315 9.68528</array><module cmlx:lineCount="1" cmlx:templateRef="l601.alphabetaeigen"/><array dataType="xsd:double" size="5" dictRef="g:betavirt">23.52969 23.87664 23.92171 24.01463 24.05027</array><module cmlx:lineCount="1" cmlx:templateRef="l601.alphabetaeigen"/><array dataType="xsd:double" size="5" dictRef="g:betavirt">24.1418 25.86666 25.88647 26.07646 35.38707</array><module cmlx:lineCount="1" cmlx:templateRef="l601.alphabetaeigen"/><array dataType="xsd:double" size="3" dictRef="g:betavirt">49.8785 49.98662 215.65698</array><module cmlx:lineCount="1" cmlx:templateRef="l601.alphabetaeigen"/><module cmlx:lineCount="48" cmlx:templateRef="l601.condensed"><array dataType="xsd:double" size="15" dictRef="x:floatArr">11.697811 -1.073247 -1.488114 -1.024543 1.050111 -3.520152 -0.044207 -0.013409 0.004215 -0.04038 0.239632 -0.120609 -0.002238 0.359046 0.061241</array><array dataType="xsd:double" size="15" dictRef="x:floatArr">-1.073247 9.195283 -0.131684 -0.306166 -0.651445 0.002454 0.016022 0.015831 0.023501 0.053096 -0.540442 -0.349987 -0.312289 0.054467 0.026263</array><array dataType="xsd:double" size="15" dictRef="x:floatArr">-1.488114 -0.131684 9.897166 -1.739317 0.489304 -1.423003 0.009569 -0.022426 -0.024745 0.351978 0.072749 0.031753 -0.085853 -0.017009 0.004459</array><array dataType="xsd:double" size="15" dictRef="x:floatArr">-1.024543 -0.306166 -1.739317 8.159399 -0.489233 1.040393 0.007346 -0.006744 0.36025 0.012501 -0.05113 0.289553 0.029697 -0.003201 0.062325</array><array dataType="xsd:double" size="15" dictRef="x:floatArr">1.050111 -0.651445 0.489304 -0.489233 7.141884 -1.762977 -0.040006 0.396957 1.87E-4 -0.01501 0.011613 -0.040903 -0.036077 -0.004226 0.084929</array><array dataType="xsd:double" size="15" dictRef="x:floatArr">-3.520152 0.002454 -1.423003 1.040393 -1.762977 11.265901 0.415946 -0.012139 -0.007267 0.019756 -0.102752 0.051775 0.283086 -0.003841 -0.282076</array><array dataType="xsd:double" size="15" dictRef="x:floatArr">-0.044207 0.016022 0.009569 0.007346 -0.040006 0.415946 0.46401 -0.006421 -2.13E-4 9.0E-6 -1.74E-4 3.0E-6 -1.99E-4 -0.005376 -0.017594</array><array dataType="xsd:double" size="15" dictRef="x:floatArr">-0.013409 0.015831 -0.022426 -0.006744 0.396957 -0.012139 -0.006421 0.50086 -0.007374 -1.48E-4 3.36E-4 3.0E-6 0.0 -9.5E-5 -9.7E-5</array><array dataType="xsd:double" size="15" dictRef="x:floatArr">0.004215 0.023501 -0.024745 0.36025 1.87E-4 -0.007267 -2.13E-4 -0.007374 0.509287 -0.006021 -0.001263 6.0E-6 1.2E-5 2.7E-5 -9.86E-4</array><array dataType="xsd:double" size="15" dictRef="x:floatArr">-0.04038 0.053096 0.351978 0.012501 -0.01501 0.019756 9.0E-6 -1.48E-4 -0.006021 0.465169 -0.028561 0.012816 -7.26E-4 -9.4E-5 -2.76E-4</array><array dataType="xsd:double" size="15" dictRef="x:floatArr">0.239632 -0.540442 0.072749 -0.05113 0.011613 -0.102752 -1.74E-4 3.36E-4 -0.001263 -0.028561 7.168092 0.212949 0.228926 -0.03196 0.005944</array><array dataType="xsd:double" size="15" dictRef="x:floatArr">-0.120609 -0.349987 0.031753 0.289553 -0.040903 0.051775 3.0E-6 3.0E-6 6.0E-6 0.012816 0.212949 7.934108 -0.006411 -8.47E-4 3.96E-4</array><array dataType="xsd:double" size="15" dictRef="x:floatArr">-0.002238 -0.312289 -0.085853 0.029697 -0.036077 0.283086 -1.99E-4 0.0 1.2E-5 -7.26E-4 0.228926 -0.006411 7.898764 0.016925 -0.001573</array><array dataType="xsd:double" size="15" dictRef="x:floatArr">0.359046 0.054467 -0.017009 -0.003201 -0.004226 -0.003841 -0.005376 -9.5E-5 2.7E-5 -9.4E-5 -0.03196 -8.47E-4 0.016925 0.455494 9.98E-4</array><array dataType="xsd:double" size="12" dictRef="x:floatArr">0.061241 0.026263 0.004459 0.062325 0.084929 -0.282076 -0.017594 -9.7E-5 -9.86E-4 -2.76E-4 0.005944 3.96E-4</array></module><list cmlx:templateRef="popanal"><scalar dataType="xsd:string" dictRef="x:popanal">15  Cl  -0.001573   0.000998  17.234575</scalar></list><module cmlx:lineCount="105" cmlx:templateRef="mulliken"><module cmlx:lineCount="18" cmlx:templateRef="l601.mullik"><scalar dataType="xsd:string" dictRef="g:title">Mulliken atomic charges:</scalar><scalar dataType="xsd:integer" dictRef="cc:serial">1</scalar><list cmlx:lineCount="15" cmlx:templateRef="row"><array dataType="xsd:integer" dictRef="cc:serial" size="15">1 2 3 4 5 6 7 8 9 10 11 12 13 14 15</array><array dataType="xsd:string" dictRef="cc:elementType" size="15">C C C C C C H H H H N O O H Cl</array><array dataType="xsd:double" dictRef="x:charge" size="15">-0.085156 -0.021658 0.075173 -0.341129 -0.135109 0.034895 0.201286 0.154866 0.150385 0.175889 -0.18396 -0.014604 -0.012044 0.179693 -0.178528</array></list><scalar dataType="xsd:string" dictRef="x:type">Mulliken</scalar><scalar dataType="xsd:double" dictRef="x:charge.sum">0.0</scalar></module><module cmlx:lineCount="18" cmlx:templateRef="l601.mullik"><scalar dataType="xsd:string" dictRef="g:title">Atomic charges with hydrogens summed into heavy atoms:</scalar><scalar dataType="xsd:integer" dictRef="cc:serial">1</scalar><list cmlx:lineCount="15" cmlx:templateRef="row"><array dataType="xsd:integer" dictRef="cc:serial" size="15">1 2 3 4 5 6 7 8 9 10 11 12 13 14 15</array><array dataType="xsd:string" dictRef="cc:elementType" size="15">C C C C C C H H H H N O O H Cl</array><array dataType="xsd:double" dictRef="x:charge" size="15">0.094537 -0.021658 0.251062 -0.190744 0.019757 0.236181 0.0 0.0 0.0 0.0 -0.18396 -0.014604 -0.012044 0.0 -0.178528</array></list><scalar dataType="xsd:string" dictRef="x:type">Mulliken</scalar><scalar dataType="xsd:double" dictRef="x:charge.sum">0.0</scalar></module>          Atomic-Atomic Spin Densities.              1          2          3          4          5          6     1  C    0.164989  -0.055147   0.046088  -0.041602   0.051129   0.020600     2  C   -0.055147  -0.109376  -0.026927   0.012896  -0.044332   0.181601     3  C    0.046088  -0.026927   0.211328  -0.046906   0.060117  -0.071525     4  C   -0.041602   0.012896  -0.046906  -0.014381  -0.100782   0.113550     5  C    0.051129  -0.044332   0.060117  -0.100782   0.256312  -0.034377     6  C    0.020600   0.181601  -0.071525   0.113550  -0.034377  -0.248382     7  H   -0.006736  -0.000017   0.000829  -0.002288  -0.005675   0.024307     8  H   -0.000496  -0.002173  -0.000671   0.001036  -0.003684   0.007124     9  H   -0.000264   0.000988  -0.000708  -0.000459  -0.000525   0.001187    10  H   -0.000752  -0.005272   0.002256   0.002958   0.000118  -0.000143    11  N    0.005648  -0.006317  -0.008461   0.002722  -0.007891   0.014537    12  O   -0.002347   0.001886   0.001114  -0.000426   0.000729  -0.000925    13  O   -0.002037   0.004737   0.003005  -0.001443   0.001573  -0.002347    14  H   -0.000943  -0.007956  -0.000990   0.000117  -0.001251   0.010161    15  Cl  -0.037026  -0.036229  -0.014877   0.017443  -0.051148   0.033514              7          8          9         10         11         12     1  C   -0.006736  -0.000496  -0.000264  -0.000752   0.005648  -0.002347     2  C   -0.000017  -0.002173   0.000988  -0.005272  -0.006317   0.001886     3  C    0.000829  -0.000671  -0.000708   0.002256  -0.008461   0.001114     4  C   -0.002288   0.001036  -0.000459   0.002958   0.002722  -0.000426     5  C   -0.005675  -0.003684  -0.000525   0.000118  -0.007891   0.000729     6  C    0.024307   0.007124   0.001187  -0.000143   0.014537  -0.000925     7  H    0.005404  -0.000368  -0.000004   0.000000  -0.000321   0.000005     8  H   -0.000368  -0.007633   0.000047   0.000008   0.000032  -0.000001     9  H   -0.000004   0.000047   0.002541   0.000074  -0.000073   0.000013    10  H    0.000000   0.000008   0.000074  -0.008902   0.001776  -0.000499    11  N   -0.000321   0.000032  -0.000073   0.001776   0.008735  -0.001679    12  O    0.000005  -0.000001   0.000013  -0.000499  -0.001679   0.000379    13  O    0.000050  -0.000004   0.000000  -0.000035  -0.005506   0.000624    14  H   -0.000349   0.000002  -0.000001   0.000006   0.002171  -0.000013    15  Cl  -0.010784   0.000627  -0.000115   0.000077   0.004195  -0.000124             13         14         15     1  C   -0.002037  -0.000943  -0.037026     2  C    0.004737  -0.007956  -0.036229     3  C    0.003005  -0.000990  -0.014877     4  C   -0.001443   0.000117   0.017443     5  C    0.001573  -0.001251  -0.051148     6  C   -0.002347   0.010161   0.033514     7  H    0.000050  -0.000349  -0.010784     8  H   -0.000004   0.000002   0.000627     9  H    0.000000  -0.000001  -0.000115    10  H   -0.000035   0.000006   0.000077    11  N   -0.005506   0.002171   0.004195    12  O    0.000624  -0.000013  -0.000124    13  O   -0.004333  -0.000831  -0.000997    14  H   -0.000831  -0.007737   0.000986    15  Cl  -0.000997   0.000986   0.793291 Mulliken atomic spin densities:              1     1  C    0.141104     2  C   -0.091638     3  C    0.153672     4  C   -0.057565     5  C    0.120315     6  C    0.048881     7  H    0.004052     8  H   -0.006153     9  H    0.002702    10  H   -0.008329    11  N    0.009567    12  O   -0.001266    13  O   -0.007545    14  H   -0.006630    15  Cl   0.698833 Sum of Mulliken spin densities=   1.00000<scalar dataType="xsd:double" dictRef="g:electextent2">1814.9172</scalar> Charge=     0.0000 electrons</module><module cmlx:lineCount="18" cmlx:templateRef="multipole"><array dataType="xsd:double" size="3" dictRef="cc:dipole">1.956 4.0063 1.9243</array><scalar dataType="xsd:double" dictRef="x:dipole">4.8559</scalar><array dataType="xsd:double" size="3" dictRef="cc:quadrupole">-78.6686 -61.9353 -63.3647</array><array dataType="xsd:double" size="3" dictRef="cc:quadrupole">1.3198 3.2488 -2.3182</array><array dataType="xsd:double" size="6" dictRef="cc:quadrupole">-10.6791 6.0543 4.6249 1.3198 3.2488 -2.3182</array><array dataType="xsd:double" size="10" dictRef="cc:octapole">16.6297 11.3949 -0.7256 4.0126 19.9096 13.477 -0.5922 -5.7593 -7.7304 -1.1348</array><array dataType="xsd:double" size="15" dictRef="cc:hexadecapole">-1635.4263 -586.5992 -239.258 7.6622 -6.3978 8.7011 -19.7013 5.7627 -7.4463 -355.9234 -280.7166 -138.0463 11.2841 6.4116 -4.4056</array></module></module><module cmlx:lineCount="55" cmlx:templateRef="l601.fermi"><list cmlx:lineCount="15" cmlx:templateRef="fermi.atom"><array dataType="xsd:integer" dictRef="cc:serial" size="15">1 2 3 4 5 6 7 8 9 10 11 12 13 14 15</array><array dataType="xsd:string" dictRef="x:elementType" size="15">C C C C C C H H H H N O O H Cl</array><array dataType="xsd:integer" dictRef="x:isotopeNumber" size="15">13 13 13 13 13 13 1 1 1 1 14 17 17 1 35</array><array dataType="xsd:double" dictRef="cc:coupling" size="15">0.00711 -0.01031 0.0089 -0.00827 0.00617 0.02242 0.00259 -0.00169 6.3E-4 -0.00204 0.00158 1.0E-4 -5.2E-4 -0.0019 0.04751</array><array dataType="xsd:double" dictRef="cc:coupling" size="15">7.99194 -11.59415 10.00015 -9.29299 6.93532 25.19901 11.57289 -7.57164 2.79752 -9.11207 0.5105 -0.05815 0.31343 -8.49662 20.82927</array><array dataType="xsd:double" dictRef="cc:coupling" size="15">2.85172 -4.13708 3.5683 -3.31597 2.47469 8.99163 4.12949 -2.70175 0.99823 -3.25141 0.18216 -0.02075 0.11184 -3.03181 7.4324</array><array dataType="xsd:double" dictRef="cc:coupling" size="15">2.66582 -3.86739 3.33569 -3.09981 2.31337 8.40549 3.8603 -2.52563 0.93315 -3.03946 0.17028 -0.0194 0.10455 -2.83417 6.9479</array></list><list cmlx:lineCount="15" cmlx:templateRef="fermi.spindipole"><array dataType="xsd:integer" dictRef="cc:serial" size="15">1 2 3 4 5 6 7 8 9 10 11 12 13 14 15</array><array dataType="xsd:double" dictRef="g:spindipole.xx" size="15">-0.036055 0.018959 -0.046027 0.017593 -0.044821 -0.010133 -0.005641 0.003214 0.001604 0.00273 0.001625 0.002668 0.011348 -0.00465 -0.193297</array><array dataType="xsd:double" dictRef="g:spindipole.yy" size="15">-0.036656 0.010544 -0.033981 0.011593 -0.015971 -0.005142 -0.00884 0.002357 5.2E-4 -0.004734 -0.002158 -6.2E-4 0.004697 0.006444 -0.17325</array><array dataType="xsd:double" dictRef="g:spindipole.zz" size="15">0.072711 -0.029502 0.080008 -0.029186 0.060792 0.015275 0.014481 -0.005571 -0.002124 0.002004 5.33E-4 -0.002048 -0.016045 -0.001794 0.366546</array></list><list cmlx:lineCount="15" cmlx:templateRef="fermi.spindipole"><array dataType="xsd:integer" dictRef="cc:serial" size="15">1 2 3 4 5 6 7 8 9 10 11 12 13 14 15</array><array dataType="xsd:double" dictRef="g:spindipole.xy" size="15">-0.037654 0.009797 -0.042737 0.010302 -0.033581 -0.044366 -0.002833 0.008101 -3.63E-4 -0.009267 -2.39E-4 5.4E-4 0.008535 0.005188 -2.041035</array><array dataType="xsd:double" dictRef="g:spindipole.xz" size="15">-0.079975 0.0258 -0.069399 0.026125 -0.060758 -0.058405 0.006554 -8.57E-4 0.001553 0.005947 -0.001696 0.001106 0.011591 -0.008344 -2.306016</array><array dataType="xsd:double" dictRef="g:spindipole.yz" size="15">0.081187 -0.031476 0.084924 -0.029528 0.079657 0.060042 3.15E-4 0.005966 -3.84E-4 -0.001676 0.002971 3.51E-4 -0.015883 -0.004621 2.314022</array></list></module><module cmlx:lineCount="65" cmlx:templateRef="l601.anisospin"><module cmlx:lineCount="3" cmlx:templateRef="atom"><matrix rows="3" columns="3" dataType="xsd:double" dictRef="g:axis" cmlx:templateRef="baa">-0.5053 0.6299 -0.5899 0.7555 0.6532 0.0504 -0.4171 0.4202 0.8059</matrix><vector3 dictRef="g:coupling.au">-0.0825 -0.0739 0.1564</vector3><vector3 dictRef="g:coupling.mhz">-11.068 -9.923 20.991</vector3><vector3 dictRef="g:coupling.g">-3.949 -3.541 7.49</vector3><vector3 dictRef="g:coupling.ten">-3.692 -3.31 7.002</vector3><scalar dataType="xsd:integer" dictRef="x:serial">1</scalar><scalar dataType="xsd:string" dictRef="x:elementType">C</scalar><scalar dataType="xsd:integer" dictRef="x:isotopeNumber">13</scalar></module> <module cmlx:lineCount="3" cmlx:templateRef="atom"><matrix rows="3" columns="3" dataType="xsd:double" dictRef="g:axis" cmlx:templateRef="baa">-0.3405 0.4389 0.8315 0.614 0.7736 -0.157 0.7121 -0.4571 0.5329</matrix><vector3 dictRef="g:coupling.au">-0.0567 0.0247 0.032</vector3><vector3 dictRef="g:coupling.mhz">-7.606 3.315 4.291</vector3><vector3 dictRef="g:coupling.g">-2.714 1.183 1.531</vector3><vector3 dictRef="g:coupling.ten">-2.537 1.106 1.431</vector3><scalar dataType="xsd:integer" dictRef="x:serial">2</scalar><scalar dataType="xsd:string" dictRef="x:elementType">C</scalar><scalar dataType="xsd:integer" dictRef="x:isotopeNumber">13</scalar></module> <module cmlx:lineCount="3" cmlx:templateRef="atom"><matrix rows="3" columns="3" dataType="xsd:double" dictRef="g:axis" cmlx:templateRef="baa">0.6311 0.7649 -0.1293 0.6813 -0.4668 0.5638 -0.3709 0.4439 0.8157</matrix><vector3 dictRef="g:coupling.au">-0.0836 -0.0742 0.1578</vector3><vector3 dictRef="g:coupling.mhz">-11.219 -9.953 21.172</vector3><vector3 dictRef="g:coupling.g">-4.003 -3.552 7.555</vector3><vector3 dictRef="g:coupling.ten">-3.742 -3.32 7.062</vector3><scalar dataType="xsd:integer" dictRef="x:serial">3</scalar><scalar dataType="xsd:string" dictRef="x:elementType">C</scalar><scalar dataType="xsd:integer" dictRef="x:isotopeNumber">13</scalar></module> <module cmlx:lineCount="3" cmlx:templateRef="atom"><matrix rows="3" columns="3" dataType="xsd:double" dictRef="g:axis" cmlx:templateRef="baa">-0.3578 0.4223 0.8329 0.5853 0.7964 -0.1523 0.7276 -0.433 0.5321</matrix><vector3 dictRef="g:coupling.au">-0.0554 0.0248 0.0306</vector3><vector3 dictRef="g:coupling.mhz">-7.431 3.33 4.102</vector3><vector3 dictRef="g:coupling.g">-2.652 1.188 1.464</vector3><vector3 dictRef="g:coupling.ten">-2.479 1.111 1.368</vector3><scalar dataType="xsd:integer" dictRef="x:serial">4</scalar><scalar dataType="xsd:string" dictRef="x:elementType">C</scalar><scalar dataType="xsd:integer" dictRef="x:isotopeNumber">13</scalar></module> <module cmlx:lineCount="3" cmlx:templateRef="atom"><matrix rows="3" columns="3" dataType="xsd:double" dictRef="g:axis" cmlx:templateRef="baa">0.8322 -0.2204 0.5088 0.4252 0.8426 -0.3304 -0.3559 0.4913 0.7949</matrix><vector3 dictRef="g:coupling.au">-0.0731 -0.0642 0.1372</vector3><vector3 dictRef="g:coupling.mhz">-9.806 -8.609 18.415</vector3><vector3 dictRef="g:coupling.g">-3.499 -3.072 6.571</vector3><vector3 dictRef="g:coupling.ten">-3.271 -2.872 6.143</vector3><scalar dataType="xsd:integer" dictRef="x:serial">5</scalar><scalar dataType="xsd:string" dictRef="x:elementType">C</scalar><scalar dataType="xsd:integer" dictRef="x:isotopeNumber">13</scalar></module> <module cmlx:lineCount="3" cmlx:templateRef="atom"><matrix rows="3" columns="3" dataType="xsd:double" dictRef="g:axis" cmlx:templateRef="baa">0.5492 -0.3804 0.7441 0.6547 0.7492 -0.1003 -0.5193 0.5423 0.6605</matrix><vector3 dictRef="g:coupling.au">-0.0585 -0.052 0.1105</vector3><vector3 dictRef="g:coupling.mhz">-7.854 -6.971 14.826</vector3><vector3 dictRef="g:coupling.g">-2.803 -2.488 5.29</vector3><vector3 dictRef="g:coupling.ten">-2.62 -2.325 4.945</vector3><scalar dataType="xsd:integer" dictRef="x:serial">6</scalar><scalar dataType="xsd:string" dictRef="x:elementType">C</scalar><scalar dataType="xsd:integer" dictRef="x:isotopeNumber">13</scalar></module> <module cmlx:lineCount="3" cmlx:templateRef="atom"><matrix rows="3" columns="3" dataType="xsd:double" dictRef="g:axis" cmlx:templateRef="baa">0.6029 0.7808 -0.1641 0.7445 -0.6245 -0.2362 0.2869 -0.0202 0.9577</matrix><vector3 dictRef="g:coupling.au">-0.0111 -0.0053 0.0164</vector3><vector3 dictRef="g:coupling.mhz">-5.919 -2.851 8.77</vector3><vector3 dictRef="g:coupling.g">-2.112 -1.017 3.129</vector3><vector3 dictRef="g:coupling.ten">-1.974 -0.951 2.925</vector3><scalar dataType="xsd:integer" dictRef="x:serial">7</scalar><scalar dataType="xsd:string" dictRef="x:elementType">H</scalar><scalar dataType="xsd:integer" dictRef="x:isotopeNumber">1</scalar></module> <module cmlx:lineCount="3" cmlx:templateRef="atom"><matrix rows="3" columns="3" dataType="xsd:double" dictRef="g:axis" cmlx:templateRef="baa">0.3774 -0.5694 0.7303 -0.6451 0.4042 0.6485 0.6644 0.7159 0.2148</matrix><vector3 dictRef="g:coupling.au">-0.0107 -0.0010 0.0117</vector3><vector3 dictRef="g:coupling.mhz">-5.69 -0.534 6.224</vector3><vector3 dictRef="g:coupling.g">-2.03 -0.19 2.221</vector3><vector3 dictRef="g:coupling.ten">-1.898 -0.178 2.076</vector3><scalar dataType="xsd:integer" dictRef="x:serial">8</scalar><scalar dataType="xsd:string" dictRef="x:elementType">H</scalar><scalar dataType="xsd:integer" dictRef="x:isotopeNumber">1</scalar></module> <module cmlx:lineCount="3" cmlx:templateRef="atom"><matrix rows="3" columns="3" dataType="xsd:double" dictRef="g:axis" cmlx:templateRef="baa">-0.3327 0.0745 0.9401 0.2685 0.9631 0.0187 0.904 -0.2587 0.3405</matrix><vector3 dictRef="g:coupling.au">-0.0027 4.0E-4 0.0023</vector3><vector3 dictRef="g:coupling.mhz">-1.443 0.22 1.223</vector3><vector3 dictRef="g:coupling.g">-0.515 0.078 0.436</vector3><vector3 dictRef="g:coupling.ten">-0.481 0.073 0.408</vector3><scalar dataType="xsd:integer" dictRef="x:serial">9</scalar><scalar dataType="xsd:string" dictRef="x:elementType">H</scalar><scalar dataType="xsd:integer" dictRef="x:isotopeNumber">1</scalar></module> <module cmlx:lineCount="3" cmlx:templateRef="atom"><matrix rows="3" columns="3" dataType="xsd:double" dictRef="g:axis" cmlx:templateRef="baa">0.5908 0.7899 -0.1644 -0.3195 0.4161 0.8513 0.7409 -0.4504 0.4982</matrix><vector3 dictRef="g:coupling.au">-0.0113 -0.0010 0.0124</vector3><vector3 dictRef="g:coupling.mhz">-6.038 -0.559 6.596</vector3><vector3 dictRef="g:coupling.g">-2.154 -0.199 2.354</vector3><vector3 dictRef="g:coupling.ten">-2.014 -0.186 2.2</vector3><scalar dataType="xsd:integer" dictRef="x:serial">10</scalar><scalar dataType="xsd:string" dictRef="x:elementType">H</scalar><scalar dataType="xsd:integer" dictRef="x:isotopeNumber">1</scalar></module> <module cmlx:lineCount="3" cmlx:templateRef="atom"><matrix rows="3" columns="3" dataType="xsd:double" dictRef="g:axis" cmlx:templateRef="baa">-0.1311 0.8161 -0.5629 0.7761 0.4378 0.4539 -0.6169 0.3773 0.6907</matrix><vector3 dictRef="g:coupling.au">-0.0042 5.0E-4 0.0037</vector3><vector3 dictRef="g:coupling.mhz">-0.161 0.019 0.142</vector3><vector3 dictRef="g:coupling.g">-0.057 0.0070 0.051</vector3><vector3 dictRef="g:coupling.ten">-0.054 0.0060 0.047</vector3><scalar dataType="xsd:integer" dictRef="x:serial">11</scalar><scalar dataType="xsd:string" dictRef="x:elementType">N</scalar><scalar dataType="xsd:integer" dictRef="x:isotopeNumber">14</scalar></module> <module cmlx:lineCount="3" cmlx:templateRef="atom"><matrix rows="3" columns="3" dataType="xsd:double" dictRef="g:axis" cmlx:templateRef="baa">-0.2002 -0.136 0.9703 -0.1894 0.977 0.0979 0.9613 0.1641 0.2214</matrix><vector3 dictRef="g:coupling.au">-0.0023 -7.0E-4 0.0030</vector3><vector3 dictRef="g:coupling.mhz">0.168 0.05 -0.218</vector3><vector3 dictRef="g:coupling.g">0.06 0.018 -0.078</vector3><vector3 dictRef="g:coupling.ten">0.056 0.017 -0.073</vector3><scalar dataType="xsd:integer" dictRef="x:serial">12</scalar><scalar dataType="xsd:string" dictRef="x:elementType">O</scalar><scalar dataType="xsd:integer" dictRef="x:isotopeNumber">17</scalar></module> <module cmlx:lineCount="3" cmlx:templateRef="atom"><matrix rows="3" columns="3" dataType="xsd:double" dictRef="g:axis" cmlx:templateRef="baa">-0.3293 0.4629 0.823 -0.4042 0.7186 -0.5659 0.8533 0.5191 0.0495</matrix><vector3 dictRef="g:coupling.au">-0.0296 0.0124 0.0172</vector3><vector3 dictRef="g:coupling.mhz">2.143 -0.897 -1.245</vector3><vector3 dictRef="g:coupling.g">0.765 -0.32 -0.444</vector3><vector3 dictRef="g:coupling.ten">0.715 -0.299 -0.415</vector3><scalar dataType="xsd:integer" dictRef="x:serial">13</scalar><scalar dataType="xsd:string" dictRef="x:elementType">O</scalar><scalar dataType="xsd:integer" dictRef="x:isotopeNumber">17</scalar></module> <module cmlx:lineCount="3" cmlx:templateRef="atom"><matrix rows="3" columns="3" dataType="xsd:double" dictRef="g:axis" cmlx:templateRef="baa">0.7793 -0.0639 0.6234 -0.4283 0.672 0.6042 0.4575 0.7378 -0.4963</matrix><vector3 dictRef="g:coupling.au">-0.0118 -0.0010 0.0128</vector3><vector3 dictRef="g:coupling.mhz">-6.27 -0.543 6.813</vector3><vector3 dictRef="g:coupling.g">-2.237 -0.194 2.431</vector3><vector3 dictRef="g:coupling.ten">-2.091 -0.181 2.272</vector3><scalar dataType="xsd:integer" dictRef="x:serial">14</scalar><scalar dataType="xsd:string" dictRef="x:elementType">H</scalar><scalar dataType="xsd:integer" dictRef="x:isotopeNumber">1</scalar></module>               Baa    -2.2389  -117.181   -41.813   -39.087  0.5252 -0.3500  0.7757    15 Cl(35) Bbb    -2.2241  -116.404   -41.536   -38.828  0.6480  0.7553 -0.0979              Bcc     4.4630   233.585    83.349    77.916 -0.5516  0.5540  0.6235</module>  ---------------------------------------------------------------------------------<module cmlx:lineCount="2" cmlx:templateRef="l601.nonmr"> Leave Link  601 at Mon Aug 21 00:52:01 2006, MaxMem=    6291456 cpu:       2.9</module><module cmlx:lineCount="1" cmlx:templateRef="l701"/> ... and contract with generalized density number  0.<module cmlx:lineCount="1" cmlx:templateRef="l702"/><module cmlx:lineCount="1" cmlx:templateRef="l701"/> Integral derivatives from FoFDir, PRISM(SPDF). Symmetry not used in FoFDir. MinBra= 0 MaxBra= 2 Meth= 1. IRaf=       0 NMat=   1 IRICut=       1 DoRegI=T DoRafI=F ISym2E= 0 JSym2E=0.<module cmlx:lineCount="2" cmlx:templateRef="l716.dipole"><array dataType="xsd:double" size="3" dictRef="x:d" cmlx:templateRef="dipole">0.769565634 1.57620911 0.757070592</array> ***** Axes restored to original set *****</module> ------------------------------------------------------------------- Center     Atomic                   Forces (Hartrees/Bohr) Number     Number              X              Y              Z -------------------------------------------------------------------    1          6          -0.002352945   -0.000041144   -0.001523479    2          6          -0.000778896    0.000034413    0.000659295    3          6          -0.000240104    0.000036828    0.002709821    4          6           0.001930968   -0.000048244    0.001434100    5          6           0.001887027   -0.000140585   -0.001427448    6          6           0.000165626    0.000112974   -0.002135545    7          1          -0.000029189   -0.000002714   -0.000210670    8          1           0.000220828    0.000040398   -0.000112187    9          1           0.000173405    0.000011451    0.000134240   10          1           0.000384134    0.000006117    0.000452164   11          7           0.002351101   -0.000136284   -0.001359378   12          8          -0.000454310    0.000080838    0.003313254   13          8          -0.003026603   -0.000003128   -0.001361706   14          1          -0.000187464    0.000001813   -0.000545411   15         17          -0.000043578    0.000047267   -0.000027048 ------------------------------------------------------------------- Cartesian Forces:  Max     0.00331325
[...]
9684 2.04872 2.05078 2.18368 0.81023 0.75624 0.74923 -0.00844 3.13717 3.14142 0.00383 -1.13237 2.01324 0.02183 3.02783 -3.12813 -0.12212 1.35984 2.44784 -2.69216 -1.60415 -0.0043 3.1361 3.13329 -0.0095 -3.12877 0.01652 0.01669 -3.12121 0.00357 -3.14019 -3.13681 0.00262 0.00995 3.13868 1.10418 -3.12946 -7.3E-4 -2.03523 -0.02287 -3.02796 3.13144 0.12634 -1.37532 -2.47786 2.66049 1.55794</array></list></module><module cmlx:lineCount="5" cmlx:templateRef="l103.itemconverge"><list cmlx:lineCount="4" cmlx:templateRef="row"><array dataType="xsd:string" dictRef="g:item"/><array dataType="xsd:double" dictRef="g:value" size="4">4.5E-4 3.0E-4 0.0018 0.0012</array><array dataType="xsd:double" dictRef="g:threshold" size="4">0.0 0.0 0.0 0.0</array><array dataType="xsd:string" dictRef="g:converged" size="4">YES YES NO NO</array></list></module><module cmlx:lineCount="1" cmlx:templateRef="preddelta"><list cmlx:templateRef="predicted"><scalar dataType="xsd:double" dictRef="g:predchange">-8.20575E-7</scalar></list></module> GradGradGradGradGradGradGradGradGradGradGradGradGradGradGradGradGradGrad</module><module cmlx:lineCount="213" cmlx:templateRef="l9999.archive"><scalar dataType="xsd:string" dictRef="cc:hostname">GINC-PUBLIX</scalar><scalar dataType="xsd:string" dictRef="g:operation">Freq</scalar><scalar dataType="xsd:string" dictRef="cc:method">UB3LYP</scalar><scalar dataType="xsd:string" dictRef="cc:basis">6-311+G(d,p)</scalar><scalar dataType="xsd:string" dictRef="cc:jobname">NOBODY</scalar><scalar dataType="xsd:date" dictRef="cc:date">2006-09-02T00:00:00Z</scalar><scalar dataType="xsd:string" dictRef="g:keyword">#P</scalar><scalar dataType="xsd:string" dictRef="g:keyword">GEOM=ALLCHECK</scalar><scalar dataType="xsd:string" dictRef="g:keyword">GUESS=READ</scalar><scalar dataType="xsd:string" dictRef="g:keyword">SCRF=CHECK</scalar><scalar dataType="xsd:string" dictRef="g:keyword">GENCHK</scalar><scalar dataType="xsd:string" dictRef="g:keyword">UB3LYP/6-311+G(D,P)</scalar><scalar dataType="xsd:string" dictRef="g:keyword">FREQ</scalar><scalar dataType="xsd:string" dictRef="cc:title">nitrobz/cl basis</scalar><molecule id="a15"><atomArray><atom id="a1" elementType="C" x3="-0.4278712261" y3="-0.5317208003" z3="-0.749493456"><scalar dataType="xsd:integer" dictRef="compchem:atomicNumber">6</scalar></atom><atom id="a2" elementType="C" x3="-0.4266911872" y3="-0.5318880871" z3="0.6339876189"><scalar dataType="xsd:integer" dictRef="compchem:atomicNumber">6</scalar></atom><atom id="a3" elementType="C" x3="0.7535070228" y3="-0.5319394383" z3="1.3774874589"><scalar dataType="xsd:integer" dictRef="compchem:atomicNumber">6</scalar></atom><atom id="a4" elementType="C" x3="1.9771872966" y3="-0.5371677621" z3="0.7064798145"><scalar dataType="xsd:integer" dictRef="compchem:atomicNumber">6</scalar></atom><atom id="a5" elementType="C" x3="2.0107576533" y3="-0.5380893548" z3="-0.680790658"><scalar dataType="xsd:integer" dictRef="compchem:atomicNumber">6</scalar></atom><atom id="a6" elementType="C" x3="0.810204959" y3="-0.5213805712" z3="-1.4201049032"><scalar dataType="xsd:integer" dictRef="compchem:atomicNumber">6</scalar></atom><atom id="a7" elementType="H" x3="0.8335562853" y3="-0.6274972494" z3="-2.4959167729"><scalar dataType="xsd:integer" dictRef="compchem:atomicNumber">1</scalar></atom><atom id="a8" elementType="H" x3="2.9572236341" y3="-0.5391948502" z3="-1.2068744355"><scalar dataType="xsd:integer" dictRef="compchem:atomicNumber">1</scalar></atom><atom id="a9" elementType="H" x3="2.8987286075" y3="-0.5382181413" z3="1.2751107694"><scalar dataType="xsd:integer" dictRef="compchem:atomicNumber">1</scalar></atom><atom id="a10" elementType="H" x3="0.698913263" y3="-0.5268220715" z3="2.4576811018"><scalar dataType="xsd:integer" dictRef="compchem:atomicNumber">1</scalar></atom><atom id="a11" elementType="N" x3="-1.7241883798" y3="-0.5372233234" z3="1.3526073577"><scalar dataType="xsd:integer" dictRef="compchem:atomicNumber">7</scalar></atom><atom id="a12" elementType="O" x3="-1.6896776839" y3="-0.5232139003" z3="2.5754498908"><scalar dataType="xsd:integer" dictRef="compchem:atomicNumber">8</scalar></atom><atom id="a13" elementType="O" x3="-2.7428114889" y3="-0.559202692" z3="0.6774202431"><scalar dataType="xsd:integer" dictRef="compchem:atomicNumber">8</scalar></atom><atom id="a14" elementType="H" x3="-1.3624508614" y3="-0.532353494" z3="-1.2924548923"><scalar dataType="xsd:integer" dictRef="compchem:atomicNumber">1</scalar></atom><atom id="a15" elementType="Cl" x3="0.7835702353" y3="2.0198292878" z3="-1.9667149174"><scalar dataType="xsd:integer" dictRef="compchem:atomicNumber">17</scalar></atom></atomArray><formula formalCharge="0" concise="C 6 H 5 Cl 1 N 1 O 2" dictRef="cc:formula.calc"/><bondArray><bond atomRefs2="a1 a2" id="a1_a2" order="2"/><bond atomRefs2="a1 a6" id="a1_a6" order="S"/><bond atomRefs2="a1 a14" id="a1_a14" order="S"/><bond atomRefs2="a2 a3" id="a2_a3" order="S"/><bond atomRefs2="a2 a11" id="a2_a11" order="S"/><bond atomRefs2="a3 a4" id="a3_a4" order="2"/><bond atomRefs2="a3 a10" id="a3_a10" order="S"/><bond atomRefs2="a4 a5" id="a4_a5" order="S"/><bond atomRefs2="a4 a9" id="a4_a9" order="S"/><bond atomRefs2="a5 a6" id="a5_a6" order="2"/><bond atomRefs2="a5 a8" id="a5_a8" order="S"/><bond atomRefs2="a6 a7" id="a6_a7" order="S"/><bond atomRefs2="a11 a12" id="a11_a12" order="S"/><bond atomRefs2="a11 a13" id="a11_a13" order="S"/></bondArray><property dictRef="cml:molmass"><scalar dataType="xsd:double" units="unit:dalton" xmlns:unit="http://www.xml-cml.org/unit/si/">158.5624</scalar></property><formula concise="C 6 H 5 Cl 1 N 1 O 2" dictRef="cc:formula.user"/></molecule><scalar dataType="xsd:string" dictRef="cc:version">Sun64-SVR4-Unix-G03RevB.04</scalar><scalar dataType="xsd:string" dictRef="cc:electronicstate">2-A</scalar><scalar dataType="xsd:double" dictRef="cc:hfenergy" units="nonsi:hartree">-897.0524216</scalar><scalar dataType="xsd:string" dictRef="x:S2">0.758796</scalar><scalar dataType="xsd:string" dictRef="x:S2-1">0.</scalar><scalar dataType="xsd:string" dictRef="x:S2A">0.750058</scalar><scalar dataType="xsd:double" dictRef="cc:rmsd" units="nonsi:unknown">2.591E-9</scalar><scalar dataType="xsd:double" dictRef="cc:rmsf" units="nonsi:unknown">7.596E-5</scalar><array dataType="xsd:double" size="3" dictRef="cc:dipole" units="nonsi:debye">1.596238 -1.0442036 -0.2261145</array><array dataType="xsd:double" size="135" dictRef="cc:dipolederiv" units="nonsi:unknown">0.0261517 0.4085073 -0.16662 -0.0121026 -0.0721872 -0.0278968 -0.1540301 -0.4394691 0.3229874 -0.2918735 0.152223 0.0452763 -0.0058383 0.0825358 -0.0100055 0.1155967 0.2754938 -0.30162 0.1909075 0.0276781 -0.2075066 0.0030451 -0.0272177 0.0112517 0.0621 -0.0339027 0.0722168 -0.0222742 -0.2013989 0.3707029 0.0120232 -0.0784245 -0.0191399 0.2765664 0.2743614 -0.3808285 0.0657428 -0.363852 0.1542368 0.0374207 -0.0939319 -0.0356723 -0.1382077 -0.4100365 0.3850726 -0.1487725 -0.0764662 0.0332358 -0.0353438 -0.350927 0.2063448 0.0340931 0.4239282 -0.1070604 0.0711617 0.0014953 0.0015071 0.0069925 0.1794397 -0.0519885 0.0037561 -0.0303904 0.0344005 0.007394 0.0248098 0.0318099 -0.007726 0.1104406 0.0193817 0.0432058 -0.0019771 0.0636594 -0.0149969 0.0080009 -0.0483226 -0.0056029 0.1389946 8.536E-4 -0.0478371 0.0138513 0.0380701 0.1300552 0.0081239 -2.899E-4 -1.242E-4 0.1318365 0.0044581 -0.0103846 -0.0127172 0.0796207 1.7551596 0.2275886 -0.250367 0.0255522 0.2243982 0.0153919 -0.1131734 -0.0195464 1.6520216 -0.5892708 -0.0833429 0.2260461 -0.0061703 -0.2324712 -0.005121 0.0638315 0.0361144 -1.1577647 -1.0855557 -0.1287492 -0.1657673 -0.0169919 -0.2222294 -0.0136927 -0.1325729 -0.011327 -0.623195 0.099934 -0.0037592 -0.0241435 -8.532E-4 0.1169822 0.0196726 -0.0108574 0.0037657 0.1113759 -0.1937627 -8.586E-4 2.02E-4 0.0057197 0.0927612 -0.1138378 0.0079136 -0.0681486 -0.1889567</array><array dataType="xsd:double" size="6" dictRef="cc:polarizability" units="nonsi:unknown">113.9489922 3.9020051 101.1385755 -9.617897 -32.6565032 128.6730884</array><scalar dataType="xsd:string" dictRef="cc:pointgroup">C01 [X(C6H5Cl1N1O2)]</scalar><array dataType="xsd:double" size="1035" dictRef="x:unknown">0.71379505 0.00188022 0.13277563 0.0514482 0.00354799 0.68253234 -0.12001974 -0.00222323 0.01357598 0.57347733 -9.6659E-4 -0.05480724 7.4854E-4 2.522E-4 0.11823433 -0.04484142 -0.00454959 -0.32994476 0.08229023 -0.00174099 0.69097781 0.02790799 0.00401439 -0.07286905 -0.23963534 0.00219733 -0.05284514 0.64063642 -3.49E-5 0.00426798 -2.989E-5 4.796E-5 -0.05526895 -1.6617E-4 -0.00109312 0.13688979 -0.02698429 2.9197E-4 -0.03109049 -0.12225633 1.092E-4 -0.18770474 -0.01385759 0.00216251 0.74483632 -0.01328223 -0.00121081 0.02769362 -0.05808558 -1.4764E-4 -0.02476985 -0.27961499 0.00103843 0.11461079 0.7112683 3.2213E-4 -0.00281221 -4.966E-4 2.9071E-4 0.00321748 6.9959E-4 -0.00100486 -0.06124805 -5.7396E-4 -5.1452E-4 0.13091989 0.02144294 0.00240033 -0.04542959 0.02471565 0.00100847 0.06561424 0.03880052 -3.0004E-4 -0.17235138 0.0504845 -0.00127919 0.67375112 -0.04926034 0.0018472 0.01076065 -0.01306941 -2.2651E-4 -0.0211859 0.02502157 -6.422E-5 0.03308974 -0.13003286 7.5627E-4 0.03222232 0.70042201 -0.00148767 0.00591138 -8.0245E-4 0.00100454 -0.00361476 0.00239482 -0.00447158 0.00492602 1.7087E-4 0.00323437 -0.06187701 -0.00447342 -0.00342358 0.13864863 -0.01455554 -3.5655E-4 0.05603381 -0.02496163 -6.6017E-4 -0.04700073 0.07784628 -6.5363E-4 -0.02536762 -0.03085739 5.2562E-4 -0.34010649 -0.05104356 0.00300085 0.68246198 -0.27079658 -0.00613274 0.05515355 0.01773595 4.8616E-4 0.05966704 -0.0440029 1.7093E-4 -0.00356453 0.02670783 -7.2182E-4 -0.05303355 -0.25873246 0.00679576 -0.05814977 0.61388422 0.00833038 -0.05405934 -0.01297177 0.00429296 0.0040637 0.00717558 -3.561E-5 -0.00506691 -0.00247245 -0.00469032 0.00711849 0.00644518 -0.00623667 -0.05691329 -0.01214087 -0.00243895 0.11496906 0.09945719 -0.0039606 -0.1620517 0.02901342 0.00144197 -0.02669192 -2.7656E-4 -4.761E-5 1.7938E-4 -0.02919416 0.00116327 -0.03009664 -0.10123466 -0.0029288 -0.17128696 -0.00360537 0.0464746 0.71948267 0.00286216 0.00324261 0.02866588 -0.00426753 -8.276E-5 0.00185661 -0.00166855 -3.015E-5 4.283E-5 -0.00436267 2.2005E-4 -0.00278768 0.00534081 -0.00325041 -0.02730095 -0.05839308 8.22E-4 0.00570202 0.05837207 -0.00156297 0.00304608 0.00254391 -5.8229E-4 0.00562154 -8.172E-4 8.684E-5 -7.5152E-4 2.2886E-4 6.3029E-4 0.00543503 -5.6385E-4 0.00143379 0.0033488 0.00260733 6.7522E-4 -0.03376629 -0.03308795 -7.5584E-4 0.03180779 -5.1968E-4 -5.2718E-4 -0.01002768 0.00247314 -7.9118E-4 0.00128219 -2.824E-5 1.4571E-4 4.8969E-4 -0.00301212 -7.4296E-4 7.4761E-4 0.00195612 -5.5105E-4 -0.01089762 0.005923 -0.0315406 -0.34264647 -0.00660733 0.03054173 0.36038426 -0.00298367 2.3181E-4 -0.00351082 4.4775E-4 -4.48E-6 -7.6001E-4 0.00100123 -6.732E-5 -6.6206E-4 0.00457709 -1.8349E-4 -0.00276895 -0.27542938 6.4955E-4 0.12072494 -0.01787904 1.9251E-4 0.01408394 7.9783E-4 -1.3452E-4 -7.033E-5 0.28942115 3.26E-5 0.00586213 2.908E-4 -2.3712E-4 -1.412E-4 -1.5298E-4 5.3423E-4 0.00749457 -9.61E-5 -1.4023E-4 0.00598474 5.017E-4 -0.00116484 -0.03975932 -0.00101742 0.00116457 0.0031099 -4.225E-5 7.46E-5 -0.00295213 5.4901E-4 -2.9686E-4 0.02549691 -0.00356924 1.3441E-4 -0.00141133 -0.0010102 -4.78E-6 -9.2872E-4 -5.1946E-4 3.21E-5 -0.00570408 0.02816136 -8.552E-5 -0.00919028 0.12073183 -2.0844E-4 -0.12619087 -0.01658059 2.2258E-4 0.01179223 4.6237E-4 -4.037E-5 6.5722E-4 -0.12821309 1.6348E-4 0.1297347 1.2407E-4 -6.164E-5 8.5397E-4 -0.00230141 2.61E-5 0.00351906 -0.01915778 -1.47E-5 -0.01530417 -0.26299098 3.8751E-4 -0.12623726 0.00538254 -5.33E-6 0.00290346 0.00126172 -2.354E-5 9.0413E-4 1.4386E-4 4.558E-5 2.3434E-4 6.1687E-4 -1.235E-5 -2.8313E-4 0.27685408 4.785E-5 -9.2996E-4 -1.2254E-4 1.2186E-4 0.0068473 7.902E-5 -3.532E-5 0.00321164 1.4965E-4 2.2604E-4 -0.03801939 -1.1472E-4 -3.2682E-4 0.00385802 -7.449E-5 7.43E-5 0.00742029 4.6059E-4 2.5875E-4 -1.764E-5 -3.901E-5 4.986E-5 -0.00417165 -4.685E-5 -3.0391E-4 0.02602822 6.5637E-4 6.822E-5 -5.8012E-4 0.0028221 -3.795E-5 -9.8576E-4 0.01554199 4.433E-5 0.01161315 -0.12641479 3.996E-5 -0.13664824 -0.02797969 3.9327E-4 -0.01154929 0.00138921 -2.0093E-4 -0.00565019 -0.00131929 1.31E-5 -5.043E-4 2.7571E-4 4.195E-5 9.7898E-4 0.13438791 -1.419E-4 0.14180014 -0.00531402 6.957E-5 -0.00246452 0.00687945 -9.16E-5 -0.02599441 -0.05805774 7.479E-5 0.01121646 0.00433804 1.1048E-4 0.02686771 -0.0046365 -6.248E-5 0.00246921 -8.3011E-4 5.753E-5 3.573E-5 6.173E-5 -6.07E-6 2.28E-5 9.49E-5 1.569E-5 0.00124565 0.00101276 -3.094E-5 -4.838E-4 0.0563053 1.3862E-4 0.00522234 -2.9399E-4 1.4777E-4 0.00602934 3.588E-4 8.967E-5 -0.04087214 -0.00140834 -2.1955E-4 0.00618298 -2.46E-6 4.464E-5 0.00711704 -1.009E-4 -7.913E-5 -0.00117153 -2.189E-4 -5.444E-5 -5.1756E-4 1.1916E-4 3.144E-5 -5.8134E-4 2.975E-5 -1.54E-6 -0.00402132 -6.49E-6 -9.674E-5 0.02605478 -0.00255894 -9.58E-6 2.9447E-4 8.7092E-4 -6.88E-5 -0.01232128 0.00923033 -0.00145793 -0.34592122 -0.00149151 -2.376E-5 -0.00646129 0.00185072 -1.479E-5 5.301E-4 1.1813E-4 -7.081E-5 6.8158E-4 2.588E-5 1.1E-7 -6.449E-5 -2.0209E-4 -7.84E-6 -3.0642E-4 5.41E-5 2.351E-5 7.179E-4 -0.01245293 0.00162773 0.36490007 -0.00400032 -0.00114366 0.03123122 -0.10721244 -8.2628E-4 -0.00451303 -0.03913367 -8.352E-5 0.01218094 0.00118921 -2.1451E-4 -0.00848452 1.8486E-4 1.3459E-4 3.9292E-4 0.00575644 0.00151744 -0.00550528 9.3825E-4 -3.4009E-4 -5.3048E-4 -2.9228E-4 1.8763E-4 -1.1061E-4 -1.9949E-4 4.652E-5 6.6758E-4 6.3263E-4 1.1209E-4 6.0776E-4 0.69973371 4.3804E-4 -0.0045111 1.6436E-4 -3.1824E-4 -0.06831087 2.5199E-4 4.0733E-4 -0.00546496 8.006E-5 -2.1077E-4 0.00878134 2.1177E-4 -2.0053E-4 -0.00180139 -2.4366E-4 1.351E-5 0.00965524 5.3551E-4 -3.2444E-4 5.5671E-4 -1.5207E-4 -8.72E-6 -0.00138336 -4.192E-5 -7.55E-6 8.8099E-4 -5.84E-6 -4.264E-5 -0.00397898 -2.333E-5 0.00745125 0.21183464 0.03564834 1.2976E-4 -0.01565996 -0.00160063 1.2001E-4 -0.10753476 0.00613501 1.9332E-4 0.02240121 -0.00952369 1.1503E-4 9.0529E-4 -0.00188117 3.6254E-4 -0.0040965 -0.00368229 -3.7391E-4 -0.00722788 0.00140424 6.993E-5 -2.1343E-4 -8.904E-5 -1.1132E-4 -4.4807E-4 -0.00152446 1.666E-5 8.6174E-4 -0.00319621 -8.437E-5 -0.00338712 0.13485697 0.00843608 0.86432991 -0.00548931 1.9139E-4 -0.00317619 0.00538277 4.9347E-4 0.0417522 -0.00746739 1.613E-5 0.00155285 0.00157303 2.536E-5 0.00126148 -4.6625E-4 -4.202E-5 8.8351E-4 -3.7961E-4 -5.3523E-4 0.0030369 -6.1917E-4 9.307E-5 1.7225E-4 4.049E-5 -3.418E-5 2.1928E-4 -3.601E-5 -1.104E-5 -7.708E-5 -0.00212398 -2.876E-5 0.0037943 -0.1320466 -4.2009E-4 0.01577849 0.13487849 -1.0566E-4 0.00329224 6.291E-5 2.1919E-4 0.01612657 -5.0602E-4 -2.0102E-4 0.00236828 1.179E-5 8.009E-5 -8.3242E-4 -9.727E-5 4.567E-5 1.8853E-4 9.441E-5 1.416E-5 -0.00146264 -1.8564E-4 9.175E-5 -3.0268E-4 5.752E-5 3.8E-7 1.1345E-4 5.83E-6 1.67E-6 -8.0E-6 1.24E-6 2.62E-6 -1.2888E-4 1.499E-5 -6.1567E-4 -0.07075978 -0.00484229 0.00140264 0.02606432 0.00556348 2.5767E-4 0.0032407 0.02443502 -7.2927E-4 -0.053411 -0.00857132 -5.257E-5 -0.00392653 0.00233072 -1.226E-5 -9.7736E-4 -4.711E-5 -1.2095E-4 7.2106E-4 0.00183247 1.7577E-4 -0.00171011 6.0996E-4 -3.464E-5 -2.3821E-4 1.0267E-4 3.331E-5 2.7596E-4 3.2634E-4 5.16E-6 -1.138E-4 0.00266454 -2.385E-5 0.00126668 0.01108446 -0.00460234 -0.5188711 0.02064477 0.00758411 0.65648288 -0.00130106 4.6641E-4 -0.00624723 -0.06618631 -0.00104654 -0.01856745 -0.00137415 -6.101E-5 0.00859417 -0.00362891 2.0252E-4 9.791E-4 -9.6172E-4 9.89E-6 -0.00194268 -7.4355E-4 -7.4441E-4 7.7926E-4 -1.9151E-4 1.3412E-4 8.184E-5 6.695E-5 -9.214E-5 1.2862E-4 -7.7558E-4 1.044E-5 5.1422E-4 0.00132344 -6.318E-5 -8.597E-5 -0.42514623 -0.00686611 -0.17177925 0.0068805 -8.7564E-4 -0.06012927 0.49449195 -1.1944E-4 0.00213438 -5.928E-5 -0.00100825 0.01593217 -3.0693E-4 -1.8362E-4 0.00344434 9.867E-5 4.457E-5 -0.00130919 -1.2213E-4 6.985E-5 2.4204E-4 1.1293E-4 -1.043E-5 -8.2189E-4 -9.571E-5 1.748E-5 2.4E-6 1.093E-5 7.7E-7 1.238E-4 1.456E-5 -1.362E-5 -4.2541E-4 1.226E-5 3.88E-5 5.3302E-4 6.08E-6 -0.00642546 -0.07102032 -0.00366656 -0.00132398 0.02481414 -0.00242869 0.00891657 0.02644524 0.00508023 3.7483E-4 -0.0093541 -0.00316356 1.1281E-4 0.0189375 -1.9164E-4 -4.376E-5 -0.00208617 0.0011863 1.846E-5 6.2223E-4 0.00127763 -1.1732E-4 5.9721E-4 -4.5719E-4 -6.906E-5 0.00240809 -1.8778E-4 1.698E-5 2.788E-5 2.1152E-4 -4.68E-6 2.5332E-4 1.9414E-4 1.76E-6 -1.2102E-4 0.00152402 -2.003E-5 4.372E-4 -0.16733608 -0.00420723 -0.22964748 -0.08655666 -0.00234099 -0.08448017 0.24527146 0.00638269 0.30050716 -0.27115736 -4.1666E-4 -0.13023558 0.00533155 2.0381E-4 2.4048E-4 4.8515E-4 5.511E-5 0.00143819 2.0883E-4 -1.15E-6 3.6137E-4 -0.00239693 -2.1321E-4 0.00332207 -0.01557221 -1.0602E-4 -0.01347262 9.4467E-4 1.1033E-4 -9.48E-6 -6.508E-4 2.237E-5 -6.8607E-4 -2.419E-5 1.306E-5 -4.629E-5 4.0418E-4 -4.118E-5 2.2415E-4 -7.8077E-4 -4.932E-5 -4.3111E-4 -6.497E-5 -4.103E-5 -9.0083E-4 -0.00252405 5.473E-5 0.00319699 0.28572282 0.00119775 -0.03896524 -0.00110344 1.425E-5 0.00669524 4.8038E-4 -4.2994E-4 0.00571292 -7.045E-5 1.3436E-4 -9.1498E-4 -2.3188E-4 1.953E-5 0.00604457 3.0105E-4 -9.1136E-4 0.00324059 -4.958E-5 -1.0343E-4 -0.00320272 6.0285E-4 -1.074E-5 2.6074E-4 -3.126E-5 6.79E-6 -7.5702E-4 -9.97E-6 1.08E-6 1.64E-5 -1.003E-5 3.321E-4 -0.00467963 4.059E-5 -8.513E-5 5.9875E-4 -1.62E-6 -1.4686E-4 -6.824E-5 -4.665E-5 9.692E-5 0.02552928 -0.12839943 -2.6619E-4 -0.1342608 -0.02743887 -1.342E-5 -0.01005924 0.00172689 -8.46E-6 -0.00569935 6.9583E-4 -2.362E-5 -3.6624E-4 0.00350696 1.0005E-4 -0.00141623 0.01520253 2.8997E-4 0.01266413 -4.9876E-4 -3.825E-5 6.8606E-4 7.6586E-4 -3.253E-5 4.9207E-4 -5.721E-5 -8.45E-6 5.769E-5 -0.00145823 4.911E-5 -4.0392E-4 -0.00402372 -1.8239E-4 -0.00161023 6.7677E-4 6.079E-5 0.00170237 0.00222746 1.561E-5 0.0017689 0.13703994 1.9576E-4 0.13649418 -0.00108465 -7.5486E-4 -8.797E-4 0.00152296 -2.667E-4 0.00415161 -0.00493986 4.559E-5 -9.702E-5 0.00213589 3.2535E-4 -0.00382362 -0.00136593 0.00112759 2.6915E-4 0.00198339 -4.0205E-4 2.7605E-4 4.113E-5 1.7255E-4 -8.582E-5 1.7091E-4 -5.398E-5 2.327E-5 8.954E-5 -1.4066E-4 6.584E-5 -9.008E-5 2.027E-5 1.514E-5 3.767E-4 1.3831E-4 -1.1519E-4 -6.199E-5 -1.916E-5 5.412E-5 7.022E-5 -5.797E-5 -4.936E-5 7.408E-5 -1.1531E-4 3.399E-5 0.00107768 -0.00811036 -0.00642708 0.00852144 -0.0020223 -6.2465E-4 -0.0032003 1.2529E-4 3.5698E-4 0.00131773 0.00174568 -6.2671E-4 -0.00338248 0.00742622 -0.00631924 0.00860551 8.9983E-4 0.00368464 -0.0094589 -1.2576E-4 -0.00830779 0.00231713 -4.5018E-4 5.4277E-4 -1.4358E-4 -2.349E-5 1.0394E-4 -2.1126E-4 -4.009E-5 1.1586E-4 1.443E-5 -1.3242E-4 2.0146E-4 -4.0545E-4 2.5838E-4 -7.186E-5 -4.984E-5 1.5594E-4 -2.648E-5 -5.783E-5 3.1224E-4 4.8935E-4 -1.3798E-4 -1.897E-5 0.01690883 0.00213181 0.0024645 -0.0022908 2.3474E-4 5.0555E-4 -2.2884E-4 -1.22E-4 1.821E-4 3.3181E-4 1.0039E-4 6.7595E-4 -1.298E-5 -0.00202389 0.00279484 -0.00243184 -2.1263E-4 -9.4329E-4 1.538E-4 -6.8E-5 -0.00143969 3.1728E-4 1.1174E-4 -1.1514E-4 -4.7E-6 2.877E-5 -1.8839E-4 1.2313E-4 4.0E-6 -2.521E-5 3.775E-5 -5.1813E-4 -2.21E-4 1.9837E-4 3.714E-5 7.861E-5 3.861E-5 1.7571E-4 2.557E-5 1.2945E-4 -4.121E-5 -6.576E-5 -4.939E-5 1.6155E-4 -0.00372863 0.00368834</array><array dataType="xsd:double" size="45" dictRef="x:unknown">1.95E-6 2.204E-5 -8.052E-5 4.436E-5 -3.46E-6 -2.056E-5 2.063E-5 3.64E-6 3.997E-5 3.285E-5 3.29E-6 7.519E-5 2.677E-5 -2.412E-5 -4.878E-5 -4.906E-5 -3.183E-5 -2.559E-5 -6.76E-6 -7.74E-6 -5.11E-6 4.09E-6 3.17E-6 -7.41E-6 -2.87E-6 8.65E-6 3.56E-6 -1.047E-5 1.85E-6 4.023E-5 -3.4542E-4 2.33E-6 2.0414E-4 1.7277E-4 1.162E-5 -7.215E-5 1.2976E-4 7.45E-6 -1.104E-4 -5.242E-5 -3.316E-5 1.062E-5 3.383E-5 3.627E-5 -3.21E-6</array></module> SILVERMAN'S PARADOX - IF MURPHY'S LAW CAN GO WRONG, IT WILL.<module cmlx:lineCount="3" cmlx:templateRef="jobcpu"><scalar dictRef="cc:jobtime" dataType="xsd:string">PT48798.800S</scalar><scalar dataType="xsd:string" dictRef="cc:jobdatetime.end">Sat Sep  2 15:21:31 2006</scalar><scalar dataType="xsd:string" dictRef="cc:program">Gaussian 03</scalar></module></module>
