 Entering Gaussian System, Link 0=/usr/local/Gaussian/g03/g03
 Initial command:
 /usr/local/Gaussian/g03/l1.exe /export/scratch//webmo/3295/Gau-17395.inp -scrdir=/export/scratch//webmo/3295/
 Entering Link 1 = /usr/local/Gaussian/g03/l1.exe PID=     17398.
  
 Copyright (c) 1988,1990,1992,1993,1995,1998,2003, Gaussian, Inc.
                  All Rights Reserved.
  
 This is the Gaussian(R) 03 program.  It is based on the
 the Gaussian(R) 98 system (copyright 1998, Gaussian, Inc.),
 the Gaussian(R) 94 system (copyright 1995, Gaussian, Inc.),
 the Gaussian 92(TM) system (copyright 1992, Gaussian, Inc.),
 the Gaussian 90(TM) system (copyright 1990, Gaussian, Inc.),
 the Gaussian 88(TM) system (copyright 1988, Gaussian, Inc.),
 the Gaussian 86(TM) system (copyright 1986, Carnegie Mellon
 University), and the Gaussian 82(TM) system (copyright 1983,
 Carnegie Mellon University). Gaussian is a federally registered
 trademark of Gaussian, Inc.
  
 This software contains proprietary and confidential information,
 including trade secrets, belonging to Gaussian, Inc.
  
 This software is provided under written license and may be
 used, copied, transmitted, or stored only in accord with that
 written license.
  
 The following legend is applicable only to US Government
 contracts under DFARS:
  
                    RESTRICTED RIGHTS LEGEND
  
 Use, duplication or disclosure by the US Government is subject
 to restrictions as set forth in subparagraph (c)(1)(ii) of the
 Rights in Technical Data and Computer Software clause at DFARS
 252.227-7013.
  
 Gaussian, Inc.
 Carnegie Office Park, Building 6, Pittsburgh, PA 15106 USA
  
 The following legend is applicable only to US Government
 contracts under FAR:
  
                    RESTRICTED RIGHTS LEGEND
  
 Use, reproduction and disclosure by the US Government is subject
 to restrictions as set forth in subparagraph (c) of the
 Commercial Computer Software - Restricted Rights clause at FAR
 52.227-19.
  
 Gaussian, Inc.
 Carnegie Office Park, Building 6, Pittsburgh, PA 15106 USA
  
  
 ---------------------------------------------------------------
 Warning -- This program may not be used in any manner that
 competes with the business of Gaussian, Inc. or will provide
 assistance to any competitor of Gaussian, Inc.  The licensee
 of this program is prohibited from giving any competitor of
 Gaussian, Inc. access to this program.  By using this program,
 the user acknowledges that Gaussian, Inc. is engaged in the
 business of creating and licensing software in the field of
 computational chemistry and represents and warrants to the
 licensee that it is not a competitor of Gaussian, Inc. and that
 it will not use this program in any manner prohibited above.
 ---------------------------------------------------------------
  

 Cite this work as:
 Gaussian 03, Revision B.04,
 M. J. Frisch, G. W. Trucks, H. B. Schlegel, G. E. Scuseria, 
 M. A. Robb, J. R. Cheeseman, J. A. Montgomery, Jr., T. Vreven, 
 K. N. Kudin, J. C. Burant, J. M. Millam, S. S. Iyengar, J. Tomasi, 
 V. Barone, B. Mennucci, M. Cossi, G. Scalmani, N. Rega, 
 G. A. Petersson, H. Nakatsuji, M. Hada, M. Ehara, K. Toyota, 
 R. Fukuda, J. Hasegawa, M. Ishida, T. Nakajima, Y. Honda, O. Kitao, 
 H. Nakai, M. Klene, X. Li, J. E. Knox, H. P. Hratchian, J. B. Cross, 
 C. Adamo, J. Jaramillo, R. Gomperts, R. E. Stratmann, O. Yazyev, 
 A. J. Austin, R. Cammi, C. Pomelli, J. W. Ochterski, P. Y. Ayala, 
 K. Morokuma, G. A. Voth, P. Salvador, J. J. Dannenberg, 
 V. G. Zakrzewski, S. Dapprich, A. D. Daniels, M. C. Strain, 
 O. Farkas, D. K. Malick, A. D. Rabuck, K. Raghavachari, 
 J. B. Foresman, J. V. Ortiz, Q. Cui, A. G. Baboul, S. Clifford, 
 J. Cioslowski, B. B. Stefanov, G. Liu, A. Liashenko, P. Piskorz, 
 I. Komaromi, R. L. Martin, D. J. Fox, T. Keith, M. A. Al-Laham, 
 C. Y. Peng, A. Nanayakkara, M. Challacombe, P. M. W. Gill, 
 B. Johnson, W. Chen, M. W. Wong, C. Gonzalez, and J. A. Pople, 
 Gaussian, Inc., Pittsburgh PA, 2003.
 
 ***************************************************
 Gaussian 03:  Sun64-SVR4-Unix-G03RevB.04 2-Jun-2003
                     20-Aug-2006 
 ***************************************************
 ------------------------------
 #P B3LYP/6-311+G(d,p) OPT FREQ
 ------------------------------
 1/14=-1,18=20,26=3,38=1/1,3;
 2/9=110,17=6,18=5,40=1/2;
 3/5=4,6=6,7=111,11=2,16=1,25=1,30=1,74=-5/1,2,3;
 4//1;
 5/5=2,38=5/2;
 6/7=2,8=2,9=2,10=2,28=1/1;
 7//1,2,3,16;
 1/14=-1,18=20/3(1);
 99//99;
 2/9=110/2;
 3/5=4,6=6,7=111,11=2,16=1,25=1,30=1,74=-5/1,2,3;
 4/5=5,16=3/1;
 5/5=2,38=5/2;
 7//1,2,3,16;
 1/14=-1,18=20/3(-5);
 2/9=110/2;
 6/7=2,8=2,9=2,10=2,19=2,28=1/1;
 99/9=1/99;
 Leave Link    1 at Sun Aug 20 14:04:03 2006, MaxMem=          0 cpu:       0.3
 (Enter /usr/local/Gaussian/g03/l101.exe)
 ----------------
 nitrobz/cl basis
 ----------------
 Symbolic Z-matrix:
 Charge =  0 Multiplicity = 2
 C
 C                    1    B1
 C                    2    B2       1    A1
 C                    3    B3       2    A2       1    D1       0
 C                    4    B4       3    A3       2    D2       0
 C                    1    B5       2    A4       3    D3       0
 H                    6    B6       1    A5       2    D4       0
 H                    5    B7       4    A6       3    D5       0
 H                    4    B8       3    A7       2    D6       0
 H                    3    B9       2    A8       1    D7       0
 N                    2    B10      1    A9       6    D8       0
 O                    11   B11      2    A10      1    D9       0
 O                    11   B12      2    A11      1    D10      0
 H                    1    B13      2    A12      3    D11      0
 Cl                   1    B14      2    A13      3    D12      0
       Variables:
  A10                 117.30516                  
  A11                 117.42009                  
  A12                 120.01119                  
  B1                    1.38034                  
  A13                 113.31366                  
  B2                    1.39179                  
  B3                    1.39284                  
  B4                    1.38476                  
  B5                    1.4052                   
  B6                    1.08103                  
  B7                    1.08254                  
  B8                    1.0826                   
  B10                   1.48201                  
  B9                    1.08103                  
  B11                   1.22114                  
  B12                   1.22003                  
  B13                   1.08029                  
  B14                   3.07503                  
  D10                   1.03877                  
  D11                 179.98171                  
  D12                 -64.60458                  
  D1                   -0.22828                  
  D2                    0.16772                  
  D3                   -0.44048                  
  A1                  122.15337                  
  D4                  173.50457                  
  A2                  119.13928                  
  D5                  179.89909                  
  A3                  120.09606                  
  A4                  118.47791                  
  D6                 -179.9275                   
  D7                  179.70244                  
  A5                  119.51552                  
  D8                  179.8084                   
  A6                  120.46304                  
  D9                 -179.23693                  
  A7                  119.60782                  
  A8                  119.0988                   
  A9                  118.99303                  
 
                    Isotopes and Nuclear Properties:

  Atom         1           2           3           4           5           6           7           8           9          10
 IAtWgt=          12          12          12          12          12          12           1           1           1           1
 AtmWgt=  12.0000000  12.0000000  12.0000000  12.0000000  12.0000000  12.0000000   1.0078250   1.0078250   1.0078250   1.0078250
 IAtSpn=           0           0           0           0           0           0           1           1           1           1
 AtZEff=   0.0000000   0.0000000   0.0000000   0.0000000   0.0000000   0.0000000   0.0000000   0.0000000   0.0000000   0.0000000
 AtQMom=   0.0000000   0.0000000   0.0000000   0.0000000   0.0000000   0.0000000   0.0000000   0.0000000   0.0000000   0.0000000
 AtGFac=   0.0000000   0.0000000   0.0000000   0.0000000   0.0000000   0.0000000   2.7928460   2.7928460   2.7928460   2.7928460

  Atom        11          12          13          14          15
 IAtWgt=          14          16          16           1          35
 AtmWgt=  14.0030740  15.9949146  15.9949146   1.0078250  34.9688527
 IAtSpn=           2           0           0           1           3
 AtZEff=   0.0000000   0.0000000   0.0000000   0.0000000   0.0000000
 AtQMom=   1.5600000   0.0000000   0.0000000   0.0000000  -8.2490000
 AtGFac=   0.4037610   0.0000000   0.0000000   2.7928460   0.8218740
 Leave Link  101 at Sun Aug 20 14:04:05 2006, MaxMem=    6291456 cpu:       0.2
 (Enter /usr/local/Gaussian/g03/l103.exe)

 GradGradGradGradGradGradGradGradGradGradGradGradGradGradGradGradGradGrad
 Berny optimization.
 Initialization pass.
                           ----------------------------
                           !    Initial Parameters    !
                           ! (Angstroms and Degrees)  !
 --------------------------                            --------------------------
 ! Name  Definition              Value          Derivative Info.                !
 --------------------------------------------------------------------------------
 ! R1    R(1,2)                  1.3803         estimate D2E/DX2                !
 ! R2    R(1,6)                  1.4052         estimate D2E/DX2                !
 ! R3    R(1,14)                 1.0803         estimate D2E/DX2                !
 ! R4    R(1,15)                 3.075          estimate D2E/DX2                !
 ! R5    R(2,3)                  1.3918         estimate D2E/DX2                !
 ! R6    R(2,11)                 1.482          estimate D2E/DX2                !
 ! R7    R(3,4)                  1.3928         estimate D2E/DX2                !
 ! R8    R(3,10)                 1.081          estimate D2E/DX2                !
 ! R9    R(4,5)                  1.3848         estimate D2E/DX2                !
 ! R10   R(4,9)                  1.0826         estimate D2E/DX2                !
 ! R11   R(5,6)                  1.4073         estimate D2E/DX2                !
 ! R12   R(5,8)                  1.0825         estimate D2E/DX2                !
 ! R13   R(5,15)                 3.1119         estimate D2E/DX2                !
 ! R14   R(6,7)                  1.081          estimate D2E/DX2                !
 ! R15   R(6,15)                 2.5999         estimate D2E/DX2                !
 ! R16   R(7,15)                 2.7005         estimate D2E/DX2                !
 ! R17   R(11,12)                1.2211         estimate D2E/DX2                !
 ! R18   R(11,13)                1.22           estimate D2E/DX2                !
 ! A1    A(2,1,6)              118.4779         estimate D2E/DX2                !
 ! A2    A(2,1,14)             120.0112         estimate D2E/DX2                !
 ! A3    A(2,1,15)             113.3137         estimate D2E/DX2                !
 ! A4    A(6,1,14)             121.5095         estimate D2E/DX2                !
 ! A5    A(14,1,15)             98.2402         estimate D2E/DX2                !
 ! A6    A(1,2,3)              122.1534         estimate D2E/DX2                !
 ! A7    A(1,2,11)             118.993          estimate D2E/DX2                !
 ! A8    A(3,2,11)             118.8531         estimate D2E/DX2                !
 ! A9    A(2,3,4)              119.1393         estimate D2E/DX2                !
 ! A10   A(2,3,10)             119.0988         estimate D2E/DX2                !
 ! A11   A(4,3,10)             121.7619         estimate D2E/DX2                !
 ! A12   A(3,4,5)              120.0961         estimate D2E/DX2                !
 ! A13   A(3,4,9)              119.6078         estimate D2E/DX2                !
 ! A14   A(5,4,9)              120.2961         estimate D2E/DX2                !
 ! A15   A(4,5,6)              120.2236         estimate D2E/DX2                !
 ! A16   A(4,5,8)              120.463          estimate D2E/DX2                !
 ! A17   A(4,5,15)             113.7313         estimate D2E/DX2                !
 ! A18   A(6,5,8)              119.3101         estimate D2E/DX2                !
 ! A19   A(8,5,15)              98.2984         estimate D2E/DX2                !
 ! A20   A(1,6,5)              119.8984         estimate D2E/DX2                !
 ! A21   A(1,6,7)              119.5155         estimate D2E/DX2                !
 ! A22   A(5,6,7)              120.1391         estimate D2E/DX2                !
 ! A23   A(2,11,12)            117.3052         estimate D2E/DX2                !
 ! A24   A(2,11,13)            117.4201         estimate D2E/DX2                !
 ! A25   A(12,11,13)           125.2741         estimate D2E/DX2                !
 ! A26   A(1,15,5)              46.3386         estimate D2E/DX2                !
 ! A27   A(1,15,7)              43.1917         estimate D2E/DX2                !
 ! A28   A(5,15,7)              42.9626         estimate D2E/DX2                !
 ! D1    D(6,1,2,3)             -0.4405         estimate D2E/DX2                !
 ! D2    D(6,1,2,11)           179.8084         estimate D2E/DX2                !
 ! D3    D(14,1,2,3)           179.9817         estimate D2E/DX2                !
 ! D4    D(14,1,2,11)            0.2306         estimate D2E/DX2                !
 ! D5    D(15,1,2,3)           -64.6046         estimate D2E/DX2                !
 ! D6    D(15,1,2,11)          115.6443         estimate D2E/DX2                !
 ! D7    D(2,1,6,5)              1.1642         estimate D2E/DX2                !
 ! D8    D(2,1,6,7)            173.5046         estimate D2E/DX2                !
 ! D9    D(14,1,6,5)          -179.2646         estimate D2E/DX2                !
 ! D10   D(14,1,6,7)            -6.9242         estimate D2E/DX2                !
 ! D11   D(2,1,15,5)            77.8712         estimate D2E/DX2                !
 ! D12   D(2,1,15,7)           140.3946         estimate D2E/DX2                !
 ! D13   D(14,1,15,5)         -154.3417         estimate D2E/DX2                !
 ! D14   D(14,1,15,7)          -91.8183         estimate D2E/DX2                !
 ! D15   D(1,2,3,4)             -0.2283         estimate D2E/DX2                !
 ! D16   D(1,2,3,10)           179.7024         estimate D2E/DX2                !
 ! D17   D(11,2,3,4)           179.5232         estimate D2E/DX2                !
 ! D18   D(11,2,3,10)           -0.5461         estimate D2E/DX2                !
 ! D19   D(1,2,11,12)         -179.2369         estimate D2E/DX2                !
 ! D20   D(1,2,11,13)            1.0388         estimate D2E/DX2                !
 ! D21   D(3,2,11,12)            1.0036         estimate D2E/DX2                !
 ! D22   D(3,2,11,13)         -178.7207         estimate D2E/DX2                !
 ! D23   D(2,3,4,5)              0.1677         estimate D2E/DX2                !
 ! D24   D(2,3,4,9)           -179.9275         estimate D2E/DX2                !
 ! D25   D(10,3,4,5)          -179.7611         estimate D2E/DX2                !
 ! D26   D(10,3,4,9)             0.1437         estimate D2E/DX2                !
 ! D27   D(3,4,5,6)              0.5628         estimate D2E/DX2                !
 ! D28   D(3,4,5,8)            179.8991         estimate D2E/DX2                !
 ! D29   D(3,4,5,15)            63.7005         estimate D2E/DX2                !
 ! D30   D(9,4,5,6)           -179.3413         estimate D2E/DX2                !
 ! D31   D(9,4,5,8)             -0.005          estimate D2E/DX2                !
 ! D32   D(9,4,5,15)          -116.2036         estimate D2E/DX2                !
 ! D33   D(4,5,6,1)             -1.2399         estimate D2E/DX2                !
 ! D34   D(4,5,6,7)           -173.532          estimate D2E/DX2                !
 ! D35   D(8,5,6,1)            179.4162         estimate D2E/DX2                !
 ! D36   D(8,5,6,7)              7.1241         estimate D2E/DX2                !
 ! D37   D(4,5,15,1)           -78.9787         estimate D2E/DX2                !
 ! D38   D(4,5,15,7)          -141.978          estimate D2E/DX2                !
 ! D39   D(8,5,15,1)           152.4277         estimate D2E/DX2                !
 ! D40   D(8,5,15,7)            89.4284         estimate D2E/DX2                !
 --------------------------------------------------------------------------------
 Trust Radius=3.00D-01 FncErr=1.00D-07 GrdErr=1.00D-06
 Number of steps in this run=  96 maximum allowed number of steps= 100.
 GradGradGradGradGradGradGradGradGradGradGradGradGradGradGradGradGradGrad

 Leave Link  103 at Sun Aug 20 14:04:06 2006, MaxMem=    6291456 cpu:       0.0
 (Enter /usr/local/Gaussian/g03/l202.exe)
                          Input orientation:                          
 ---------------------------------------------------------------------
 Center     Atomic     Atomic              Coordinates (Angstroms)
 Number     Number      Type              X           Y           Z
 ---------------------------------------------------------------------
    1          6             0        0.000000    0.000000    0.000000
    2          6             0        0.000000    0.000000    1.380341
    3          6             0        1.178327    0.000000    2.121035
    4          6             0        2.399959   -0.004847    1.452013
    5          6             0        2.433523   -0.006081    0.067665
    6          6             0        1.235136    0.009496   -0.670028
    7          1             0        1.258409   -0.096748   -1.745570
    8          1             0        3.379651   -0.008198   -0.458383
    9          1             0        3.321190   -0.006073    2.020645
   10          1             0        1.120729    0.004906    3.200514
   11          7             0       -1.296270   -0.005631    2.098676
   12          8             0       -1.260411    0.008976    3.319200
   13          8             0       -2.312436   -0.029678    1.423908
   14          1             0       -0.935451   -0.000299   -0.540327
   15         17             0        1.211093    2.551081   -1.216988
 ---------------------------------------------------------------------
                    Distance matrix (angstroms):
                    1          2          3          4          5
     1  C    0.000000
     2  C    1.380341   0.000000
     3  C    2.426364   1.391791   0.000000
     4  C    2.805025   2.401033   1.392838   0.000000
     5  C    2.434471   2.764994   2.406633   1.384755   0.000000
     6  C    1.405201   2.393672   2.791657   2.420759   1.407325
     7  H    2.154059   3.371094   3.868644   3.396486   2.162622
     8  H    3.410604   3.847468   3.391060   2.146956   1.082538
     9  H    3.887589   3.382356   2.145222   1.082595   2.145247
    10  H    3.391069   2.137542   1.081026   2.166513   3.396806
    11  N    2.466736   1.482010   2.474704   3.752370   4.246924
    12  O    3.550466   2.312551   2.717191   4.109123   4.921165
    13  O    2.715834   2.313037   3.559817   4.712544   4.935998
    14  H    1.080288   2.136360   3.398662   3.885151   3.423401
    15  Cl   3.075032   3.836780   4.201367   3.881976   3.111872
                    6          7          8          9         10
     6  C    0.000000
     7  H    1.081028   0.000000
     8  H    2.155006   2.482813   0.000000
     9  H    3.404642   4.295075   2.479718   0.000000
    10  H    3.872235   4.949044   4.300049   2.496846   0.000000
    11  N    3.751528   4.616591   5.329427   4.618119   2.656321
    12  O    4.705497   5.657520   5.983361   4.762095   2.384100
    13  O    4.119632   4.775041   5.995276   5.665192   3.865766
    14  H    2.174481   2.504982   4.315887   4.967656   4.268699
    15  Cl   2.599885   2.700488   3.439191   4.633986   5.099559
                   11         12         13         14         15
    11  N    0.000000
    12  O    1.221138   0.000000
    13  O    1.220034   2.168037   0.000000
    14  H    2.663560   3.873194   2.398993   0.000000
    15  Cl   4.880294   5.757399   5.103910   3.402214   0.000000
 Stoichiometry    C6H5ClNO2(2)
 Framework group  C1[X(C6H5ClNO2)]
 Deg. of freedom    39
 Full point group                 C1      NOp   1
 Largest Abelian subgroup         C1      NOp   1
 Largest concise Abelian subgroup C1      NOp   1
                         Standard orientation:                         
 ---------------------------------------------------------------------
 Center     Atomic     Atomic              Coordinates (Angstroms)
 Number     Number      Type              X           Y           Z
 ---------------------------------------------------------------------
    1          6             0        0.062501   -0.439417    0.908797
    2          6             0       -0.896492    0.198841    0.148336
    3          6             0       -0.676635    1.447794   -0.425128
    4          6             0        0.547875    2.080357   -0.224039
    5          6             0        1.530130    1.466611    0.534933
    6          6             0        1.301275    0.196746    1.096745
    7          1             0        2.024883   -0.235828    1.773422
    8          1             0        2.484566    1.952141    0.693680
    9          1             0        0.726583    3.052513   -0.665614
   10          1             0       -1.460744    1.900464   -1.015788
   11          7             0       -2.205545   -0.463718   -0.060824
   12          8             0       -3.025912    0.121787   -0.750288
   13          8             0       -2.378759   -1.546838    0.473341
   14          1             0       -0.145283   -1.408751    1.338028
   15         17             0        2.578486   -1.195276   -0.689426
 ---------------------------------------------------------------------
 Rotational constants (GHZ):      1.7855426      0.7380817      0.6056523
 Leave Link  202 at Sun Aug 20 14:04:08 2006, MaxMem=    6291456 cpu:       0.5
 (Enter /usr/local/Gaussian/g03/l301.exe)
 Standard basis: 6-311+G(d,p) (5D, 7F)
 There are   258 symmetry adapted basis functions of A   symmetry.
 Integral buffers will be    131072 words long.
 Raffenetti 2 integral format.
 Two-electron integral symmetry is turned on.
   258 basis functions,   417 primitive gaussians,   268 cartesian basis functions
    41 alpha electrons       40 beta electrons
       nuclear repulsion energy       560.7342503266 Hartrees.
 IExCor= 402 DFT=T Ex=B+HF Corr=LYP ExCW=0 ScaHFX=  0.200000
 ScaDFX=  0.800000  0.720000  1.000000  0.810000
 IRadAn=      0 IRanWt=     -1 IRanGd=            0 ICorTp=0
 NAtoms=   15 NActive=   15 NUniq=   15 SFac= 1.00D+00 NAtFMM=   60 Big=F
 Leave Link  301 at Sun Aug 20 14:04:11 2006, MaxMem=    6291456 cpu:       0.1
 (Enter /usr/local/Gaussian/g03/l302.exe)
 NPDir=0 NMtPBC=     1 NCelOv=     1 NCel=       1 NClECP=     1 NCelD=      1
         NCelK=      1 NCelE2=     1 NClLst=     1 CellRange=     0.0.
 One-electron integrals computed using PRISM.
 NBasis=   258 RedAO= T  NBF=   258
 NBsUse=   258 1.00D-06 NBFU=   258
 Precomputing XC quadrature grid using
 IXCGrd= 2 IRadAn=           0 IRanWt=          -1 IRanGd=           0.
 NRdTot=     962 NPtTot=      121932 NUsed=      128727 NTot=      128759
 NSgBfM=   267   267   267   267.
 Leave Link  302 at Sun Aug 20 14:04:29 2006, MaxMem=    6291456 cpu:       3.1
 (Enter /usr/local/Gaussian/g03/l303.exe)
 DipDrv:  MaxL=1.
 Leave Link  303 at Sun Aug 20 14:04:31 2006, MaxMem=    6291456 cpu:       0.2
 (Enter /usr/local/Gaussian/g03/l401.exe)
 Harris functional with IExCor=  402 diagonalized for initial guess.
 ExpMin= 4.38D-02 ExpMax= 1.06D+05 ExpMxC= 3.62D+03 IAcc=2 IRadAn=         4 AccDes= 0.00D+00
 HarFok:  IExCor= 402 AccDes= 0.00D+00 IRadAn=         4 IDoV=1
 ScaDFX=  1.000000  1.000000  1.000000  1.000000
 Harris En= -897.168830014190    
 Initial guess orbital symmetries:
 Alpha Orbitals:
       Occupied  (A) (A) (A) (A) (A) (A) (A) (A) (A) (A) (A) (A)
                 (A) (A) (A) (A) (A) (A) (A) (A) (A) (A) (A) (A)
                 (A) (A) (A) (A) (A) (A) (A) (A) (A) (A) (A) (A)
                 (A) (A) (A) (A) (A)
       Virtual   (A) (A) (A) (A) (A) (A) (A) (A) (A) (A) (A) (A)
                 (A) (A) (A) (A) (A) (A) (A) (A) (A) (A) (A) (A)
                 (A) (A) (A) (A) (A) (A) (A) (A) (A) (A) (A) (A)
                 (A) (A) (A) (A) (A) (A) (A) (A) (A) (A) (A) (A)
                 (A) (A) (A) (A) (A) (A) (A) (A) (A) (A) (A) (A)
                 (A) (A) (A) (A) (A) (A) (A) (A) (A) (A) (A) (A)
                 (A) (A) (A) (A) (A) (A) (A) (A) (A) (A) (A) (A)
                 (A) (A) (A) (A) (A) (A) (A) (A) (A) (A) (A) (A)
                 (A) (A) (A) (A) (A) (A) (A) (A) (A) (A) (A) (A)
                 (A) (A) (A) (A) (A) (A) (A) (A) (A) (A) (A) (A)
                 (A) (A) (A) (A) (A) (A) (A) (A) (A) (A) (A) (A)
                 (A) (A) (A) (A) (A) (A) (A) (A) (A) (A) (A) (A)
                 (A) (A) (A) (A) (A) (A) (A) (A) (A) (A) (A) (A)
                 (A) (A) (A) (A) (A) (A) (A) (A) (A) (A) (A) (A)
                 (A) (A) (A) (A) (A) (A) (A) (A) (A) (A) (A) (A)
                 (A) (A) (A) (A) (A) (A) (A) (A) (A) (A) (A) (A)
                 (A) (A) (A) (A) (A) (A) (A) (A) (A) (A) (A) (A)
                 (A) (A) (A) (A) (A) (A) (A) (A) (A) (A) (A) (A)
                 (A)
 Beta  Orbitals:
       Occupied  (A) (A) (A) (A) (A) (A) (A) (A) (A) (A) (A) (A)
                 (A) (A) (A) (A) (A) (A) (A) (A) (A) (A) (A) (A)
                 (A) (A) (A) (A) (A) (A) (A) (A) (A) (A) (A) (A)
                 (A) (A) (A) (A)
       Virtual   (A) (A) (A) (A) (A) (A) (A) (A) (A) (A) (A) (A)
                 (A) (A) (A) (A) (A) (A) (A) (A) (A) (A) (A) (A)
                 (A) (A) (A) (A) (A) (A) (A) (A) (A) (A) (A) (A)
                 (A) (A) (A) (A) (A) (A) (A) (A) (A) (A) (A) (A)
                 (A) (A) (A) (A) (A) (A) (A) (A) (A) (A) (A) (A)
                 (A) (A) (A) (A) (A) (A) (A) (A) (A) (A) (A) (A)
                 (A) (A) (A) (A) (A) (A) (A) (A) (A) (A) (A) (A)
                 (A) (A) (A) (A) (A) (A) (A) (A) (A) (A) (A) (A)
                 (A) (A) (A) (A) (A) (A) (A) (A) (A) (A) (A) (A)
                 (A) (A) (A) (A) (A) (A) (A) (A) (A) (A) (A) (A)
                 (A) (A) (A) (A) (A) (A) (A) (A) (A) (A) (A) (A)
                 (A) (A) (A) (A) (A) (A) (A) (A) (A) (A) (A) (A)
                 (A) (A) (A) (A) (A) (A) (A) (A) (A) (A) (A) (A)
                 (A) (A) (A) (A) (A) (A) (A) (A) (A) (A) (A) (A)
                 (A) (A) (A) (A) (A) (A) (A) (A) (A) (A) (A) (A)
                 (A) (A) (A) (A) (A) (A) (A) (A) (A) (A) (A) (A)
                 (A) (A) (A) (A) (A) (A) (A) (A) (A) (A) (A) (A)
                 (A) (A) (A) (A) (A) (A) (A) (A) (A) (A) (A) (A)
                 (A) (A)
 The electronic state of the initial guess is 2-A.
 <S**2> of initial guess= 0.7500
 Leave Link  401 at Sun Aug 20 14:08:40 2006, MaxMem=    6291456 cpu:      40.0
 (Enter /usr/local/Gaussian/g03/l502.exe)
 UHF open shell SCF:
 Requested convergence on RMS density matrix=1.00D-08 within 128 cycles.
 Requested convergence on MAX density matrix=1.00D-06.
 Requested convergence on             energy=1.00D-06.
 No special actions if energy rises.
 Using DIIS extrapolation, IDIIS=  1040.
 Integral symmetry usage will be decided dynamically.
       128726 words used for storage of precomputed grid.
 IEnd=    400407 IEndB=    400407 NGot=   6291456 MDV=   5979782
 LenX=   5979782
 Fock matrices will be formed incrementally for  20 cycles.

 Cycle   1  Pass 1  IDiag  1:
 Petite list used in FoFDir.
 MinBra= 0 MaxBra= 2 Meth= 1.
 IRaf=       0 NMat=   1 IRICut=       1 DoRegI=T DoRafI=F ISym2E= 1 JSym2E=1.
 E= -896.744400771759    
 DIIS: error= 3.90D-02 at cycle   1 NSaved=   1.
 NSaved= 1 IEnMin= 1 EnMin= -896.744400771759     IErMin= 1 ErrMin= 3.90D-02
 ErrMax= 3.90D-02 EMaxC= 1.00D-01 BMatC= 1.59D+00 BMatP= 1.59D+00
 IDIUse=3 WtCom= 6.10D-01 WtEn= 3.90D-01
 Coeff-Com:  0.100D+01
 Coeff-En:   0.100D+01
 Coeff:      0.100D+01
 Gap=     0.203 Goal=   None    Shift=    0.000
 Gap=     0.125 Goal=   None    Shift=    0.000
 GapD=    0.125 DampG=1.000 DampE=0.500 DampFc=0.5000 IDamp=-1.
 Damping current iteration by 5.00D-01
 RMSDP=1.56D-02 MaxDP=6.22D-01              OVMax= 3.80D-01

 Cycle   2  Pass 1  IDiag  1:
 RMSU=  7.40D-03    CP:  1.07D+00
 E= -896.814878990537     Delta-E=       -0.070478218779 Rises=F Damp=T
 DIIS: error= 1.75D-02 at cycle   2 NSaved=   2.
 NSaved= 2 IEnMin= 2 EnMin= -896.814878990537     IErMin= 2 ErrMin= 1.75D-02
 ErrMax= 1.75D-02 EMaxC= 1.00D-01 BMatC= 2.69D-01 BMatP= 1.59D+00
 IDIUse=3 WtCom= 8.25D-01 WtEn= 1.75D-01
 Coeff-Com:  0.239D+00 0.761D+00
 Coeff-En:   0.385D+00 0.615D+00
 Coeff:      0.265D+00 0.735D+00
 Gap=     0.180 Goal=   None    Shift=    0.000
 Gap=     0.103 Goal=   None    Shift=    0.000
 RMSDP=5.89D-03 MaxDP=3.34D-01 DE=-7.05D-02 OVMax= 3.51D-01

 Cycle   3  Pass 1  IDiag  1:
 RMSU=  5.71D-03    CP:  1.06D+00  8.16D-01
 E= -897.037472221803     Delta-E=       -0.222593231266 Rises=F Damp=F
 DIIS: error= 6.85D-03 at cycle   3 NSaved=   3.
 NSaved= 3 IEnMin= 3 EnMin= -897.037472221803     IErMin= 3 ErrMin= 6.85D-03
 ErrMax= 6.85D-03 EMaxC= 1.00D-01 BMatC= 6.27D-02 BMatP= 2.69D-01
 IDIUse=3 WtCom= 9.31D-01 WtEn= 6.85D-02
 Coeff-Com:  0.582D-01 0.326D+00 0.616D+00
 Coeff-En:   0.000D+00 0.000D+00 0.100D+01
 Coeff:      0.542D-01 0.303D+00 0.643D+00
 Gap=     0.171 Goal=   None    Shift=    0.000
 Gap=     0.093 Goal=   None    Shift=    0.000
 RMSDP=2.45D-03 MaxDP=1.29D-01 DE=-2.23D-01 OVMax= 6.55D-02

 Cycle   4  Pass 1  IDiag  1:
 RMSU=  2.02D-03    CP:  1.08D+00  8.60D-01  8.13D-01
 E= -897.048886847788     Delta-E=       -0.011414625984 Rises=F Damp=F
 DIIS: error= 2.99D-03 at cycle   4 NSaved=   4.
 NSaved= 4 IEnMin= 4 EnMin= -897.048886847788     IErMin= 4 ErrMin= 2.99D-03
 ErrMax= 2.99D-03 EMaxC= 1.00D-01 BMatC= 1.33D-02 BMatP= 6.27D-02
 IDIUse=3 WtCom= 9.70D-01 WtEn= 2.99D-02
 Coeff-Com:  0.137D-01 0.868D-01 0.344D+00 0.555D+00
 Coeff-En:   0.000D+00 0.000D+00 0.179D+00 0.821D+00
 Coeff:      0.133D-01 0.842D-01 0.339D+00 0.563D+00
 Gap=     0.170 Goal=   None    Shift=    0.000
 Gap=     0.092 Goal=   None    Shift=    0.000
 RMSDP=1.91D-03 MaxDP=1.07D-01 DE=-1.14D-02 OVMax= 2.40D-02

 Cycle   5  Pass 1  IDiag  1:
 RMSU=  9.70D-04    CP:  1.05D+00  8.17D-01  7.22D-01  4.22D-01
 E= -897.051833992482     Delta-E=       -0.002947144694 Rises=F Damp=F
 DIIS: error= 1.18D-03 at cycle   5 NSaved=   5.
 NSaved= 5 IEnMin= 5 EnMin= -897.051833992482     IErMin= 5 ErrMin= 1.18D-03
 ErrMax= 1.18D-03 EMaxC= 1.00D-01 BMatC= 1.90D-03 BMatP= 1.33D-02
 IDIUse=3 WtCom= 9.88D-01 WtEn= 1.18D-02
 Coeff-Com:  0.206D-02 0.223D-01 0.149D+00 0.343D+00 0.484D+00
 Coeff-En:   0.000D+00 0.000D+00 0.000D+00 0.827D-01 0.917D+00
 Coeff:      0.203D-02 0.220D-01 0.147D+00 0.340D+00 0.489D+00
 Gap=     0.169 Goal=   None    Shift=    0.000
 Gap=     0.093 Goal=   None    Shift=    0.000
 RMSDP=3.90D-04 MaxDP=2.63D-02 DE=-2.95D-03 OVMax= 1.29D-02

 Cycle   6  Pass 1  IDiag  1:
 RMSU=  2.22D-04    CP:  1.06D+00  8.21D-01  7.28D-01  5.39D-01  8.11D-01
 E= -897.052284134426     Delta-E=       -0.000450141944 Rises=F Damp=F
 DIIS: error= 6.39D-04 at cycle   6 NSaved=   6.
 NSaved= 6 IEnMin= 6 EnMin= -897.052284134426     IErMin= 6 ErrMin= 6.39D-04
 ErrMax= 6.39D-04 EMaxC= 1.00D-01 BMatC= 2.58D-04 BMatP= 1.90D-03
 IDIUse=3 WtCom= 9.94D-01 WtEn= 6.39D-03
 Coeff-Com: -0.924D-03 0.164D-02 0.426D-01 0.132D+00 0.304D+00 0.520D+00
 Coeff-En:   0.000D+00 0.000D+00 0.000D+00 0.000D+00 0.629D-01 0.937D+00
 Coeff:     -0.919D-03 0.163D-02 0.423D-01 0.131D+00 0.303D+00 0.523D+00
 Gap=     0.170 Goal=   None    Shift=    0.000
 Gap=     0.094 Goal=   None    Shift=    0.000
 RMSDP=1.43D-04 MaxDP=1.33D-02 DE=-4.50D-04 OVMax= 4.85D-03

 Cycle   7  Pass 1  IDiag  1:
 RMSU=  8.27D-05    CP:  1.06D+00  8.21D-01  7.35D-01  5.59D-01  8.24D-01
                    CP:  5.93D-01
 E= -897.052325045050     Delta-E=       -0.000040910624 Rises=F Damp=F
 DIIS: error= 5.19D-04 at cycle   7 NSaved=   7.
 NSaved= 7 IEnMin= 7 EnMin= -897.052325045050     IErMin= 7 ErrMin= 5.19D-04
 ErrMax= 5.19D-04 EMaxC= 1.00D-01 BMatC= 1.17D-04 BMatP= 2.58D-04
 IDIUse=3 WtCom= 9.95D-01 WtEn= 5.19D-03
 Coeff-Com: -0.108D-02-0.218D-02 0.849D-02 0.462D-01 0.158D+00 0.413D+00
 Coeff-Com:  0.378D+00
 Coeff-En:   0.000D+00 0.000D+00 0.000D+00 0.000D+00 0.000D+00 0.248D+00
 Coeff-En:   0.752D+00
 Coeff:     -0.107D-02-0.216D-02 0.845D-02 0.459D-01 0.157D+00 0.412D+00
 Coeff:      0.380D+00
 Gap=     0.170 Goal=   None    Shift=    0.000
 Gap=     0.094 Goal=   None    Shift=    0.000
 RMSDP=5.09D-05 MaxDP=2.65D-03 DE=-4.09D-05 OVMax= 2.87D-03

 Cycle   8  Pass 1  IDiag  1:
 RMSU=  4.57D-05    CP:  1.06D+00  8.21D-01  7.33D-01  5.58D-01  8.38D-01
                    CP:  5.99D-01  8.47D-01
 E= -897.052348073425     Delta-E=       -0.000023028375 Rises=F Damp=F
 DIIS: error= 1.25D-04 at cycle   8 NSaved=   8.
 NSaved= 8 IEnMin= 8 EnMin= -897.052348073425     IErMin= 8 ErrMin= 1.25D-04
 ErrMax= 1.25D-04 EMaxC= 1.00D-01 BMatC= 1.13D-05 BMatP= 1.17D-04
 IDIUse=3 WtCom= 9.99D-01 WtEn= 1.25D-03
 Coeff-Com: -0.391D-03-0.135D-02-0.661D-02-0.784D-02 0.127D-01 0.993D-01
 Coeff-Com:  0.239D+00 0.665D+00
 Coeff-En:   0.000D+00 0.000D+00 0.000D+00 0.000D+00 0.000D+00 0.000D+00
 Coeff-En:   0.337D-01 0.966D+00
 Coeff:     -0.390D-03-0.135D-02-0.660D-02-0.783D-02 0.127D-01 0.991D-01
 Coeff:      0.239D+00 0.665D+00
 Gap=     0.170 Goal=   None    Shift=    0.000
 Gap=     0.094 Goal=   None    Shift=    0.000
 RMSDP=2.73D-05 MaxDP=1.10D-03 DE=-2.30D-05 OVMax= 1.55D-03

 Cycle   9  Pass 1  IDiag  1:
 RMSU=  2.12D-05    CP:  1.06D+00  8.21D-01  7.31D-01  5.59D-01  8.42D-01
                    CP:  6.25D-01  9.54D-01  9.14D-01
 E= -897.052352761360     Delta-E=       -0.000004687935 Rises=F Damp=F
 DIIS: error= 8.47D-05 at cycle   9 NSaved=   9.
 NSaved= 9 IEnMin= 9 EnMin= -897.052352761360     IErMin= 9 ErrMin= 8.47D-05
 ErrMax= 8.47D-05 EMaxC= 1.00D-01 BMatC= 3.11D-06 BMatP= 1.13D-05
 IDIUse=1 WtCom= 1.00D+00 WtEn= 0.00D+00
 Coeff-Com:  0.331D-04-0.267D-03-0.707D-02-0.201D-01-0.443D-01-0.877D-01
 Coeff-Com:  0.347D-02 0.393D+00 0.762D+00
 Coeff:      0.331D-04-0.267D-03-0.707D-02-0.201D-01-0.443D-01-0.877D-01
 Coeff:      0.347D-02 0.393D+00 0.762D+00
 Gap=     0.170 Goal=   None    Shift=    0.000
 Gap=     0.094 Goal=   None    Shift=    0.000
 RMSDP=2.36D-05 MaxDP=1.39D-03 DE=-4.69D-06 OVMax= 1.04D-03

 Cycle  10  Pass 1  IDiag  1:
 RMSU=  1.06D-05    CP:  1.06D+00  8.22D-01  7.29D-01  5.60D-01  8.57D-01
                    CP:  6.20D-01  1.02D+00  1.04D+00  9.96D-01
 E= -897.052355055086     Delta-E=       -0.000002293726 Rises=F Damp=F
 DIIS: error= 3.80D-05 at cycle  10 NSaved=  10.
 NSaved=10 IEnMin=10 EnMin= -897.052355055086     IErMin=10 ErrMin= 3.80D-05
 ErrMax= 3.80D-05 EMaxC= 1.00D-01 BMatC= 5.16D-07 BMatP= 3.11D-06
 IDIUse=1 WtCom= 1.00D+00 WtEn= 0.00D+00
 Coeff-Com:  0.141D-03 0.430D-03-0.273D-03-0.461D-02-0.181D-01-0.593D-01
 Coeff-Com: -0.660D-01-0.517D-01 0.242D+00 0.957D+00
 Coeff:      0.141D-03 0.430D-03-0.273D-03-0.461D-02-0.181D-01-0.593D-01
 Coeff:     -0.660D-01-0.517D-01 0.242D+00 0.957D+00
 Gap=     0.170 Goal=   None    Shift=    0.000
 Gap=     0.094 Goal=   None    Shift=    0.000
 RMSDP=1.27D-05 MaxDP=6.64D-04 DE=-2.29D-06 OVMax= 6.78D-04

 Cycle  11  Pass 1  IDiag  1:
 RMSU=  7.24D-06    CP:  1.06D+00  8.22D-01  7.30D-01  5.61D-01  8.53D-01
                    CP:  6.09D-01  1.07D+00  1.12D+00  1.08D+00  1.09D+00
 E= -897.052355760834     Delta-E=       -0.000000705748 Rises=F Damp=F
 DIIS: error= 2.49D-05 at cycle  11 NSaved=  11.
 NSaved=11 IEnMin=11 EnMin= -897.052355760834     IErMin=11 ErrMin= 2.49D-05
 ErrMax= 2.49D-05 EMaxC= 1.00D-01 BMatC= 2.53D-07 BMatP= 5.16D-07
 IDIUse=1 WtCom= 1.00D+00 WtEn= 0.00D+00
 Coeff-Com:  0.772D-04 0.252D-03 0.186D-02 0.290D-02 0.225D-02-0.762D-02
 Coeff-Com: -0.431D-01-0.160D+00-0.630D-01 0.553D+00 0.713D+00
 Coeff:      0.772D-04 0.252D-03 0.186D-02 0.290D-02 0.225D-02-0.762D-02
 Coeff:     -0.431D-01-0.160D+00-0.630D-01 0.553D+00 0.713D+00
 Gap=     0.170 Goal=   None    Shift=    0.000
 Gap=     0.094 Goal=   None    Shift=    0.000
 RMSDP=7.44D-06 MaxDP=5.37D-04 DE=-7.06D-07 OVMax= 4.80D-04

 Cycle  12  Pass 1  IDiag  1:
 RMSU=  5.62D-06    CP:  1.06D+00  8.21D-01  7.29D-01  5.61D-01  8.54D-01
                    CP:  6.11D-01  1.06D+00  1.14D+00  1.15D+00  1.26D+00
                    CP:  1.07D+00
 E= -897.052355961307     Delta-E=       -0.000000200473 Rises=F Damp=F
 DIIS: error= 1.21D-05 at cycle  12 NSaved=  12.
 NSaved=12 IEnMin=12 EnMin= -897.052355961307     IErMin=12 ErrMin= 1.21D-05
 ErrMax= 1.21D-05 EMaxC= 1.00D-01 BMatC= 7.28D-08 BMatP= 2.53D-07
 IDIUse=1 WtCom= 1.00D+00 WtEn= 0.00D+00
 Coeff-Com:  0.598D-05-0.135D-04 0.109D-02 0.275D-02 0.693D-02 0.174D-01
 Coeff-Com: -0.252D-03-0.691D-01-0.838D-01-0.757D-01 0.399D+00 0.801D+00
 Coeff:      0.598D-05-0.135D-04 0.109D-02 0.275D-02 0.693D-02 0.174D-01
 Coeff:     -0.252D-03-0.691D-01-0.838D-01-0.757D-01 0.399D+00 0.801D+00
 Gap=     0.170 Goal=   None    Shift=    0.000
 Gap=     0.094 Goal=   None    Shift=    0.000
 RMSDP=4.06D-06 MaxDP=2.77D-04 DE=-2.00D-07 OVMax= 2.28D-04

 Cycle  13  Pass 1  IDiag  1:
 RMSU=  2.32D-06    CP:  1.06D+00  8.22D-01  7.29D-01  5.60D-01  8.54D-01
                    CP:  6.14D-01  1.05D+00  1.12D+00  1.19D+00  1.43D+00
                    CP:  1.25D+00  8.48D-01
 E= -897.052356010892     Delta-E=       -0.000000049585 Rises=F Damp=F
 DIIS: error= 2.68D-06 at cycle  13 NSaved=  13.
 NSaved=13 IEnMin=13 EnMin= -897.052356010892     IErMin=13 ErrMin= 2.68D-06
 ErrMax= 2.68D-06 EMaxC= 1.00D-01 BMatC= 9.35D-09 BMatP= 7.28D-08
 IDIUse=1 WtCom= 1.00D+00 WtEn= 0.00D+00
 Coeff-Com: -0.392D-05-0.509D-04 0.355D-03 0.111D-02 0.340D-02 0.104D-01
 Coeff-Com:  0.491D-02-0.172D-01-0.274D-01-0.119D+00 0.104D+00 0.371D+00
 Coeff-Com:  0.669D+00
 Coeff:     -0.392D-05-0.509D-04 0.355D-03 0.111D-02 0.340D-02 0.104D-01
 Coeff:      0.491D-02-0.172D-01-0.274D-01-0.119D+00 0.104D+00 0.371D+00
 Coeff:      0.669D+00
 Gap=     0.170 Goal=   None    Shift=    0.000
 Gap=     0.094 Goal=   None    Shift=    0.000
 RMSDP=2.15D-06 MaxDP=1.99D-04 DE=-4.96D-08 OVMax= 9.36D-05

 Cycle  14  Pass 1  IDiag  1:
 RMSU=  7.75D-07    CP:  1.06D+00  8.22D-01  7.30D-01  5.60D-01  8.54D-01
                    CP:  6.15D-01  1.05D+00  1.11D+00  1.16D+00  1.43D+00
                    CP:  1.41D+00  1.01D+00  9.18D-01
 E= -897.052356016126     Delta-E=       -0.000000005233 Rises=F Damp=F
 DIIS: error= 1.28D-06 at cycle  14 NSaved=  14.
 NSaved=14 IEnMin=14 EnMin= -897.052356016126     IErMin=14 ErrMin= 1.28D-06
 ErrMax= 1.28D-06 EMaxC= 1.00D-01 BMatC= 1.62D-09 BMatP= 9.35D-09
 IDIUse=1 WtCom= 1.00D+00 WtEn= 0.00D+00
 Coeff-Com:  0.150D-05-0.236D-04-0.157D-04 0.356D-04 0.277D-03 0.155D-02
 Coeff-Com:  0.145D-02 0.125D-02 0.485D-02-0.354D-01-0.171D-01 0.210D-01
 Coeff-Com:  0.297D+00 0.725D+00
 Coeff:      0.150D-05-0.236D-04-0.157D-04 0.356D-04 0.277D-03 0.155D-02
 Coeff:      0.145D-02 0.125D-02 0.485D-02-0.354D-01-0.171D-01 0.210D-01
 Coeff:      0.297D+00 0.725D+00
 Gap=     0.170 Goal=   None    Shift=    0.000
 Gap=     0.094 Goal=   None    Shift=    0.000
 RMSDP=7.71D-07 MaxDP=3.80D-05 DE=-5.23D-09 OVMax= 6.36D-05

 Cycle  15  Pass 1  IDiag  1:
 RMSU=  3.89D-07    CP:  1.06D+00  8.22D-01  7.30D-01  5.60D-01  8.53D-01
                    CP:  6.14D-01  1.05D+00  1.12D+00  1.16D+00  1.42D+00
                    CP:  1.44D+00  1.05D+00  1.02D+00  1.17D+00
 E= -897.052356017453     Delta-E=       -0.000000001327 Rises=F Damp=F
 DIIS: error= 9.34D-07 at cycle  15 NSaved=  15.
 NSaved=15 IEnMin=15 EnMin= -897.052356017453     IErMin=15 ErrMin= 9.34D-07
 ErrMax= 9.34D-07 EMaxC= 1.00D-01 BMatC= 4.62D-10 BMatP= 1.62D-09
 IDIUse=1 WtCom= 1.00D+00 WtEn= 0.00D+00
 Coeff-Com:  0.159D-05-0.235D-05-0.770D-04-0.196D-03-0.495D-03-0.975D-03
 Coeff-Com:  0.202D-03 0.497D-02 0.838D-02 0.954D-03-0.341D-01-0.639D-01
 Coeff-Com:  0.226D-01 0.363D+00 0.700D+00
 Coeff:      0.159D-05-0.235D-05-0.770D-04-0.196D-03-0.495D-03-0.975D-03
 Coeff:      0.202D-03 0.497D-02 0.838D-02 0.954D-03-0.341D-01-0.639D-01
 Coeff:      0.226D-01 0.363D+00 0.700D+00
 Gap=     0.170 Goal=   None    Shift=    0.000
 Gap=     0.094 Goal=   None    Shift=    0.000
 RMSDP=4.05D-07 MaxDP=2.16D-05 DE=-1.33D-09 OVMax= 4.94D-05

 Cycle  16  Pass 1  IDiag  1:
 RMSU=  1.82D-07    CP:  1.06D+00  8.22D-01  7.30D-01  5.60D-01  8.53D-01
                    CP:  6.15D-01  1.05D+00  1.11D+00  1.16D+00  1.43D+00
                    CP:  1.45D+00  1.07D+00  1.11D+00  1.39D+00  1.29D+00
 E= -897.052356018065     Delta-E=       -0.000000000611 Rises=F Damp=F
 DIIS: error= 6.71D-07 at cycle  16 NSaved=  16.
 NSaved=16 IEnMin=16 EnMin= -897.052356018065     IErMin=16 ErrMin= 6.71D-07
 ErrMax= 6.71D-07 EMaxC= 1.00D-01 BMatC= 1.77D-10 BMatP= 4.62D-10
 IDIUse=1 WtCom= 1.00D+00 WtEn= 0.00D+00
 Coeff-Com:  0.207D-06 0.521D-05-0.120D-04-0.615D-04-0.250D-03-0.824D-03
 Coeff-Com: -0.716D-03-0.321D-03 0.294D-03 0.166D-01-0.269D-02-0.287D-01
 Coeff-Com: -0.931D-01-0.947D-01 0.366D+00 0.839D+00
 Coeff:      0.207D-06 0.521D-05-0.120D-04-0.615D-04-0.250D-03-0.824D-03
 Coeff:     -0.716D-03-0.321D-03 0.294D-03 0.166D-01-0.269D-02-0.287D-01
 Coeff:     -0.931D-01-0.947D-01 0.366D+00 0.839D+00
 Gap=     0.170 Goal=   None    Shift=    0.000
 Gap=     0.094 Goal=   None    Shift=    0.000
 RMSDP=4.06D-07 MaxDP=3.04D-05 DE=-6.11D-10 OVMax= 4.60D-05

 Cycle  17  Pass 1  IDiag  1:
 RMSU=  1.16D-07    CP:  1.06D+00  8.22D-01  7.30D-01  5.60D-01  8.54D-01
                    CP:  6.15D-01  1.05D+00  1.12D+00  1.16D+00  1.44D+00
                    CP:  1.46D+00  1.07D+00  1.16D+00  1.58D+00  1.77D+00
                    CP:  1.66D+00
 E= -897.052356018425     Delta-E=       -0.000000000360 Rises=F Damp=F
 DIIS: error= 4.89D-07 at cycle  17 NSaved=  17.
 NSaved=17 IEnMin=17 EnMin= -897.052356018425     IErMin=17 ErrMin= 4.89D-07
 ErrMax= 4.89D-07 EMaxC= 1.00D-01 BMatC= 7.30D-11 BMatP= 1.77D-10
 IDIUse=1 WtCom= 1.00D+00 WtEn= 0.00D+00
 Coeff-Com: -0.837D-06 0.607D-05 0.989D-05 0.783D-05-0.747D-05-0.112D-03
 Coeff-Com: -0.268D-03-0.120D-02-0.284D-02 0.792D-02 0.107D-01 0.815D-02
 Coeff-Com: -0.698D-01-0.253D+00-0.171D+00 0.492D+00 0.980D+00
 Coeff:     -0.837D-06 0.607D-05 0.989D-05 0.783D-05-0.747D-05-0.112D-03
 Coeff:     -0.268D-03-0.120D-02-0.284D-02 0.792D-02 0.107D-01 0.815D-02
 Coeff:     -0.698D-01-0.253D+00-0.171D+00 0.492D+00 0.980D+00
 Gap=     0.170 Goal=   None    Shift=    0.000
 Gap=     0.094 Goal=   None    Shift=    0.000
 RMSDP=3.75D-07 MaxDP=2.54D-05 DE=-3.60D-10 OVMax= 5.30D-05

 Cycle  18  Pass 1  IDiag  1:
 RMSU=  5.52D-08    CP:  1.06D+00  8.22D-01  7.30D-01  5.60D-01  8.54D-01
                    CP:  6.15D-01  1.05D+00  1.12D+00  1.16D+00  1.44D+00
                    CP:  1.48D+00  1.09D+00  1.20D+00  1.81D+00  2.30D+00
                    CP:  2.50D+00  1.42D+00
 E= -897.052356018671     Delta-E=       -0.000000000246 Rises=F Damp=F
 DIIS: error= 1.91D-07 at cycle  18 NSaved=  18.
 NSaved=18 IEnMin=18 EnMin= -897.052356018671     IErMin=18 ErrMin= 1.91D-07
 ErrMax= 1.91D-07 EMaxC= 1.00D-01 BMatC= 1.27D-11 BMatP= 7.30D-11
 IDIUse=1 WtCom= 1.00D+00 WtEn= 0.00D+00
 Coeff-Com: -0.517D-06-0.335D-06 0.863D-05 0.356D-04 0.117D-03 0.313D-03
 Coeff-Com:  0.179D-03-0.374D-03-0.957D-03-0.395D-02 0.321D-02 0.125D-01
 Coeff-Com:  0.225D-01-0.704D-02-0.128D+00-0.241D+00 0.161D+00 0.118D+01
 Coeff:     -0.517D-06-0.335D-06 0.863D-05 0.356D-04 0.117D-03 0.313D-03
 Coeff:      0.179D-03-0.374D-03-0.957D-03-0.395D-02 0.321D-02 0.125D-01
 Coeff:      0.225D-01-0.704D-02-0.128D+00-0.241D+00 0.161D+00 0.118D+01
 Gap=     0.170 Goal=   None    Shift=    0.000
 Gap=     0.094 Goal=   None    Shift=    0.000
 RMSDP=2.13D-07 MaxDP=1.32D-05 DE=-2.46D-10 OVMax= 2.94D-05

 Cycle  19  Pass 1  IDiag  1:
 RMSU=  2.90D-08    CP:  1.06D+00  8.22D-01  7.30D-01  5.60D-01  8.54D-01
                    CP:  6.15D-01  1.05D+00  1.12D+00  1.16D+00  1.44D+00
                    CP:  1.49D+00  1.09D+00  1.23D+00  1.89D+00  2.62D+00
                    CP:  3.00D+00  1.85D+00  1.34D+00
 E= -897.052356018718     Delta-E=       -0.000000000047 Rises=F Damp=F
 DIIS: error= 5.02D-08 at cycle  19 NSaved=  19.
 NSaved=19 IEnMin=19 EnMin= -897.052356018718     IErMin=19 ErrMin= 5.02D-08
 ErrMax= 5.02D-08 EMaxC= 1.00D-01 BMatC= 1.83D-12 BMatP= 1.27D-11
 IDIUse=1 WtCom= 1.00D+00 WtEn= 0.00D+00
 Coeff-Com:  0.206D-07-0.918D-06-0.161D-05 0.176D-05 0.163D-04 0.382D-04
 Coeff-Com:  0.636D-04 0.234D-03 0.379D-03-0.166D-02-0.180D-02-0.391D-03
 Coeff-Com:  0.140D-01 0.435D-01 0.240D-01-0.136D+00-0.121D+00 0.967D-01
 Coeff-Com:  0.108D+01
 Coeff:      0.206D-07-0.918D-06-0.161D-05 0.176D-05 0.163D-04 0.382D-04
 Coeff:      0.636D-04 0.234D-03 0.379D-03-0.166D-02-0.180D-02-0.391D-03
 Coeff:      0.140D-01 0.435D-01 0.240D-01-0.136D+00-0.121D+00 0.967D-01
 Coeff:      0.108D+01
 Gap=     0.170 Goal=   None    Shift=    0.000
 Gap=     0.094 Goal=   None    Shift=    0.000
 RMSDP=6.87D-08 MaxDP=4.37D-06 DE=-4.68D-11 OVMax= 8.46D-06

 Cycle  20  Pass 1  IDiag  1:
 Restarting incremental Fock formation.
 E= -897.052356018720     Delta-E=       -0.000000000002 Rises=F Damp=F
 DIIS: error= 2.81D-08 at cycle  20 NSaved=  20.
 NSaved=20 IEnMin=20 EnMin= -897.052356018720     IErMin=20 ErrMin= 2.81D-08
 ErrMax= 2.81D-08 EMaxC= 1.00D-01 BMatC= 5.75D-13 BMatP= 1.83D-12
 IDIUse=1 WtCom= 1.00D+00 WtEn= 0.00D+00
 Coeff-Com:  0.112D-06-0.393D-06-0.260D-05-0.701D-05-0.162D-04-0.485D-04
 Coeff-Com: -0.788D-05 0.190D-03 0.351D-03 0.853D-04-0.142D-02-0.287D-02
 Coeff-Com:  0.178D-02 0.209D-01 0.361D-01-0.172D-01-0.809D-01-0.179D+00
 Coeff-Com:  0.489D+00 0.733D+00
 Coeff:      0.112D-06-0.393D-06-0.260D-05-0.701D-05-0.162D-04-0.485D-04
 Coeff:     -0.788D-05 0.190D-03 0.351D-03 0.853D-04-0.142D-02-0.287D-02
 Coeff:      0.178D-02 0.209D-01 0.361D-01-0.172D-01-0.809D-01-0.179D+00
 Coeff:      0.489D+00 0.733D+00
 Gap=     0.170 Goal=   None    Shift=    0.000
 Gap=     0.094 Goal=   None    Shift=    0.000
 RMSDP=1.55D-08 MaxDP=1.04D-06 DE=-2.05D-12 OVMax= 1.97D-06

 Cycle  21  Pass 1  IDiag  1:
 RMSU=  1.55D-08    CP:  1.00D+00
 E= -897.052356018720     Delta-E=        0.000000000000 Rises=F Damp=F
 DIIS: error= 1.49D-08 at cycle  21 NSaved=  20.
 NSaved=20 IEnMin=20 EnMin= -897.052356018720     IErMin=20 ErrMin= 1.49D-08
 ErrMax= 1.49D-08 EMaxC= 1.00D-01 BMatC= 1.28D-13 BMatP= 5.75D-13
 IDIUse=1 WtCom= 1.00D+00 WtEn= 0.00D+00
 Coeff-Com: -0.105D-06-0.843D-06-0.363D-05-0.967D-05-0.254D-04-0.121D-04
 Coeff-Com:  0.389D-04 0.513D-04 0.378D-03-0.180D-03-0.122D-02-0.241D-02
 Coeff-Com: -0.140D-02 0.984D-02 0.254D-01-0.834D-02-0.106D+00-0.203D-01
 Coeff-Com:  0.351D+00 0.753D+00
 Coeff:     -0.105D-06-0.843D-06-0.363D-05-0.967D-05-0.254D-04-0.121D-04
 Coeff:      0.389D-04 0.513D-04 0.378D-03-0.180D-03-0.122D-02-0.241D-02
 Coeff:     -0.140D-02 0.984D-02 0.254D-01-0.834D-02-0.106D+00-0.203D-01
 Coeff:      0.351D+00 0.753D+00
 Gap=     0.170 Goal=   None    Shift=    0.000
 Gap=     0.094 Goal=   None    Shift=    0.000
 RMSDP=6.18D-09 MaxDP=4.39D-07 DE=-4.55D-13 OVMax= 6.58D-07

 SCF Done:  E(UB+HF-LYP) =  -897.052356019     A.U. after   21 cycles
             Convg  =    0.6176D-08             -V/T =  2.0030
             S**2   =   0.7586
 KE= 8.943759600889D+02 PE=-3.235398423927D+03 EE= 8.832358574928D+02
 Annihilation of the first spin contaminant:
 S**2 before annihilation     0.7586,   after     0.7501
 Leave Link  502 at Mon Aug 21 00:51:43 2006, MaxMem=    6291456 cpu:    6297.8
 (Enter /usr/local/Gaussian/g03/l601.exe)
 Copying SCF densities to generalized density rwf, ISCF=1 IROHF=0.

 **********************************************************************

            Population analysis using the SCF density.

 **********************************************************************

 Orbital symmetries:
 Alpha Orbitals:
       Occupied  (A) (A) (A) (A) (A) (A) (A) (A) (A) (A) (A) (A)
                 (A) (A) (A) (A) (A) (A) (A) (A) (A) (A) (A) (A)
                 (A) (A) (A) (A) (A) (A) (A) (A) (A) (A) (A) (A)
                 (A) (A) (A) (A) (A)
       Virtual   (A) (A) (A) (A) (A) (A) (A) (A) (A) (A) (A) (A)
                 (A) (A) (A) (A) (A) (A) (A) (A) (A) (A) (A) (A)
                 (A) (A) (A) (A) (A) (A) (A) (A) (A) (A) (A) (A)
                 (A) (A) (A) (A) (A) (A) (A) (A) (A) (A) (A) (A)
                 (A) (A) (A) (A) (A) (A) (A) (A) (A) (A) (A) (A)
                 (A) (A) (A) (A) (A) (A) (A) (A) (A) (A) (A) (A)
                 (A) (A) (A) (A) (A) (A) (A) (A) (A) (A) (A) (A)
                 (A) (A) (A) (A) (A) (A) (A) (A) (A) (A) (A) (A)
                 (A) (A) (A) (A) (A) (A) (A) (A) (A) (A) (A) (A)
                 (A) (A) (A) (A) (A) (A) (A) (A) (A) (A) (A) (A)
                 (A) (A) (A) (A) (A) (A) (A) (A) (A) (A) (A) (A)
                 (A) (A) (A) (A) (A) (A) (A) (A) (A) (A) (A) (A)
                 (A) (A) (A) (A) (A) (A) (A) (A) (A) (A) (A) (A)
                 (A) (A) (A) (A) (A) (A) (A) (A) (A) (A) (A) (A)
                 (A) (A) (A) (A) (A) (A) (A) (A) (A) (A) (A) (A)
                 (A) (A) (A) (A) (A) (A) (A) (A) (A) (A) (A) (A)
                 (A) (A) (A) (A) (A) (A) (A) (A) (A) (A) (A) (A)
                 (A) (A) (A) (A) (A) (A) (A) (A) (A) (A) (A) (A)
                 (A)
 Beta  Orbitals:
       Occupied  (A) (A) (A) (A) (A) (A) (A) (A) (A) (A) (A) (A)
                 (A) (A) (A) (A) (A) (A) (A) (A) (A) (A) (A) (A)
                 (A) (A) (A) (A) (A) (A) (A) (A) (A) (A) (A) (A)
                 (A) (A) (A) (A)
       Virtual   (A) (A) (A) (A) (A) (A) (A) (A) (A) (A) (A) (A)
                 (A) (A) (A) (A) (A) (A) (A) (A) (A) (A) (A) (A)
                 (A) (A) (A) (A) (A) (A) (A) (A) (A) (A) (A) (A)
                 (A) (A) (A) (A) (A) (A) (A) (A) (A) (A) (A) (A)
                 (A) (A) (A) (A) (A) (A) (A) (A) (A) (A) (A) (A)
                 (A) (A) (A) (A) (A) (A) (A) (A) (A) (A) (A) (A)
                 (A) (A) (A) (A) (A) (A) (A) (A) (A) (A) (A) (A)
                 (A) (A) (A) (A) (A) (A) (A) (A) (A) (A) (A) (A)
                 (A) (A) (A) (A) (A) (A) (A) (A) (A) (A) (A) (A)
                 (A) (A) (A) (A) (A) (A) (A) (A) (A) (A) (A) (A)
                 (A) (A) (A) (A) (A) (A) (A) (A) (A) (A) (A) (A)
                 (A) (A) (A) (A) (A) (A) (A) (A) (A) (A) (A) (A)
                 (A) (A) (A) (A) (A) (A) (A) (A) (A) (A) (A) (A)
                 (A) (A) (A) (A) (A) (A) (A) (A) (A) (A) (A) (A)
                 (A) (A) (A) (A) (A) (A) (A) (A) (A) (A) (A) (A)
                 (A) (A) (A) (A) (A) (A) (A) (A) (A) (A) (A) (A)
                 (A) (A) (A) (A) (A) (A) (A) (A) (A) (A) (A) (A)
                 (A) (A) (A) (A) (A) (A) (A) (A) (A) (A) (A) (A)
                 (A) (A)
 The electronic state is 2-A.
 Alpha  occ. eigenvalues -- -101.54543 -19.18088 -19.18082 -14.57619 -10.26845
 Alpha  occ. eigenvalues --  -10.24581 -10.24076 -10.24036 -10.23689 -10.22769
 Alpha  occ. eigenvalues --   -9.45721  -7.22824  -7.21100  -7.21091  -1.26201
 Alpha  occ. eigenvalues --   -1.08869  -0.92940  -0.84230  -0.81578  -0.79374
 Alpha  occ. eigenvalues --   -0.73555  -0.66958  -0.63131  -0.59457  -0.56487
 Alpha  occ. eigenvalues --   -0.54400  -0.54351  -0.50893  -0.50086  -0.48246
 Alpha  occ. eigenvalues --   -0.43841  -0.42395  -0.40665  -0.36530  -0.34074
 Alpha  occ. eigenvalues --   -0.33856  -0.32841  -0.32298  -0.31430  -0.30541
 Alpha  occ. eigenvalues --   -0.29179
 Alpha virt. eigenvalues --   -0.12149  -0.06927  -0.03726  -0.01415   0.00884
 Alpha virt. eigenvalues --    0.01443   0.02794   0.03796   0.03960   0.04822
 Alpha virt. eigenvalues --    0.06660   0.07382   0.07458   0.08701   0.09135
 Alpha virt. eigenvalues --    0.09524   0.10310   0.10962   0.11555   0.12284
 Alpha virt. eigenvalues --    0.12482   0.13119   0.13415   0.14487   0.15331
 Alpha virt. eigenvalues --    0.15905   0.16293   0.16726   0.17673   0.18220
 Alpha virt. eigenvalues --    0.18633   0.18728   0.19260   0.19778   0.20203
 Alpha virt. eigenvalues --    0.20681   0.21086   0.23208   0.24500   0.24736
 Alpha virt. eigenvalues --    0.25221   0.25484   0.25753   0.26868   0.27370
 Alpha virt. eigenvalues --    0.28499   0.29355   0.29973   0.30291   0.31815
 Alpha virt. eigenvalues --    0.34170   0.37527   0.39322   0.39874   0.42062
 Alpha virt. eigenvalues --    0.43702   0.44349   0.46903   0.47607   0.47701
 Alpha virt. eigenvalues --    0.48631   0.50171   0.51494   0.52384   0.53310
 Alpha virt. eigenvalues --    0.54027   0.56328   0.56882   0.58366   0.58831
 Alpha virt. eigenvalues --    0.61104   0.62811   0.63562   0.65539   0.67011
 Alpha virt. eigenvalues --    0.67455   0.68379   0.71215   0.71639   0.75919
 Alpha virt. eigenvalues --    0.77206   0.78434   0.79318   0.80562   0.81907
 Alpha virt. eigenvalues --    0.82155   0.85886   0.86272   0.87112   0.88977
 Alpha virt. eigenvalues --    0.89780   0.90538   0.93470   0.94130   0.95143
 Alpha virt. eigenvalues --    0.95470   1.00253   1.01381   1.03945   1.04430
 Alpha virt. eigenvalues --    1.05971   1.08713   1.08857   1.09290   1.14783
 Alpha virt. eigenvalues --    1.16852   1.17707   1.19099   1.20689   1.24608
 Alpha virt. eigenvalues --    1.28860   1.32081   1.35546   1.43659   1.46815
 Alpha virt. eigenvalues --    1.47455   1.50788   1.52576   1.54511   1.56064
 Alpha virt. eigenvalues --    1.56805   1.60643   1.61050   1.67982   1.68957
 Alpha virt. eigenvalues --    1.70135   1.74035   1.75343   1.78208   1.81568
 Alpha virt. eigenvalues --    1.82676   1.83839   1.85685   1.88957   1.91156
 Alpha virt. eigenvalues --    1.92485   1.92956   1.95437   1.97021   1.99589
 Alpha virt. eigenvalues --    2.03096   2.08207   2.14869   2.24801   2.26303
 Alpha virt. eigenvalues --    2.27908   2.28653   2.29666   2.32510   2.36318
 Alpha virt. eigenvalues --    2.38634   2.40268   2.41676   2.46474   2.53893
 Alpha virt. eigenvalues --    2.56954   2.60230   2.62295   2.67214   2.70915
 Alpha virt. eigenvalues --    2.72380   2.73414   2.74022   2.74720   2.76826
 Alpha virt. eigenvalues --    2.79151   2.80218   2.80586   2.82695   2.84579
 Alpha virt. eigenvalues --    2.84830   2.86989   2.88632   2.89471   3.02393
 Alpha virt. eigenvalues --    3.09292   3.12825   3.22165   3.28390   3.32543
 Alpha virt. eigenvalues --    3.34817   3.37016   3.45243   3.47417   3.52128
 Alpha virt. eigenvalues --    3.60134   3.67094   3.76597   3.79488   3.80212
 Alpha virt. eigenvalues --    3.94668   3.99165   4.10603   4.11078   4.52047
 Alpha virt. eigenvalues --    4.69412   4.78261   4.96969   4.99791   5.08962
 Alpha virt. eigenvalues --    5.14957   5.70774   6.25317   9.67540  23.52891
 Alpha virt. eigenvalues --   23.87606  23.92024  24.01287  24.04948  24.14092
 Alpha virt. eigenvalues --   25.86205  25.88202  26.05454  35.38698  49.87859
 Alpha virt. eigenvalues --   49.98671 215.65215
  Beta  occ. eigenvalues -- -101.54018 -19.18100 -19.18087 -14.57611 -10.26926
  Beta  occ. eigenvalues --  -10.24450 -10.23889 -10.23839 -10.23526 -10.22848
  Beta  occ. eigenvalues --   -9.45214  -7.21155  -7.20787  -7.20780  -1.26208
  Beta  occ. eigenvalues --   -1.08885  -0.92651  -0.84041  -0.80909  -0.75910
  Beta  occ. eigenvalues --   -0.73282  -0.66708  -0.62997  -0.59420  -0.56502
  Beta  occ. eigenvalues --   -0.54325  -0.54252  -0.50768  -0.49962  -0.48107
  Beta  occ. eigenvalues --   -0.42546  -0.42222  -0.40534  -0.34168  -0.33872
  Beta  occ. eigenvalues --   -0.32508  -0.32290  -0.32040  -0.30236  -0.29661
  Beta virt. eigenvalues --   -0.20228  -0.11744  -0.05936  -0.03340  -0.01380
  Beta virt. eigenvalues --    0.00905   0.01472   0.02840   0.03895   0.03996
  Beta virt. eigenvalues --    0.04868   0.06774   0.07416   0.07490   0.08986
  Beta virt. eigenvalues --    0.09162   0.09737   0.10309   0.11042   0.11548
  Beta virt. eigenvalues --    0.12375   0.12590   0.13142   0.13422   0.14557
  Beta virt. eigenvalues --    0.15488   0.15932   0.16355   0.16840   0.17755
  Beta virt. eigenvalues --    0.18264   0.18699   0.18758   0.19311   0.19858
  Beta virt. eigenvalues --    0.20291   0.20765   0.21176   0.23345   0.24559
  Beta virt. eigenvalues --    0.24791   0.25222   0.25537   0.25814   0.27066
  Beta virt. eigenvalues --    0.27442   0.28647   0.29388   0.30074   0.30326
  Beta virt. eigenvalues --    0.31858   0.34185   0.37554   0.39363   0.39896
  Beta virt. eigenvalues --    0.42128   0.43854   0.45839   0.47198   0.47757
  Beta virt. eigenvalues --    0.48096   0.49004   0.50463   0.51776   0.52625
  Beta virt. eigenvalues --    0.53529   0.54810   0.56350   0.56886   0.59042
  Beta virt. eigenvalues --    0.59704   0.61268   0.63364   0.63651   0.65655
  Beta virt. eigenvalues --    0.67158   0.67725   0.68477   0.71612   0.72067
  Beta virt. eigenvalues --    0.76132   0.77935   0.78647   0.79432   0.80778
  Beta virt. eigenvalues --    0.82130   0.82441   0.86125   0.87228   0.88620
  Beta virt. eigenvalues --    0.90035   0.90444   0.91892   0.94044   0.95080
  Beta virt. eigenvalues --    0.95763   0.97074   1.00968   1.02512   1.04292
  Beta virt. eigenvalues --    1.04808   1.06433   1.08888   1.09160   1.09585
  Beta virt. eigenvalues --    1.14919   1.16913   1.18385   1.19320   1.21242
  Beta virt. eigenvalues --    1.24875   1.28908   1.32454   1.35614   1.43753
  Beta virt. eigenvalues --    1.46925   1.47628   1.50979   1.52762   1.54713
  Beta virt. eigenvalues --    1.56405   1.56832   1.60686   1.61338   1.68062
  Beta virt. eigenvalues --    1.69307   1.70256   1.74250   1.75383   1.78289
  Beta virt. eigenvalues --    1.81634   1.82837   1.84109   1.86086   1.89269
  Beta virt. eigenvalues --    1.91385   1.92743   1.93023   1.95745   1.97201
  Beta virt. eigenvalues --    1.99762   2.03451   2.08354   2.14996   2.24907
  Beta virt. eigenvalues --    2.26912   2.28428   2.29313   2.30171   2.34343
  Beta virt. eigenvalues --    2.36340   2.38774   2.40365   2.42391   2.46718
  Beta virt. eigenvalues --    2.53966   2.57070   2.60609   2.62458   2.67232
  Beta virt. eigenvalues --    2.70967   2.72484   2.73464   2.74132   2.74955
  Beta virt. eigenvalues --    2.76825   2.79343   2.80353   2.80800   2.83184
  Beta virt. eigenvalues --    2.84667   2.85115   2.87203   2.88742   2.89620
  Beta virt. eigenvalues --    3.02887   3.09260   3.12951   3.22188   3.28463
  Beta virt. eigenvalues --    3.32648   3.34869   3.37000   3.45382   3.47571
  Beta virt. eigenvalues --    3.52189   3.60225   3.67096   3.76724   3.79527
  Beta virt. eigenvalues --    3.80227   3.94864   3.99347   4.10839   4.11320
  Beta virt. eigenvalues --    4.52047   4.69397   4.78559   4.96931   4.99752
  Beta virt. eigenvalues --    5.08956   5.14950   5.70764   6.25315   9.68528
  Beta virt. eigenvalues --   23.52969  23.87664  23.92171  24.01463  24.05027
  Beta virt. eigenvalues --   24.14180  25.86666  25.88647  26.07646  35.38707
  Beta virt. eigenvalues --   49.87850  49.98662 215.65698
          Condensed to atoms (all electrons):
              1          2          3          4          5          6
     1  C   11.697811  -1.073247  -1.488114  -1.024543   1.050111  -3.520152
     2  C   -1.073247   9.195283  -0.131684  -0.306166  -0.651445   0.002454
     3  C   -1.488114  -0.131684   9.897166  -1.739317   0.489304  -1.423003
     4  C   -1.024543  -0.306166  -1.739317   8.159399  -0.489233   1.040393
     5  C    1.050111  -0.651445   0.489304  -0.489233   7.141884  -1.762977
     6  C   -3.520152   0.002454  -1.423003   1.040393  -1.762977  11.265901
     7  H   -0.044207   0.016022   0.009569   0.007346  -0.040006   0.415946
     8  H   -0.013409   0.015831  -0.022426  -0.006744   0.396957  -0.012139
     9  H    0.004215   0.023501  -0.024745   0.360250   0.000187  -0.007267
    10  H   -0.040380   0.053096   0.351978   0.012501  -0.015010   0.019756
    11  N    0.239632  -0.540442   0.072749  -0.051130   0.011613  -0.102752
    12  O   -0.120609  -0.349987   0.031753   0.289553  -0.040903   0.051775
    13  O   -0.002238  -0.312289  -0.085853   0.029697  -0.036077   0.283086
    14  H    0.359046   0.054467  -0.017009  -0.003201  -0.004226  -0.003841
    15  Cl   0.061241   0.026263   0.004459   0.062325   0.084929  -0.282076
              7          8          9         10         11         12
     1  C   -0.044207  -0.013409   0.004215  -0.040380   0.239632  -0.120609
     2  C    0.016022   0.015831   0.023501   0.053096  -0.540442  -0.349987
     3  C    0.009569  -0.022426  -0.024745   0.351978   0.072749   0.031753
     4  C    0.007346  -0.006744   0.360250   0.012501  -0.051130   0.289553
     5  C   -0.040006   0.396957   0.000187  -0.015010   0.011613  -0.040903
     6  C    0.415946  -0.012139  -0.007267   0.019756  -0.102752   0.051775
     7  H    0.464010  -0.006421  -0.000213   0.000009  -0.000174   0.000003
     8  H   -0.006421   0.500860  -0.007374  -0.000148   0.000336   0.000003
     9  H   -0.000213  -0.007374   0.509287  -0.006021  -0.001263   0.000006
    10  H    0.000009  -0.000148  -0.006021   0.465169  -0.028561   0.012816
    11  N   -0.000174   0.000336  -0.001263  -0.028561   7.168092   0.212949
    12  O    0.000003   0.000003   0.000006   0.012816   0.212949   7.934108
    13  O   -0.000199   0.000000   0.000012  -0.000726   0.228926  -0.006411
    14  H   -0.005376  -0.000095   0.000027  -0.000094  -0.031960  -0.000847
    15  Cl  -0.017594  -0.000097  -0.000986  -0.000276   0.005944   0.000396
             13         14         15
     1  C   -0.002238   0.359046   0.061241
     2  C   -0.312289   0.054467   0.026263
     3  C   -0.085853  -0.017009   0.004459
     4  C    0.029697  -0.003201   0.062325
     5  C   -0.036077  -0.004226   0.084929
     6  C    0.283086  -0.003841  -0.282076
     7  H   -0.000199  -0.005376  -0.017594
     8  H    0.000000  -0.000095  -0.000097
     9  H    0.000012   0.000027  -0.000986
    10  H   -0.000726  -0.000094  -0.000276
    11  N    0.228926  -0.031960   0.005944
    12  O   -0.006411  -0.000847   0.000396
    13  O    7.898764   0.016925  -0.001573
    14  H    0.016925   0.455494   0.000998
    15  Cl  -0.001573   0.000998  17.234575
 Mulliken atomic charges:
              1
     1  C   -0.085156
     2  C   -0.021658
     3  C    0.075173
     4  C   -0.341129
     5  C   -0.135109
     6  C    0.034895
     7  H    0.201286
     8  H    0.154866
     9  H    0.150385
    10  H    0.175889
    11  N   -0.183960
    12  O   -0.014604
    13  O   -0.012044
    14  H    0.179693
    15  Cl  -0.178528
 Sum of Mulliken charges=   0.00000
 Atomic charges with hydrogens summed into heavy atoms:
              1
     1  C    0.094537
     2  C   -0.021658
     3  C    0.251062
     4  C   -0.190744
     5  C    0.019757
     6  C    0.236181
     7  H    0.000000
     8  H    0.000000
     9  H    0.000000
    10  H    0.000000
    11  N   -0.183960
    12  O   -0.014604
    13  O   -0.012044
    14  H    0.000000
    15  Cl  -0.178528
 Sum of Mulliken charges=   0.00000
          Atomic-Atomic Spin Densities.
              1          2          3          4          5          6
     1  C    0.164989  -0.055147   0.046088  -0.041602   0.051129   0.020600
     2  C   -0.055147  -0.109376  -0.026927   0.012896  -0.044332   0.181601
     3  C    0.046088  -0.026927   0.211328  -0.046906   0.060117  -0.071525
     4  C   -0.041602   0.012896  -0.046906  -0.014381  -0.100782   0.113550
     5  C    0.051129  -0.044332   0.060117  -0.100782   0.256312  -0.034377
     6  C    0.020600   0.181601  -0.071525   0.113550  -0.034377  -0.248382
     7  H   -0.006736  -0.000017   0.000829  -0.002288  -0.005675   0.024307
     8  H   -0.000496  -0.002173  -0.000671   0.001036  -0.003684   0.007124
     9  H   -0.000264   0.000988  -0.000708  -0.000459  -0.000525   0.001187
    10  H   -0.000752  -0.005272   0.002256   0.002958   0.000118  -0.000143
    11  N    0.005648  -0.006317  -0.008461   0.002722  -0.007891   0.014537
    12  O   -0.002347   0.001886   0.001114  -0.000426   0.000729  -0.000925
    13  O   -0.002037   0.004737   0.003005  -0.001443   0.001573  -0.002347
    14  H   -0.000943  -0.007956  -0.000990   0.000117  -0.001251   0.010161
    15  Cl  -0.037026  -0.036229  -0.014877   0.017443  -0.051148   0.033514
              7          8          9         10         11         12
     1  C   -0.006736  -0.000496  -0.000264  -0.000752   0.005648  -0.002347
     2  C   -0.000017  -0.002173   0.000988  -0.005272  -0.006317   0.001886
     3  C    0.000829  -0.000671  -0.000708   0.002256  -0.008461   0.001114
     4  C   -0.002288   0.001036  -0.000459   0.002958   0.002722  -0.000426
     5  C   -0.005675  -0.003684  -0.000525   0.000118  -0.007891   0.000729
     6  C    0.024307   0.007124   0.001187  -0.000143   0.014537  -0.000925
     7  H    0.005404  -0.000368  -0.000004   0.000000  -0.000321   0.000005
     8  H   -0.000368  -0.007633   0.000047   0.000008   0.000032  -0.000001
     9  H   -0.000004   0.000047   0.002541   0.000074  -0.000073   0.000013
    10  H    0.000000   0.000008   0.000074  -0.008902   0.001776  -0.000499
    11  N   -0.000321   0.000032  -0.000073   0.001776   0.008735  -0.001679
    12  O    0.000005  -0.000001   0.000013  -0.000499  -0.001679   0.000379
    13  O    0.000050  -0.000004   0.000000  -0.000035  -0.005506   0.000624
    14  H   -0.000349   0.000002  -0.000001   0.000006   0.002171  -0.000013
    15  Cl  -0.010784   0.000627  -0.000115   0.000077   0.004195  -0.000124
             13         14         15
     1  C   -0.002037  -0.000943  -0.037026
     2  C    0.004737  -0.007956  -0.036229
     3  C    0.003005  -0.000990  -0.014877
     4  C   -0.001443   0.000117   0.017443
     5  C    0.001573  -0.001251  -0.051148
     6  C   -0.002347   0.010161   0.033514
     7  H    0.000050  -0.000349  -0.010784
     8  H   -0.000004   0.000002   0.000627
     9  H    0.000000  -0.000001  -0.000115
    10  H   -0.000035   0.000006   0.000077
    11  N   -0.005506   0.002171   0.004195
    12  O    0.000624  -0.000013  -0.000124
    13  O   -0.004333  -0.000831  -0.000997
    14  H   -0.000831  -0.007737   0.000986
    15  Cl  -0.000997   0.000986   0.793291
 Mulliken atomic spin densities:
              1
     1  C    0.141104
     2  C   -0.091638
     3  C    0.153672
     4  C   -0.057565
     5  C    0.120315
     6  C    0.048881
     7  H    0.004052
     8  H   -0.006153
     9  H    0.002702
    10  H   -0.008329
    11  N    0.009567
    12  O   -0.001266
    13  O   -0.007545
    14  H   -0.006630
    15  Cl   0.698833
 Sum of Mulliken spin densities=   1.00000
 Electronic spatial extent (au):  <R**2>=  1814.9172
 Charge=     0.0000 electrons
 Dipole moment (field-independent basis, Debye):
    X=     1.9560    Y=     4.0063    Z=     1.9243  Tot=     4.8559
 Quadrupole moment (field-independent basis, Debye-Ang):
   XX=   -78.6686   YY=   -61.9353   ZZ=   -63.3647
   XY=     1.3198   XZ=     3.2488   YZ=    -2.3182
 Traceless Quadrupole moment (field-independent basis, Debye-Ang):
   XX=   -10.6791   YY=     6.0543   ZZ=     4.6249
   XY=     1.3198   XZ=     3.2488   YZ=    -2.3182
 Octapole moment (field-independent basis, Debye-Ang**2):
  XXX=    16.6297  YYY=    11.3949  ZZZ=    -0.7256  XYY=     4.0126
  XXY=    19.9096  XXZ=    13.4770  XZZ=    -0.5922  YZZ=    -5.7593
  YYZ=    -7.7304  XYZ=    -1.1348
 Hexadecapole moment (field-independent basis, Debye-Ang**3):
 XXXX= -1635.4263 YYYY=  -586.5992 ZZZZ=  -239.2580 XXXY=     7.6622
 XXXZ=    -6.3978 YYYX=     8.7011 YYYZ=   -19.7013 ZZZX=     5.7627
 ZZZY=    -7.4463 XXYY=  -355.9234 XXZZ=  -280.7166 YYZZ=  -138.0463
 XXYZ=    11.2841 YYXZ=     6.4116 ZZXY=    -4.4056
 N-N= 5.607342503266D+02 E-N=-3.235398423544D+03  KE= 8.943759600889D+02
                          Isotropic Fermi Contact Couplings
        Atom                 a.u.       MegaHertz       Gauss      10(-4) cm-1
     1  C(13)              0.00711       7.99194       2.85172       2.66582
     2  C(13)             -0.01031     -11.59415      -4.13708      -3.86739
     3  C(13)              0.00890      10.00015       3.56830       3.33569
     4  C(13)             -0.00827      -9.29299      -3.31597      -3.09981
     5  C(13)              0.00617       6.93532       2.47469       2.31337
     6  C(13)              0.02242      25.19901       8.99163       8.40549
     7  H(1)               0.00259      11.57289       4.12949       3.86030
     8  H(1)              -0.00169      -7.57164      -2.70175      -2.52563
     9  H(1)               0.00063       2.79752       0.99823       0.93315
    10  H(1)              -0.00204      -9.11207      -3.25141      -3.03946
    11  N(14)              0.00158       0.51050       0.18216       0.17028
    12  O(17)              0.00010      -0.05815      -0.02075      -0.01940
    13  O(17)             -0.00052       0.31343       0.11184       0.10455
    14  H(1)              -0.00190      -8.49662      -3.03181      -2.83417
    15  Cl(35)             0.04751      20.82927       7.43240       6.94790
 --------------------------------------------------------
       Center         ----  Spin Dipole Couplings  ----
                      3XX-RR        3YY-RR        3ZZ-RR
 --------------------------------------------------------
     1   Atom       -0.036055     -0.036656      0.072711
     2   Atom        0.018959      0.010544     -0.029502
     3   Atom       -0.046027     -0.033981      0.080008
     4   Atom        0.017593      0.011593     -0.029186
     5   Atom       -0.044821     -0.015971      0.060792
     6   Atom       -0.010133     -0.005142      0.015275
     7   Atom       -0.005641     -0.008840      0.014481
     8   Atom        0.003214      0.002357     -0.005571
     9   Atom        0.001604      0.000520     -0.002124
    10   Atom        0.002730     -0.004734      0.002004
    11   Atom        0.001625     -0.002158      0.000533
    12   Atom        0.002668     -0.000620     -0.002048
    13   Atom        0.011348      0.004697     -0.016045
    14   Atom       -0.004650      0.006444     -0.001794
    15   Atom       -0.193297     -0.173250      0.366546
 --------------------------------------------------------
                        XY            XZ            YZ
 --------------------------------------------------------
     1   Atom       -0.037654     -0.079975      0.081187
     2   Atom        0.009797      0.025800     -0.031476
     3   Atom       -0.042737     -0.069399      0.084924
     4   Atom        0.010302      0.026125     -0.029528
     5   Atom       -0.033581     -0.060758      0.079657
     6   Atom       -0.044366     -0.058405      0.060042
     7   Atom       -0.002833      0.006554      0.000315
     8   Atom        0.008101     -0.000857      0.005966
     9   Atom       -0.000363      0.001553     -0.000384
    10   Atom       -0.009267      0.005947     -0.001676
    11   Atom       -0.000239     -0.001696      0.002971
    12   Atom        0.000540      0.001106      0.000351
    13   Atom        0.008535      0.011591     -0.015883
    14   Atom        0.005188     -0.008344     -0.004621
    15   Atom       -2.041035     -2.306016      2.314022
 --------------------------------------------------------


 ---------------------------------------------------------------------------------
              Anisotropic Spin Dipole Couplings in Principal Axis System
 ---------------------------------------------------------------------------------

       Atom             a.u.   MegaHertz   Gauss  10(-4) cm-1        Axes

              Baa    -0.0825   -11.068    -3.949    -3.692 -0.5053  0.6299 -0.5899
     1 C(13)  Bbb    -0.0739    -9.923    -3.541    -3.310  0.7555  0.6532  0.0504
              Bcc     0.1564    20.991     7.490     7.002 -0.4171  0.4202  0.8059
 
              Baa    -0.0567    -7.606    -2.714    -2.537 -0.3405  0.4389  0.8315
     2 C(13)  Bbb     0.0247     3.315     1.183     1.106  0.6140  0.7736 -0.1570
              Bcc     0.0320     4.291     1.531     1.431  0.7121 -0.4571  0.5329
 
              Baa    -0.0836   -11.219    -4.003    -3.742  0.6311  0.7649 -0.1293
     3 C(13)  Bbb    -0.0742    -9.953    -3.552    -3.320  0.6813 -0.4668  0.5638
              Bcc     0.1578    21.172     7.555     7.062 -0.3709  0.4439  0.8157
 
              Baa    -0.0554    -7.431    -2.652    -2.479 -0.3578  0.4223  0.8329
     4 C(13)  Bbb     0.0248     3.330     1.188     1.111  0.5853  0.7964 -0.1523
              Bcc     0.0306     4.102     1.464     1.368  0.7276 -0.4330  0.5321
 
              Baa    -0.0731    -9.806    -3.499    -3.271  0.8322 -0.2204  0.5088
     5 C(13)  Bbb    -0.0642    -8.609    -3.072    -2.872  0.4252  0.8426 -0.3304
              Bcc     0.1372    18.415     6.571     6.143 -0.3559  0.4913  0.7949
 
              Baa    -0.0585    -7.854    -2.803    -2.620  0.5492 -0.3804  0.7441
     6 C(13)  Bbb    -0.0520    -6.971    -2.488    -2.325  0.6547  0.7492 -0.1003
              Bcc     0.1105    14.826     5.290     4.945 -0.5193  0.5423  0.6605
 
              Baa    -0.0111    -5.919    -2.112    -1.974  0.6029  0.7808 -0.1641
     7 H(1)   Bbb    -0.0053    -2.851    -1.017    -0.951  0.7445 -0.6245 -0.2362
              Bcc     0.0164     8.770     3.129     2.925  0.2869 -0.0202  0.9577
 
              Baa    -0.0107    -5.690    -2.030    -1.898  0.3774 -0.5694  0.7303
     8 H(1)   Bbb    -0.0010    -0.534    -0.190    -0.178 -0.6451  0.4042  0.6485
              Bcc     0.0117     6.224     2.221     2.076  0.6644  0.7159  0.2148
 
              Baa    -0.0027    -1.443    -0.515    -0.481 -0.3327  0.0745  0.9401
     9 H(1)   Bbb     0.0004     0.220     0.078     0.073  0.2685  0.9631  0.0187
              Bcc     0.0023     1.223     0.436     0.408  0.9040 -0.2587  0.3405
 
              Baa    -0.0113    -6.038    -2.154    -2.014  0.5908  0.7899 -0.1644
    10 H(1)   Bbb    -0.0010    -0.559    -0.199    -0.186 -0.3195  0.4161  0.8513
              Bcc     0.0124     6.596     2.354     2.200  0.7409 -0.4504  0.4982
 
              Baa    -0.0042    -0.161    -0.057    -0.054 -0.1311  0.8161 -0.5629
    11 N(14)  Bbb     0.0005     0.019     0.007     0.006  0.7761  0.4378  0.4539
              Bcc     0.0037     0.142     0.051     0.047 -0.6169  0.3773  0.6907
 
              Baa    -0.0023     0.168     0.060     0.056 -0.2002 -0.1360  0.9703
    12 O(17)  Bbb    -0.0007     0.050     0.018     0.017 -0.1894  0.9770  0.0979
              Bcc     0.0030    -0.218    -0.078    -0.073  0.9613  0.1641  0.2214
 
              Baa    -0.0296     2.143     0.765     0.715 -0.3293  0.4629  0.8230
    13 O(17)  Bbb     0.0124    -0.897    -0.320    -0.299 -0.4042  0.7186 -0.5659
              Bcc     0.0172    -1.245    -0.444    -0.415  0.8533  0.5191  0.0495
 
              Baa    -0.0118    -6.270    -2.237    -2.091  0.7793 -0.0639  0.6234
    14 H(1)   Bbb    -0.0010    -0.543    -0.194    -0.181 -0.4283  0.6720  0.6042
              Bcc     0.0128     6.813     2.431     2.272  0.4575  0.7378 -0.4963
 
              Baa    -2.2389  -117.181   -41.813   -39.087  0.5252 -0.3500  0.7757
    15 Cl(35) Bbb    -2.2241  -116.404   -41.536   -38.828  0.6480  0.7553 -0.0979
              Bcc     4.4630   233.585    83.349    77.916 -0.5516  0.5540  0.6235
 

 ---------------------------------------------------------------------------------

 No NMR shielding tensors so no spin-rotation constants.
 Leave Link  601 at Mon Aug 21 00:52:01 2006, MaxMem=    6291456 cpu:       2.9
 (Enter /usr/local/Gaussian/g03/l701.exe)
 Compute integral first derivatives.
 ... and contract with generalized density number  0.
 Leave Link  701 at Mon Aug 21 00:52:10 2006, MaxMem=    6291456 cpu:       1.4
 (Enter /usr/local/Gaussian/g03/l702.exe)
 L702 exits ... SP integral derivatives will be done elsewhere.
 Leave Link  702 at Mon Aug 21 00:52:11 2006, MaxMem=    6291456 cpu:       0.0
 (Enter /usr/local/Gaussian/g03/l703.exe)
 Compute integral first derivatives, UseDBF=F.
 Integral derivatives from FoFDir, PRISM(SPDF).
 Symmetry not used in FoFDir.
 MinBra= 0 MaxBra= 2 Meth= 1.
 IRaf=       0 NMat=   1 IRICut=       1 DoRegI=T DoRafI=F ISym2E= 0 JSym2E=0.
 Leave Link  703 at Mon Aug 21 02:25:36 2006, MaxMem=    6291456 cpu:     896.3
 (Enter /usr/local/Gaussian/g03/l716.exe)
 Dipole        = 7.69565634D-01 1.57620911D+00 7.57070592D-01
 ***** Axes restored to original set *****
 -------------------------------------------------------------------
 Center     Atomic                   Forces (Hartrees/Bohr)
 Number     Number              X              Y              Z
 -------------------------------------------------------------------
    1          6          -0.002352945   -0.000041144   -0.001523479
    2          6          -0.000778896    0.000034413    0.000659295
    3          6          -0.000240104    0.000036828    0.002709821
    4          6           0.001930968   -0.000048244    0.001434100
    5          6           0.001887027   -0.000140585   -0.001427448
    6          6           0.000165626    0.000112974   -0.002135545
    7          1          -0.000029189   -0.000002714   -0.000210670
    8          1           0.000220828    0.000040398   -0.000112187
    9          1           0.000173405    0.000011451    0.000134240
   10          1           0.000384134    0.000006117    0.000452164
   11          7           0.002351101   -0.000136284   -0.001359378
   12          8          -0.000454310    0.000080838    0.003313254
   13          8          -0.003026603   -0.000003128   -0.001361706
   14          1          -0.000187464    0.000001813   -0.000545411
   15         17          -0.000043578    0.000047267   -0.000027048
 -------------------------------------------------------------------
 Cartesian Forces:  Max     0.003313254 RMS     0.001180919
 Leave Link  716 at Mon Aug 21 02:25:38 2006, MaxMem=    6291456 cpu:       0.0
 (Enter /usr/local/Gaussian/g03/l103.exe)

 GradGradGradGradGradGradGradGradGradGradGradGradGradGradGradGradGradGrad
 Berny optimization.
 Internal  Forces:  Max     0.003299972 RMS     0.000891710
 Search for a local minimum.
 Step number   1 out of a maximum of  96
 All quantities printed in internal units (Hartrees-Bohrs-Radians)
 Second derivative matrix not updated -- first step.
     Eigenvalues ---    0.00607   0.00607   0.01885   0.02010   0.02162
     Eigenvalues ---    0.02190   0.02221   0.02254   0.02257   0.02933
     Eigenvalues ---    0.03114   0.03269   0.03590   0.06843   0.09388
     Eigenvalues ---    0.11268   0.12550   0.16000   0.16000   0.16199
     Eigenvalues ---    0.18407   0.22140   0.25000   0.25000   0.25000
     Eigenvalues ---    0.32483   0.34341   0.34601   0.35683   0.35689
     Eigenvalues ---    0.35871   0.35960   0.39205   0.43195   0.44724
     Eigenvalues ---    0.47326   0.48694   0.94881   0.953681000.00000
     Eigenvalues --- 1000.000001000.000001000.000001000.000001000.00000
     Eigenvalues --- 1000.000001000.000001000.000001000.000001000.00000
     Eigenvalues --- 1000.000001000.000001000.000001000.000001000.00000
     Eigenvalues --- 1000.000001000.000001000.000001000.000001000.00000
     Eigenvalues --- 1000.000001000.000001000.000001000.000001000.00000
[...]
   A16        2.10231   0.00000   0.00000   0.00001   0.00001   2.10231
   A17        1.98519   0.00000   0.00000  -0.00032  -0.00032   1.98487
   A18        2.08229   0.00001   0.00000   0.00011   0.00012   2.08241
   A19        1.71593   0.00001   0.00000   0.00448   0.00448   1.72041
   A20        2.09306   0.00000   0.00000   0.00001   0.00001   2.09306
   A21        2.08532   0.00000   0.00000  -0.00007  -0.00007   2.08525
   A22        2.09684   0.00000   0.00000   0.00000   0.00000   2.09684
   A23        2.04829   0.00014   0.00000   0.00043   0.00043   2.04872
   A24        2.05043   0.00012   0.00000   0.00035   0.00035   2.05078
   A25        2.18445  -0.00026   0.00000  -0.00078  -0.00078   2.18368
   A26        0.81005  -0.00001   0.00000   0.00019   0.00018   0.81023
   A27        0.75466   0.00000   0.00000   0.00158   0.00158   0.75624
   A28        0.75027  -0.00001   0.00000  -0.00104  -0.00105   0.74923
    D1       -0.00825   0.00000   0.00000  -0.00019  -0.00019  -0.00844
    D2        3.13735   0.00000   0.00000  -0.00019  -0.00019   3.13717
    D3        3.14088   0.00001   0.00000   0.00054   0.00054   3.14142
    D4        0.00330   0.00001   0.00000   0.00054   0.00054   0.00383
    D5       -1.12714  -0.00002   0.00000  -0.00523  -0.00523  -1.13237
    D6        2.01847  -0.00001   0.00000  -0.00523  -0.00523   2.01324
    D7        0.02173   0.00000   0.00000   0.00009   0.00009   0.02183
    D8        3.02827  -0.00001   0.00000  -0.00043  -0.00044   3.02783
    D9       -3.12749  -0.00001   0.00000  -0.00064  -0.00064  -3.12813
   D10       -0.12096  -0.00002   0.00000  -0.00117  -0.00117  -0.12212
   D11        1.35789   0.00002   0.00000   0.00194   0.00194   1.35984
   D12        2.44847   0.00000   0.00000  -0.00063  -0.00062   2.44784
   D13       -2.69177   0.00002   0.00000  -0.00039  -0.00039  -2.69216
   D14       -1.60120   0.00000   0.00000  -0.00296  -0.00295  -1.60415
   D15       -0.00438   0.00000   0.00000   0.00008   0.00008  -0.00430
   D16        3.13603   0.00000   0.00000   0.00007   0.00007   3.13610
   D17        3.13320   0.00000   0.00000   0.00009   0.00008   3.13329
   D18       -0.00957   0.00000   0.00000   0.00008   0.00008  -0.00950
   D19       -3.12869   0.00000   0.00000  -0.00008  -0.00008  -3.12877
   D20        0.01655   0.00000   0.00000  -0.00003  -0.00003   0.01652
   D21        0.01678   0.00000   0.00000  -0.00008  -0.00008   0.01669
   D22       -3.12117   0.00000   0.00000  -0.00003  -0.00003  -3.12121
   D23        0.00344   0.00000   0.00000   0.00012   0.00012   0.00357
   D24       -3.14057   0.00000   0.00000   0.00037   0.00037  -3.14019
   D25       -3.13694   0.00000   0.00000   0.00013   0.00013  -3.13681
   D26        0.00224   0.00000   0.00000   0.00038   0.00038   0.00262
   D27        0.01016   0.00000   0.00000  -0.00021  -0.00021   0.00995
   D28        3.13844   0.00000   0.00000   0.00024   0.00024   3.13868
   D29        1.10993  -0.00001   0.00000  -0.00575  -0.00575   1.10418
   D30       -3.12900   0.00000   0.00000  -0.00046  -0.00046  -3.12946
   D31       -0.00072   0.00000   0.00000  -0.00001  -0.00001  -0.00073
   D32       -2.02923  -0.00001   0.00000  -0.00600  -0.00600  -2.03523
   D33       -0.02297   0.00000   0.00000   0.00011   0.00011  -0.02287
   D34       -3.02860   0.00001   0.00000   0.00064   0.00064  -3.02796
   D35        3.13178  -0.00001   0.00000  -0.00034  -0.00034   3.13144
   D36        0.12615   0.00000   0.00000   0.00020   0.00020   0.12634
   D37       -1.37802   0.00002   0.00000   0.00270   0.00270  -1.37532
   D38       -2.47769   0.00000   0.00000  -0.00017  -0.00017  -2.47786
   D39        2.66067   0.00001   0.00000  -0.00019  -0.00019   2.66049
   D40        1.56101  -0.00001   0.00000  -0.00305  -0.00306   1.55794
         Item               Value     Threshold  Converged?
 Maximum Force            0.000261     0.000450     YES
 RMS     Force            0.000041     0.000300     YES
 Maximum Displacement     0.024527     0.001800     NO 
 RMS     Displacement     0.003056     0.001200     NO 
 Predicted change in Energy=-8.205750D-07
 GradGradGradGradGradGradGradGradGradGradGradGradGradGradGradGradGradGrad

 Leave Link  103 at Sat Sep  2 15:21:26 2006, MaxMem=    6291456 cpu:       0.2
 (Enter /usr/local/Gaussian/g03/l9999.exe)
 1\1\GINC-PUBLIX\Freq\UB3LYP\6-311+G(d,p)\C6H5Cl1N1O2(2)\NOBODY\02-Sep-
 2006\0\\#P GEOM=ALLCHECK GUESS=READ SCRF=CHECK GENCHK UB3LYP/6-311+G(D
 ,P) FREQ\\nitrobz/cl basis\\0,2\C,-0.4278712261,-0.5317208003,-0.74949
 3456\C,-0.4266911872,-0.5318880871,0.6339876189\C,0.7535070228,-0.5319
 394383,1.3774874589\C,1.9771872966,-0.5371677621,0.7064798145\C,2.0107
 576533,-0.5380893548,-0.680790658\C,0.810204959,-0.5213805712,-1.42010
 49032\H,0.8335562853,-0.6274972494,-2.4959167729\H,2.9572236341,-0.539
 1948502,-1.2068744355\H,2.8987286075,-0.5382181413,1.2751107694\H,0.69
 8913263,-0.5268220715,2.4576811018\N,-1.7241883798,-0.5372233234,1.352
 6073577\O,-1.6896776839,-0.5232139003,2.5754498908\O,-2.7428114889,-0.
 559202692,0.6774202431\H,-1.3624508614,-0.532353494,-1.2924548923\Cl,0
 .7835702353,2.0198292878,-1.9667149174\\Version=Sun64-SVR4-Unix-G03Rev
 B.04\State=2-A\HF=-897.0524216\S2=0.758796\S2-1=0.\S2A=0.750058\RMSD=2
 .591e-09\RMSF=7.596e-05\Dipole=1.596238,-1.0442036,-0.2261145\DipoleDe
 riv=0.0261517,0.4085073,-0.16662,-0.0121026,-0.0721872,-0.0278968,-0.1
 540301,-0.4394691,0.3229874,-0.2918735,0.152223,0.0452763,-0.0058383,0
 .0825358,-0.0100055,0.1155967,0.2754938,-0.30162,0.1909075,0.0276781,-
 0.2075066,0.0030451,-0.0272177,0.0112517,0.0621,-0.0339027,0.0722168,-
 0.0222742,-0.2013989,0.3707029,0.0120232,-0.0784245,-0.0191399,0.27656
 64,0.2743614,-0.3808285,0.0657428,-0.363852,0.1542368,0.0374207,-0.093
 9319,-0.0356723,-0.1382077,-0.4100365,0.3850726,-0.1487725,-0.0764662,
 0.0332358,-0.0353438,-0.350927,0.2063448,0.0340931,0.4239282,-0.107060
 4,0.0711617,0.0014953,0.0015071,0.0069925,0.1794397,-0.0519885,0.00375
 61,-0.0303904,0.0344005,0.007394,0.0248098,0.0318099,-0.007726,0.11044
 06,0.0193817,0.0432058,-0.0019771,0.0636594,-0.0149969,0.0080009,-0.04
 83226,-0.0056029,0.1389946,0.0008536,-0.0478371,0.0138513,0.0380701,0.
 1300552,0.0081239,-0.0002899,-0.0001242,0.1318365,0.0044581,-0.0103846
 ,-0.0127172,0.0796207,1.7551596,0.2275886,-0.250367,0.0255522,0.224398
 2,0.0153919,-0.1131734,-0.0195464,1.6520216,-0.5892708,-0.0833429,0.22
 60461,-0.0061703,-0.2324712,-0.005121,0.0638315,0.0361144,-1.1577647,-
 1.0855557,-0.1287492,-0.1657673,-0.0169919,-0.2222294,-0.0136927,-0.13
 25729,-0.011327,-0.623195,0.099934,-0.0037592,-0.0241435,-0.0008532,0.
 1169822,0.0196726,-0.0108574,0.0037657,0.1113759,-0.1937627,-0.0008586
 ,0.000202,0.0057197,0.0927612,-0.1138378,0.0079136,-0.0681486,-0.18895
 67\Polar=113.9489922,3.9020051,101.1385755,-9.617897,-32.6565032,128.6
 730884\PG=C01 [X(C6H5Cl1N1O2)]\NImag=0\\0.71379505,0.00188022,0.132775
 63,0.05144820,0.00354799,0.68253234,-0.12001974,-0.00222323,0.01357598
 ,0.57347733,-0.00096659,-0.05480724,0.00074854,0.00025220,0.11823433,-
 0.04484142,-0.00454959,-0.32994476,0.08229023,-0.00174099,0.69097781,0
 .02790799,0.00401439,-0.07286905,-0.23963534,0.00219733,-0.05284514,0.
 64063642,-0.00003490,0.00426798,-0.00002989,0.00004796,-0.05526895,-0.
 00016617,-0.00109312,0.13688979,-0.02698429,0.00029197,-0.03109049,-0.
 12225633,0.00010920,-0.18770474,-0.01385759,0.00216251,0.74483632,-0.0
 1328223,-0.00121081,0.02769362,-0.05808558,-0.00014764,-0.02476985,-0.
 27961499,0.00103843,0.11461079,0.71126830,0.00032213,-0.00281221,-0.00
 049660,0.00029071,0.00321748,0.00069959,-0.00100486,-0.06124805,-0.000
 57396,-0.00051452,0.13091989,0.02144294,0.00240033,-0.04542959,0.02471
 565,0.00100847,0.06561424,0.03880052,-0.00030004,-0.17235138,0.0504845
 0,-0.00127919,0.67375112,-0.04926034,0.00184720,0.01076065,-0.01306941
 ,-0.00022651,-0.02118590,0.02502157,-0.00006422,0.03308974,-0.13003286
 ,0.00075627,0.03222232,0.70042201,-0.00148767,0.00591138,-0.00080245,0
 .00100454,-0.00361476,0.00239482,-0.00447158,0.00492602,0.00017087,0.0
 0323437,-0.06187701,-0.00447342,-0.00342358,0.13864863,-0.01455554,-0.
 00035655,0.05603381,-0.02496163,-0.00066017,-0.04700073,0.07784628,-0.
 00065363,-0.02536762,-0.03085739,0.00052562,-0.34010649,-0.05104356,0.
 00300085,0.68246198,-0.27079658,-0.00613274,0.05515355,0.01773595,0.00
 048616,0.05966704,-0.04400290,0.00017093,-0.00356453,0.02670783,-0.000
 72182,-0.05303355,-0.25873246,0.00679576,-0.05814977,0.61388422,0.0083
 3038,-0.05405934,-0.01297177,0.00429296,0.00406370,0.00717558,-0.00003
 561,-0.00506691,-0.00247245,-0.00469032,0.00711849,0.00644518,-0.00623
 667,-0.05691329,-0.01214087,-0.00243895,0.11496906,0.09945719,-0.00396
 060,-0.16205170,0.02901342,0.00144197,-0.02669192,-0.00027656,-0.00004
 761,0.00017938,-0.02919416,0.00116327,-0.03009664,-0.10123466,-0.00292
 880,-0.17128696,-0.00360537,0.04647460,0.71948267,0.00286216,0.0032426
 1,0.02866588,-0.00426753,-0.00008276,0.00185661,-0.00166855,-0.0000301
 5,0.00004283,-0.00436267,0.00022005,-0.00278768,0.00534081,-0.00325041
 ,-0.02730095,-0.05839308,0.00082200,0.00570202,0.05837207,-0.00156297,
 0.00304608,0.00254391,-0.00058229,0.00562154,-0.00081720,0.00008684,-0
 .00075152,0.00022886,0.00063029,0.00543503,-0.00056385,0.00143379,0.00
 334880,0.00260733,0.00067522,-0.03376629,-0.03308795,-0.00075584,0.031
 80779,-0.00051968,-0.00052718,-0.01002768,0.00247314,-0.00079118,0.001
 28219,-0.00002824,0.00014571,0.00048969,-0.00301212,-0.00074296,0.0007
 4761,0.00195612,-0.00055105,-0.01089762,0.00592300,-0.03154060,-0.3426
 4647,-0.00660733,0.03054173,0.36038426,-0.00298367,0.00023181,-0.00351
 082,0.00044775,-0.00000448,-0.00076001,0.00100123,-0.00006732,-0.00066
 206,0.00457709,-0.00018349,-0.00276895,-0.27542938,0.00064955,0.120724
 94,-0.01787904,0.00019251,0.01408394,0.00079783,-0.00013452,-0.0000703
 3,0.28942115,0.00003260,0.00586213,0.00029080,-0.00023712,-0.00014120,
 -0.00015298,0.00053423,0.00749457,-0.00009610,-0.00014023,0.00598474,0
 .00050170,-0.00116484,-0.03975932,-0.00101742,0.00116457,0.00310990,-0
 .00004225,0.00007460,-0.00295213,0.00054901,-0.00029686,0.02549691,-0.
 00356924,0.00013441,-0.00141133,-0.00101020,-0.00000478,-0.00092872,-0
 .00051946,0.00003210,-0.00570408,0.02816136,-0.00008552,-0.00919028,0.
 12073183,-0.00020844,-0.12619087,-0.01658059,0.00022258,0.01179223,0.0
 0046237,-0.00004037,0.00065722,-0.12821309,0.00016348,0.12973470,0.000
 12407,-0.00006164,0.00085397,-0.00230141,0.00002610,0.00351906,-0.0191
 5778,-0.00001470,-0.01530417,-0.26299098,0.00038751,-0.12623726,0.0053
 8254,-0.00000533,0.00290346,0.00126172,-0.00002354,0.00090413,0.000143
 86,0.00004558,0.00023434,0.00061687,-0.00001235,-0.00028313,0.27685408
 ,0.00004785,-0.00092996,-0.00012254,0.00012186,0.00684730,0.00007902,-
 0.00003532,0.00321164,0.00014965,0.00022604,-0.03801939,-0.00011472,-0
 .00032682,0.00385802,-0.00007449,0.00007430,0.00742029,0.00046059,0.00
 025875,-0.00001764,-0.00003901,0.00004986,-0.00417165,-0.00004685,-0.0
 0030391,0.02602822,0.00065637,0.00006822,-0.00058012,0.00282210,-0.000
 03795,-0.00098576,0.01554199,0.00004433,0.01161315,-0.12641479,0.00003
 996,-0.13664824,-0.02797969,0.00039327,-0.01154929,0.00138921,-0.00020
 093,-0.00565019,-0.00131929,0.00001310,-0.00050430,0.00027571,0.000041
 95,0.00097898,0.13438791,-0.00014190,0.14180014,-0.00531402,0.00006957
 ,-0.00246452,0.00687945,-0.00009160,-0.02599441,-0.05805774,0.00007479
 ,0.01121646,0.00433804,0.00011048,0.02686771,-0.00463650,-0.00006248,0
 .00246921,-0.00083011,0.00005753,0.00003573,0.00006173,-0.00000607,0.0
 0002280,0.00009490,0.00001569,0.00124565,0.00101276,-0.00003094,-0.000
 48380,0.05630530,0.00013862,0.00522234,-0.00029399,0.00014777,0.006029
 34,0.00035880,0.00008967,-0.04087214,-0.00140834,-0.00021955,0.0061829
 8,-0.00000246,0.00004464,0.00711704,-0.00010090,-0.00007913,-0.0011715
 3,-0.00021890,-0.00005444,-0.00051756,0.00011916,0.00003144,-0.0005813
 4,0.00002975,-0.00000154,-0.00402132,-0.00000649,-0.00009674,0.0260547
 8,-0.00255894,-0.00000958,0.00029447,0.00087092,-0.00006880,-0.0123212
 8,0.00923033,-0.00145793,-0.34592122,-0.00149151,-0.00002376,-0.006461
 29,0.00185072,-0.00001479,0.00053010,0.00011813,-0.00007081,0.00068158
 ,0.00002588,0.00000011,-0.00006449,-0.00020209,-0.00000784,-0.00030642
 ,0.00005410,0.00002351,0.00071790,-0.01245293,0.00162773,0.36490007,-0
 .00400032,-0.00114366,0.03123122,-0.10721244,-0.00082628,-0.00451303,-
 0.03913367,-0.00008352,0.01218094,0.00118921,-0.00021451,-0.00848452,0
 .00018486,0.00013459,0.00039292,0.00575644,0.00151744,-0.00550528,0.00
 093825,-0.00034009,-0.00053048,-0.00029228,0.00018763,-0.00011061,-0.0
 0019949,0.00004652,0.00066758,0.00063263,0.00011209,0.00060776,0.69973
 371,0.00043804,-0.00451110,0.00016436,-0.00031824,-0.06831087,0.000251
 99,0.00040733,-0.00546496,0.00008006,-0.00021077,0.00878134,0.00021177
 ,-0.00020053,-0.00180139,-0.00024366,0.00001351,0.00965524,0.00053551,
 -0.00032444,0.00055671,-0.00015207,-0.00000872,-0.00138336,-0.00004192
 ,-0.00000755,0.00088099,-0.00000584,-0.00004264,-0.00397898,-0.0000233
 3,0.00745125,0.21183464,0.03564834,0.00012976,-0.01565996,-0.00160063,
 0.00012001,-0.10753476,0.00613501,0.00019332,0.02240121,-0.00952369,0.
 00011503,0.00090529,-0.00188117,0.00036254,-0.00409650,-0.00368229,-0.
 00037391,-0.00722788,0.00140424,0.00006993,-0.00021343,-0.00008904,-0.
 00011132,-0.00044807,-0.00152446,0.00001666,0.00086174,-0.00319621,-0.
 00008437,-0.00338712,0.13485697,0.00843608,0.86432991,-0.00548931,0.00
 019139,-0.00317619,0.00538277,0.00049347,0.04175220,-0.00746739,0.0000
 1613,0.00155285,0.00157303,0.00002536,0.00126148,-0.00046625,-0.000042
 02,0.00088351,-0.00037961,-0.00053523,0.00303690,-0.00061917,0.0000930
 7,0.00017225,0.00004049,-0.00003418,0.00021928,-0.00003601,-0.00001104
 ,-0.00007708,-0.00212398,-0.00002876,0.00379430,-0.13204660,-0.0004200
 9,0.01577849,0.13487849,-0.00010566,0.00329224,0.00006291,0.00021919,0
 .01612657,-0.00050602,-0.00020102,0.00236828,0.00001179,0.00008009,-0.
 00083242,-0.00009727,0.00004567,0.00018853,0.00009441,0.00001416,-0.00
 146264,-0.00018564,0.00009175,-0.00030268,0.00005752,0.00000038,0.0001
 1345,0.00000583,0.00000167,-0.00000800,0.00000124,0.00000262,-0.000128
 88,0.00001499,-0.00061567,-0.07075978,-0.00484229,0.00140264,0.0260643
 2,0.00556348,0.00025767,0.00324070,0.02443502,-0.00072927,-0.05341100,
 -0.00857132,-0.00005257,-0.00392653,0.00233072,-0.00001226,-0.00097736
 ,-0.00004711,-0.00012095,0.00072106,0.00183247,0.00017577,-0.00171011,
 0.00060996,-0.00003464,-0.00023821,0.00010267,0.00003331,0.00027596,0.
 00032634,0.00000516,-0.00011380,0.00266454,-0.00002385,0.00126668,0.01
 108446,-0.00460234,-0.51887110,0.02064477,0.00758411,0.65648288,-0.001
 30106,0.00046641,-0.00624723,-0.06618631,-0.00104654,-0.01856745,-0.00
 137415,-0.00006101,0.00859417,-0.00362891,0.00020252,0.00097910,-0.000
 96172,0.00000989,-0.00194268,-0.00074355,-0.00074441,0.00077926,-0.000
 19151,0.00013412,0.00008184,0.00006695,-0.00009214,0.00012862,-0.00077
 558,0.00001044,0.00051422,0.00132344,-0.00006318,-0.00008597,-0.425146
 23,-0.00686611,-0.17177925,0.00688050,-0.00087564,-0.06012927,0.494491
 95,-0.00011944,0.00213438,-0.00005928,-0.00100825,0.01593217,-0.000306
 93,-0.00018362,0.00344434,0.00009867,0.00004457,-0.00130919,-0.0001221
 3,0.00006985,0.00024204,0.00011293,-0.00001043,-0.00082189,-0.00009571
 ,0.00001748,0.00000240,0.00001093,0.00000077,0.00012380,0.00001456,-0.
 00001362,-0.00042541,0.00001226,0.00003880,0.00053302,0.00000608,-0.00
 642546,-0.07102032,-0.00366656,-0.00132398,0.02481414,-0.00242869,0.00
 891657,0.02644524,0.00508023,0.00037483,-0.00935410,-0.00316356,0.0001
 1281,0.01893750,-0.00019164,-0.00004376,-0.00208617,0.00118630,0.00001
 846,0.00062223,0.00127763,-0.00011732,0.00059721,-0.00045719,-0.000069
 06,0.00240809,-0.00018778,0.00001698,0.00002788,0.00021152,-0.00000468
 ,0.00025332,0.00019414,0.00000176,-0.00012102,0.00152402,-0.00002003,0
 .00043720,-0.16733608,-0.00420723,-0.22964748,-0.08655666,-0.00234099,
 -0.08448017,0.24527146,0.00638269,0.30050716,-0.27115736,-0.00041666,-
 0.13023558,0.00533155,0.00020381,0.00024048,0.00048515,0.00005511,0.00
 143819,0.00020883,-0.00000115,0.00036137,-0.00239693,-0.00021321,0.003
 32207,-0.01557221,-0.00010602,-0.01347262,0.00094467,0.00011033,-0.000
 00948,-0.00065080,0.00002237,-0.00068607,-0.00002419,0.00001306,-0.000
 04629,0.00040418,-0.00004118,0.00022415,-0.00078077,-0.00004932,-0.000
 43111,-0.00006497,-0.00004103,-0.00090083,-0.00252405,0.00005473,0.003
 19699,0.28572282,0.00119775,-0.03896524,-0.00110344,0.00001425,0.00669
 524,0.00048038,-0.00042994,0.00571292,-0.00007045,0.00013436,-0.000914
 98,-0.00023188,0.00001953,0.00604457,0.00030105,-0.00091136,0.00324059
 ,-0.00004958,-0.00010343,-0.00320272,0.00060285,-0.00001074,0.00026074
 ,-0.00003126,0.00000679,-0.00075702,-0.00000997,0.00000108,0.00001640,
 -0.00001003,0.00033210,-0.00467963,0.00004059,-0.00008513,0.00059875,-
 0.00000162,-0.00014686,-0.00006824,-0.00004665,0.00009692,0.02552928,-
 0.12839943,-0.00026619,-0.13426080,-0.02743887,-0.00001342,-0.01005924
 ,0.00172689,-0.00000846,-0.00569935,0.00069583,-0.00002362,-0.00036624
 ,0.00350696,0.00010005,-0.00141623,0.01520253,0.00028997,0.01266413,-0
 .00049876,-0.00003825,0.00068606,0.00076586,-0.00003253,0.00049207,-0.
 00005721,-0.00000845,0.00005769,-0.00145823,0.00004911,-0.00040392,-0.
 00402372,-0.00018239,-0.00161023,0.00067677,0.00006079,0.00170237,0.00
 222746,0.00001561,0.00176890,0.13703994,0.00019576,0.13649418,-0.00108
 465,-0.00075486,-0.00087970,0.00152296,-0.00026670,0.00415161,-0.00493
 986,0.00004559,-0.00009702,0.00213589,0.00032535,-0.00382362,-0.001365
 93,0.00112759,0.00026915,0.00198339,-0.00040205,0.00027605,0.00004113,
 0.00017255,-0.00008582,0.00017091,-0.00005398,0.00002327,0.00008954,-0
 .00014066,0.00006584,-0.00009008,0.00002027,0.00001514,0.00037670,0.00
 013831,-0.00011519,-0.00006199,-0.00001916,0.00005412,0.00007022,-0.00
 005797,-0.00004936,0.00007408,-0.00011531,0.00003399,0.00107768,-0.008
 11036,-0.00642708,0.00852144,-0.00202230,-0.00062465,-0.00320030,0.000
 12529,0.00035698,0.00131773,0.00174568,-0.00062671,-0.00338248,0.00742
 622,-0.00631924,0.00860551,0.00089983,0.00368464,-0.00945890,-0.000125
 76,-0.00830779,0.00231713,-0.00045018,0.00054277,-0.00014358,-0.000023
 49,0.00010394,-0.00021126,-0.00004009,0.00011586,0.00001443,-0.0001324
 2,0.00020146,-0.00040545,0.00025838,-0.00007186,-0.00004984,0.00015594
 ,-0.00002648,-0.00005783,0.00031224,0.00048935,-0.00013798,-0.00001897
 ,0.01690883,0.00213181,0.00246450,-0.00229080,0.00023474,0.00050555,-0
 .00022884,-0.00012200,0.00018210,0.00033181,0.00010039,0.00067595,-0.0
 0001298,-0.00202389,0.00279484,-0.00243184,-0.00021263,-0.00094329,0.0
 0015380,-0.00006800,-0.00143969,0.00031728,0.00011174,-0.00011514,-0.0
 0000470,0.00002877,-0.00018839,0.00012313,0.00000400,-0.00002521,0.000
 03775,-0.00051813,-0.00022100,0.00019837,0.00003714,0.00007861,0.00003
 861,0.00017571,0.00002557,0.00012945,-0.00004121,-0.00006576,-0.000049
 39,0.00016155,-0.00372863,0.00368834\\0.00000195,0.00002204,-0.0000805
 2,0.00004436,-0.00000346,-0.00002056,0.00002063,0.00000364,0.00003997,
 0.00003285,0.00000329,0.00007519,0.00002677,-0.00002412,-0.00004878,-0
 .00004906,-0.00003183,-0.00002559,-0.00000676,-0.00000774,-0.00000511,
 0.00000409,0.00000317,-0.00000741,-0.00000287,0.00000865,0.00000356,-0
 .00001047,0.00000185,0.00004023,-0.00034542,0.00000233,0.00020414,0.00
 017277,0.00001162,-0.00007215,0.00012976,0.00000745,-0.00011040,-0.000
 05242,-0.00003316,0.00001062,0.00003383,0.00003627,-0.00000321\\\@


 SILVERMAN'S PARADOX - IF MURPHY'S LAW CAN GO WRONG, IT WILL.
 Job cpu time:  0 days 13 hours 33 minutes 18.8 seconds.
 File lengths (MBytes):  RWF=    233 Int=      0 D2E=      0 Chk=     14 Scr=      1
 Normal termination of Gaussian 03 at Sat Sep  2 15:21:31 2006.
