 Entering Gaussian System, Link 0=/usr/local/Gaussian/g03/g03
 Initial command:
 /usr/local/Gaussian/g03/l1.exe /export/scratch//webmo/3309/Gau-12885.inp -scrdir=/export/scratch//webmo/3309/
 Entering Link 1 = /usr/local/Gaussian/g03/l1.exe PID=     12887.
  
 Copyright (c) 1988,1990,1992,1993,1995,1998,2003, Gaussian, Inc.
                  All Rights Reserved.
  
 This is the Gaussian(R) 03 program.  It is based on the
 the Gaussian(R) 98 system (copyright 1998, Gaussian, Inc.),
 the Gaussian(R) 94 system (copyright 1995, Gaussian, Inc.),
 the Gaussian 92(TM) system (copyright 1992, Gaussian, Inc.),
 the Gaussian 90(TM) system (copyright 1990, Gaussian, Inc.),
 the Gaussian 88(TM) system (copyright 1988, Gaussian, Inc.),
 the Gaussian 86(TM) system (copyright 1986, Carnegie Mellon
 University), and the Gaussian 82(TM) system (copyright 1983,
 Carnegie Mellon University). Gaussian is a federally registered
 trademark of Gaussian, Inc.
  
 This software contains proprietary and confidential information,
 including trade secrets, belonging to Gaussian, Inc.
  
 This software is provided under written license and may be
 used, copied, transmitted, or stored only in accord with that
 written license.
  
 The following legend is applicable only to US Government
 contracts under DFARS:
  
                    RESTRICTED RIGHTS LEGEND
  
 Use, duplication or disclosure by the US Government is subject
 to restrictions as set forth in subparagraph (c)(1)(ii) of the
 Rights in Technical Data and Computer Software clause at DFARS
 252.227-7013.
  
 Gaussian, Inc.
 Carnegie Office Park, Building 6, Pittsburgh, PA 15106 USA
  
 The following legend is applicable only to US Government
 contracts under FAR:
  
                    RESTRICTED RIGHTS LEGEND
  
 Use, reproduction and disclosure by the US Government is subject
 to restrictions as set forth in subparagraph (c) of the
 Commercial Computer Software - Restricted Rights clause at FAR
 52.227-19.
  
 Gaussian, Inc.
 Carnegie Office Park, Building 6, Pittsburgh, PA 15106 USA
  
  
 ---------------------------------------------------------------
 Warning -- This program may not be used in any manner that
 competes with the business of Gaussian, Inc. or will provide
 assistance to any competitor of Gaussian, Inc.  The licensee
 of this program is prohibited from giving any competitor of
 Gaussian, Inc. access to this program.  By using this program,
 the user acknowledges that Gaussian, Inc. is engaged in the
 business of creating and licensing software in the field of
 computational chemistry and represents and warrants to the
 licensee that it is not a competitor of Gaussian, Inc. and that
 it will not use this program in any manner prohibited above.
 ---------------------------------------------------------------
  

 Cite this work as:
 Gaussian 03, Revision B.04,
 M. J. Frisch, G. W. Trucks, H. B. Schlegel, G. E. Scuseria, 
 M. A. Robb, J. R. Cheeseman, J. A. Montgomery, Jr., T. Vreven, 
 K. N. Kudin, J. C. Burant, J. M. Millam, S. S. Iyengar, J. Tomasi, 
 V. Barone, B. Mennucci, M. Cossi, G. Scalmani, N. Rega, 
 G. A. Petersson, H. Nakatsuji, M. Hada, M. Ehara, K. Toyota, 
 R. Fukuda, J. Hasegawa, M. Ishida, T. Nakajima, Y. Honda, O. Kitao, 
 H. Nakai, M. Klene, X. Li, J. E. Knox, H. P. Hratchian, J. B. Cross, 
 C. Adamo, J. Jaramillo, R. Gomperts, R. E. Stratmann, O. Yazyev, 
 A. J. Austin, R. Cammi, C. Pomelli, J. W. Ochterski, P. Y. Ayala, 
 K. Morokuma, G. A. Voth, P. Salvador, J. J. Dannenberg, 
 V. G. Zakrzewski, S. Dapprich, A. D. Daniels, M. C. Strain, 
 O. Farkas, D. K. Malick, A. D. Rabuck, K. Raghavachari, 
 J. B. Foresman, J. V. Ortiz, Q. Cui, A. G. Baboul, S. Clifford, 
 J. Cioslowski, B. B. Stefanov, G. Liu, A. Liashenko, P. Piskorz, 
 I. Komaromi, R. L. Martin, D. J. Fox, T. Keith, M. A. Al-Laham, 
 C. Y. Peng, A. Nanayakkara, M. Challacombe, P. M. W. Gill, 
 B. Johnson, W. Chen, M. W. Wong, C. Gonzalez, and J. A. Pople, 
 Gaussian, Inc., Pittsburgh PA, 2003.
 
 ***************************************************
 Gaussian 03:  Sun64-SVR4-Unix-G03RevB.04 2-Jun-2003
                      2-Sep-2006 
 ***************************************************
 ------------------------------
 #P B3LYP/6-311+G(d,p) OPT FREQ
 ------------------------------
 1/14=-1,18=20,26=3,38=1/1,3;
 2/9=110,17=6,18=5,40=1/2;
 3/5=4,6=6,7=111,11=2,16=1,25=1,30=1,74=-5/1,2,3;
 4//1;
 5/5=2,38=5/2;
 6/7=2,8=2,9=2,10=2,28=1/1;
 7//1,2,3,16;
 1/14=-1,18=20/3(1);
 99//99;
 2/9=110/2;
 3/5=4,6=6,7=111,11=2,16=1,25=1,30=1,74=-5/1,2,3;
 4/5=5,16=3/1;
 5/5=2,38=5/2;
 7//1,2,3,16;
 1/14=-1,18=20/3(-5);
 2/9=110/2;
 6/7=2,8=2,9=2,10=2,19=2,28=1/1;
 99/9=1/99;
 Leave Link    1 at Sat Sep  2 23:43:28 2006, MaxMem=          0 cpu:       0.2
 (Enter /usr/local/Gaussian/g03/l101.exe)
 --------------
 fluorobz basis
 --------------
 Symbolic Z-matrix:
 Charge =  0 Multiplicity = 1
 C
 C                    1    B1
 C                    2    B2       1    A1
 C                    3    B3       2    A2       1    D1       0
 C                    4    B4       3    A3       2    D2       0
 C                    1    B5       2    A4       3    D3       0
 H                    6    B6       1    A5       2    D4       0
 H                    5    B7       4    A6       3    D5       0
 F                    4    B8       3    A7       2    D6       0
 H                    3    B9       2    A8       1    D7       0
 H                    2    B10      1    A9       6    D8       0
 H                    1    B11      2    A10      3    D9       0
       Variables:
  A5                  120.11912                  
  D6                  179.91919                  
  A6                  119.48227                  
  D7                 -179.99256                  
  A7                  118.96974                  
  D8                  179.99986                  
  A8                  121.88734                  
  D9                 -179.97093                  
  A9                  120.11912                  
  A10                 120.09221                  
  B1                    1.39155                  
  B2                    1.39096                  
  B3                    1.38561                  
  B4                    1.38561                  
  B5                    1.39155                  
  B6                    1.08377                  
  B7                    1.08281                  
  B8                    1.34633                  
  B9                    1.08281                  
  B10                   1.08377                  
  B11                   1.08335                  
  D1                    0.01142                  
  D2                    0.01899                  
  A1                  120.4316                   
  D3                   -0.04112                  
  A2                  118.63039                  
  D4                 -179.99986                  
  A3                  122.06046                  
  A4                  119.81555                  
  D5                  179.97713                  
 
                    Isotopes and Nuclear Properties:

  Atom         1           2           3           4           5           6           7           8           9          10
 IAtWgt=          12          12          12          12          12          12           1           1          19           1
 AtmWgt=  12.0000000  12.0000000  12.0000000  12.0000000  12.0000000  12.0000000   1.0078250   1.0078250  18.9984032   1.0078250
 IAtSpn=           0           0           0           0           0           0           1           1           1           1
 AtZEff=   0.0000000   0.0000000   0.0000000   0.0000000   0.0000000   0.0000000   0.0000000   0.0000000   0.0000000   0.0000000
 AtQMom=   0.0000000   0.0000000   0.0000000   0.0000000   0.0000000   0.0000000   0.0000000   0.0000000   0.0000000   0.0000000
 AtGFac=   0.0000000   0.0000000   0.0000000   0.0000000   0.0000000   0.0000000   2.7928460   2.7928460   2.6288670   2.7928460

  Atom        11          12
 IAtWgt=           1           1
 AtmWgt=   1.0078250   1.0078250
 IAtSpn=           1           1
 AtZEff=   0.0000000   0.0000000
 AtQMom=   0.0000000   0.0000000
 AtGFac=   2.7928460   2.7928460
 Leave Link  101 at Sat Sep  2 23:43:30 2006, MaxMem=    6291456 cpu:       0.2
 (Enter /usr/local/Gaussian/g03/l103.exe)

 GradGradGradGradGradGradGradGradGradGradGradGradGradGradGradGradGradGrad
 Berny optimization.
 Initialization pass.
                           ----------------------------
                           !    Initial Parameters    !
                           ! (Angstroms and Degrees)  !
 --------------------------                            --------------------------
 ! Name  Definition              Value          Derivative Info.                !
 --------------------------------------------------------------------------------
 ! R1    R(1,2)                  1.3916         estimate D2E/DX2                !
 ! R2    R(1,6)                  1.3916         estimate D2E/DX2                !
 ! R3    R(1,12)                 1.0834         estimate D2E/DX2                !
 ! R4    R(2,3)                  1.391          estimate D2E/DX2                !
 ! R5    R(2,11)                 1.0838         estimate D2E/DX2                !
 ! R6    R(3,4)                  1.3856         estimate D2E/DX2                !
 ! R7    R(3,10)                 1.0828         estimate D2E/DX2                !
 ! R8    R(4,5)                  1.3856         estimate D2E/DX2                !
 ! R9    R(4,9)                  1.3463         estimate D2E/DX2                !
 ! R10   R(5,6)                  1.391          estimate D2E/DX2                !
 ! R11   R(5,8)                  1.0828         estimate D2E/DX2                !
 ! R12   R(6,7)                  1.0838         estimate D2E/DX2                !
 ! A1    A(2,1,6)              119.8156         estimate D2E/DX2                !
 ! A2    A(2,1,12)             120.0922         estimate D2E/DX2                !
 ! A3    A(6,1,12)             120.0922         estimate D2E/DX2                !
 ! A4    A(1,2,3)              120.4316         estimate D2E/DX2                !
 ! A5    A(1,2,11)             120.1191         estimate D2E/DX2                !
 ! A6    A(3,2,11)             119.4493         estimate D2E/DX2                !
 ! A7    A(2,3,4)              118.6304         estimate D2E/DX2                !
 ! A8    A(2,3,10)             121.8873         estimate D2E/DX2                !
 ! A9    A(4,3,10)             119.4823         estimate D2E/DX2                !
 ! A10   A(3,4,5)              122.0605         estimate D2E/DX2                !
 ! A11   A(3,4,9)              118.9697         estimate D2E/DX2                !
 ! A12   A(5,4,9)              118.9697         estimate D2E/DX2                !
 ! A13   A(4,5,6)              118.6304         estimate D2E/DX2                !
 ! A14   A(4,5,8)              119.4823         estimate D2E/DX2                !
 ! A15   A(6,5,8)              121.8873         estimate D2E/DX2                !
 ! A16   A(1,6,5)              120.4316         estimate D2E/DX2                !
 ! A17   A(1,6,7)              120.1191         estimate D2E/DX2                !
 ! A18   A(5,6,7)              119.4493         estimate D2E/DX2                !
 ! D1    D(6,1,2,3)             -0.0411         estimate D2E/DX2                !
 ! D2    D(6,1,2,11)           179.9999         estimate D2E/DX2                !
 ! D3    D(12,1,2,3)          -179.9709         estimate D2E/DX2                !
 ! D4    D(12,1,2,11)            0.0701         estimate D2E/DX2                !
 ! D5    D(2,1,6,5)              0.0411         estimate D2E/DX2                !
 ! D6    D(2,1,6,7)           -179.9999         estimate D2E/DX2                !
 ! D7    D(12,1,6,5)           179.9709         estimate D2E/DX2                !
 ! D8    D(12,1,6,7)            -0.0701         estimate D2E/DX2                !
 ! D9    D(1,2,3,4)              0.0114         estimate D2E/DX2                !
 ! D10   D(1,2,3,10)          -179.9926         estimate D2E/DX2                !
 ! D11   D(11,2,3,4)           179.9707         estimate D2E/DX2                !
 ! D12   D(11,2,3,10)           -0.0333         estimate D2E/DX2                !
 ! D13   D(2,3,4,5)              0.019          estimate D2E/DX2                !
 ! D14   D(2,3,4,9)            179.9192         estimate D2E/DX2                !
 ! D15   D(10,3,4,5)          -179.9771         estimate D2E/DX2                !
 ! D16   D(10,3,4,9)            -0.0769         estimate D2E/DX2                !
 ! D17   D(3,4,5,6)             -0.019          estimate D2E/DX2                !
 ! D18   D(3,4,5,8)            179.9771         estimate D2E/DX2                !
 ! D19   D(9,4,5,6)           -179.9192         estimate D2E/DX2                !
 ! D20   D(9,4,5,8)              0.0769         estimate D2E/DX2                !
 ! D21   D(4,5,6,1)             -0.0114         estimate D2E/DX2                !
 ! D22   D(4,5,6,7)           -179.9707         estimate D2E/DX2                !
 ! D23   D(8,5,6,1)            179.9926         estimate D2E/DX2                !
 ! D24   D(8,5,6,7)              0.0333         estimate D2E/DX2                !
 --------------------------------------------------------------------------------
 Trust Radius=3.00D-01 FncErr=1.00D-07 GrdErr=1.00D-06
 Number of steps in this run=  64 maximum allowed number of steps= 100.
 GradGradGradGradGradGradGradGradGradGradGradGradGradGradGradGradGradGrad

 Leave Link  103 at Sat Sep  2 23:43:31 2006, MaxMem=    6291456 cpu:       0.0
 (Enter /usr/local/Gaussian/g03/l202.exe)
                          Input orientation:                          
 ---------------------------------------------------------------------
 Center     Atomic     Atomic              Coordinates (Angstroms)
 Number     Number      Type              X           Y           Z
 ---------------------------------------------------------------------
    1          6             0        0.000000    0.000000    0.000000
    2          6             0        0.000000    0.000000    1.391552
    3          6             0        1.199331    0.000000    2.096085
    4          6             0        2.387803    0.000242    1.383728
    5          6             0        2.414946    0.000872   -0.001617
    6          6             0        1.207353    0.000866   -0.691893
    7          1             0        1.213095    0.000873   -1.775651
    8          1             0        3.367798    0.001417   -0.515960
    9          9             0        3.552669    0.001905    2.058766
   10          1             0        1.226839   -0.000119    3.178545
   11          1             0       -0.937447   -0.000670    1.935389
   12          1             0       -0.937339    0.000476   -0.543186
 ---------------------------------------------------------------------
                    Distance matrix (angstroms):
                    1          2          3          4          5
     1  C    0.000000
     2  C    1.391552   0.000000
     3  C    2.414946   1.390956   0.000000
     4  C    2.759765   2.387815   1.385611   0.000000
     5  C    2.414946   2.787989   2.424474   1.385611   0.000000
     6  C    1.391552   2.407996   2.787989   2.387815   1.390957
     7  H    2.150474   3.391575   3.871761   3.370699   2.142812
     8  H    3.407093   3.870487   3.394853   2.137570   1.082809
     9  F    4.106090   3.614780   2.353635   1.346326   2.353634
    10  H    3.407093   2.167597   1.082809   2.137570   3.394853
    11  H    2.150474   1.083774   2.142811   3.370699   3.871761
    12  H    1.083354   2.149841   3.395749   3.843119   3.395749
                    6          7          8          9         10
     6  C    0.000000
     7  H    1.083774   0.000000
     8  H    2.167597   2.495911   0.000000
     9  F    3.614780   4.491811   2.581354   0.000000
    10  H    3.870487   4.954215   4.270020   2.581354   0.000000
    11  H    3.391575   4.289132   4.954215   4.491811   2.495910
    12  H    2.149841   2.478576   4.305224   5.189444   4.305224
                   11         12
    11  H    0.000000
    12  H    2.478576   0.000000
 Stoichiometry    C6H5F
 Framework group  CS[SG(C2HF),X(C4H4)]
 Deg. of freedom    17
 Full point group                 CS      NOp   2
 Largest Abelian subgroup         CS      NOp   2
 Largest concise Abelian subgroup CS      NOp   2
                         Standard orientation:                         
 ---------------------------------------------------------------------
 Center     Atomic     Atomic              Coordinates (Angstroms)
 Number     Number      Type              X           Y           Z
 ---------------------------------------------------------------------
    1          6             0        0.000616   -1.829907    0.000000
    2          6             0        0.000185   -1.132192    1.203998
    3          6             0        0.000185    0.258740    1.212237
    4          6             0        0.000380    0.929858    0.000000
    5          6             0        0.000185    0.258740   -1.212237
    6          6             0        0.000185   -1.132192   -1.203998
    7          1             0        0.000515   -1.670613   -2.144566
    8          1             0       -0.000027    0.825279   -2.135010
    9          9             0       -0.001280    2.276183    0.000000
   10          1             0       -0.000027    0.825279    2.135010
   11          1             0        0.000515   -1.670613    2.144566
   12          1             0        0.000138   -2.913261    0.000000
 ---------------------------------------------------------------------
 Rotational constants (GHZ):      5.7093806      2.5728819      1.7736172
 Leave Link  202 at Sat Sep  2 23:43:34 2006, MaxMem=    6291456 cpu:       0.5
 (Enter /usr/local/Gaussian/g03/l301.exe)
 Standard basis: 6-311+G(d,p) (5D, 7F)
 There are   109 symmetry adapted basis functions of A'  symmetry.
 There are    75 symmetry adapted basis functions of A"  symmetry.
 Integral buffers will be    131072 words long.
 Raffenetti 2 integral format.
 Two-electron integral symmetry is turned on.
   184 basis functions,   292 primitive gaussians,   191 cartesian basis functions
    25 alpha electrons       25 beta electrons
       nuclear repulsion energy       269.7956315801 Hartrees.
 IExCor= 402 DFT=T Ex=B+HF Corr=LYP ExCW=0 ScaHFX=  0.200000
 ScaDFX=  0.800000  0.720000  1.000000  0.810000
 IRadAn=      0 IRanWt=     -1 IRanGd=            0 ICorTp=0
 NAtoms=   12 NActive=   12 NUniq=    8 SFac= 2.76D+00 NAtFMM=   60 Big=F
 Leave Link  301 at Sat Sep  2 23:43:36 2006, MaxMem=    6291456 cpu:       0.2
 (Enter /usr/local/Gaussian/g03/l302.exe)
 NPDir=0 NMtPBC=     1 NCelOv=     1 NCel=       1 NClECP=     1 NCelD=      1
         NCelK=      1 NCelE2=     1 NClLst=     1 CellRange=     0.0.
 One-electron integrals computed using PRISM.
 One-electron integral symmetry used in STVInt
 NBasis=   184 RedAO= T  NBF=   109    75
 NBsUse=   184 1.00D-06 NBFU=   109    75
 Precomputing XC quadrature grid using
 IXCGrd= 2 IRadAn=           0 IRanWt=          -1 IRanGd=           0.
 NRdTot=     769 NPtTot=       97600 NUsed=      103032 NTot=      103064
 NSgBfM=   191   191   191   191.
 Leave Link  302 at Sat Sep  2 23:43:43 2006, MaxMem=    6291456 cpu:       1.9
 (Enter /usr/local/Gaussian/g03/l303.exe)
 DipDrv:  MaxL=1.
 Leave Link  303 at Sat Sep  2 23:43:44 2006, MaxMem=    6291456 cpu:       0.1
 (Enter /usr/local/Gaussian/g03/l401.exe)
 Harris functional with IExCor=  402 diagonalized for initial guess.
 ExpMin= 4.38D-02 ExpMax= 1.14D+04 ExpMxC= 1.72D+03 IAcc=2 IRadAn=         4 AccDes= 0.00D+00
 HarFok:  IExCor= 402 AccDes= 0.00D+00 IRadAn=         4 IDoV=1
 ScaDFX=  1.000000  1.000000  1.000000  1.000000
 Harris En= -331.683489006726    
 Initial guess orbital symmetries:
       Occupied  (A') (A") (A') (A') (A") (A') (A') (A') (A') (A")
                 (A') (A") (A') (A') (A") (A') (A') (A") (A') (A')
                 (A") (A') (A") (A") (A')
       Virtual   (A") (A') (A') (A') (A") (A') (A') (A") (A') (A')
                 (A') (A") (A') (A') (A") (A") (A') (A') (A") (A")
                 (A') (A') (A") (A") (A') (A') (A') (A') (A") (A')
                 (A") (A') (A") (A") (A') (A') (A") (A') (A') (A')
                 (A") (A') (A') (A") (A") (A') (A") (A') (A") (A')
                 (A') (A") (A") (A') (A') (A") (A') (A') (A') (A")
                 (A') (A') (A") (A') (A") (A") (A') (A') (A') (A")
                 (A") (A") (A') (A") (A') (A") (A') (A') (A') (A")
                 (A') (A") (A') (A') (A') (A") (A") (A') (A') (A')
                 (A") (A') (A") (A') (A") (A") (A') (A') (A") (A")
                 (A') (A") (A') (A') (A") (A') (A") (A') (A") (A')
                 (A") (A') (A") (A') (A") (A') (A') (A') (A') (A')
                 (A") (A") (A') (A") (A') (A') (A") (A') (A") (A")
                 (A') (A") (A') (A") (A') (A") (A') (A') (A') (A")
                 (A') (A") (A') (A') (A") (A') (A") (A") (A') (A')
                 (A") (A') (A') (A') (A") (A") (A') (A') (A')
 The electronic state of the initial guess is 1-A'.
 Leave Link  401 at Sat Sep  2 23:44:25 2006, MaxMem=    6291456 cpu:      10.7
 (Enter /usr/local/Gaussian/g03/l502.exe)
 Closed shell SCF:
 Requested convergence on RMS density matrix=1.00D-08 within 128 cycles.
 Requested convergence on MAX density matrix=1.00D-06.
 Requested convergence on             energy=1.00D-06.
 No special actions if energy rises.
 Using DIIS extrapolation, IDIIS=  1040.
 Integral symmetry usage will be decided dynamically.
       103031 words used for storage of precomputed grid.
 IEnd=    250344 IEndB=    250344 NGot=   6291456 MDV=   6094425
 LenX=   6094425
 Fock matrices will be formed incrementally for  20 cycles.

 Cycle   1  Pass 1  IDiag  1:
 Petite list used in FoFDir.
 MinBra= 0 MaxBra= 2 Meth= 1.
 IRaf=       0 NMat=   1 IRICut=       1 DoRegI=T DoRafI=F ISym2E= 1 JSym2E=1.
 E= -331.359661969951    
 DIIS: error= 5.12D-02 at cycle   1 NSaved=   1.
 NSaved= 1 IEnMin= 1 EnMin= -331.359661969951     IErMin= 1 ErrMin= 5.12D-02
 ErrMax= 5.12D-02 EMaxC= 1.00D-01 BMatC= 2.25D-01 BMatP= 2.25D-01
 IDIUse=3 WtCom= 4.88D-01 WtEn= 5.12D-01
 Coeff-Com:  0.100D+01
 Coeff-En:   0.100D+01
 Coeff:      0.100D+01
 Gap=     0.231 Goal=   None    Shift=    0.000
 GapD=    0.231 DampG=1.000 DampE=0.500 DampFc=0.5000 IDamp=-1.
 Damping current iteration by 5.00D-01
 RMSDP=6.05D-03 MaxDP=1.39D-01              OVMax= 2.59D-01

 Cycle   2  Pass 1  IDiag  1:
 RMSU=  3.02D-03    CP:  9.98D-01
 E= -331.448139959357     Delta-E=       -0.088477989406 Rises=F Damp=T
 DIIS: error= 8.01D-03 at cycle   2 NSaved=   2.
 NSaved= 2 IEnMin= 2 EnMin= -331.448139959357     IErMin= 2 ErrMin= 8.01D-03
 ErrMax= 8.01D-03 EMaxC= 1.00D-01 BMatC= 1.34D-02 BMatP= 2.25D-01
 IDIUse=3 WtCom= 9.20D-01 WtEn= 8.01D-02
 Coeff-Com:  0.701D-01 0.930D+00
 Coeff-En:   0.186D+00 0.814D+00
 Coeff:      0.794D-01 0.921D+00
 Gap=     0.275 Goal=   None    Shift=    0.000
 RMSDP=2.55D-03 MaxDP=1.09D-01 DE=-8.85D-02 OVMax= 1.99D-01

 Cycle   3  Pass 1  IDiag  1:
 RMSU=  2.29D-03    CP:  1.04D+00  7.48D-01
 E= -331.567757985987     Delta-E=       -0.119618026630 Rises=F Damp=F
 DIIS: error= 1.19D-02 at cycle   3 NSaved=   3.
 NSaved= 3 IEnMin= 3 EnMin= -331.567757985987     IErMin= 2 ErrMin= 8.01D-03
 ErrMax= 1.19D-02 EMaxC= 1.00D-01 BMatC= 1.25D-02 BMatP= 1.34D-02
 IDIUse=3 WtCom= 8.81D-01 WtEn= 1.19D-01
 Coeff-Com: -0.138D-01 0.492D+00 0.522D+00
 Coeff-En:   0.000D+00 0.000D+00 0.100D+01
 Coeff:     -0.122D-01 0.433D+00 0.579D+00
 Gap=     0.234 Goal=   None    Shift=    0.000
 RMSDP=1.32D-03 MaxDP=6.04D-02 DE=-1.20D-01 OVMax= 7.21D-02

 Cycle   4  Pass 1  IDiag  1:
 RMSU=  8.29D-04    CP:  1.02D+00  7.36D-01  5.92D-01
 E= -331.576579121476     Delta-E=       -0.008821135489 Rises=F Damp=F
 DIIS: error= 6.47D-03 at cycle   4 NSaved=   4.
 NSaved= 4 IEnMin= 4 EnMin= -331.576579121476     IErMin= 4 ErrMin= 6.47D-03
 ErrMax= 6.47D-03 EMaxC= 1.00D-01 BMatC= 3.36D-03 BMatP= 1.25D-02
 IDIUse=3 WtCom= 9.35D-01 WtEn= 6.47D-02
 Coeff-Com: -0.196D-01 0.155D+00 0.369D+00 0.496D+00
 Coeff-En:   0.000D+00 0.000D+00 0.246D+00 0.754D+00
 Coeff:     -0.184D-01 0.145D+00 0.361D+00 0.512D+00
 Gap=     0.231 Goal=   None    Shift=    0.000
 RMSDP=4.67D-04 MaxDP=1.08D-02 DE=-8.82D-03 OVMax= 2.73D-02

 Cycle   5  Pass 1  IDiag  1:
 RMSU=  3.58D-04    CP:  1.02D+00  7.65D-01  6.03D-01  6.62D-01
 E= -331.579906454157     Delta-E=       -0.003327332681 Rises=F Damp=F
 DIIS: error= 1.02D-03 at cycle   5 NSaved=   5.
 NSaved= 5 IEnMin= 5 EnMin= -331.579906454157     IErMin= 5 ErrMin= 1.02D-03
 ErrMax= 1.02D-03 EMaxC= 1.00D-01 BMatC= 8.04D-05 BMatP= 3.36D-03
 IDIUse=3 WtCom= 9.90D-01 WtEn= 1.02D-02
 Coeff-Com: -0.868D-02 0.305D-01 0.112D+00 0.219D+00 0.647D+00
 Coeff-En:   0.000D+00 0.000D+00 0.000D+00 0.000D+00 0.100D+01
 Coeff:     -0.860D-02 0.302D-01 0.111D+00 0.217D+00 0.650D+00
 Gap=     0.230 Goal=   None    Shift=    0.000
 RMSDP=7.90D-05 MaxDP=2.20D-03 DE=-3.33D-03 OVMax= 5.27D-03

 Cycle   6  Pass 1  IDiag  1:
 RMSU=  6.11D-05    CP:  1.02D+00  7.63D-01  6.13D-01  6.94D-01  9.03D-01
 E= -331.579970996200     Delta-E=       -0.000064542043 Rises=F Damp=F
 DIIS: error= 5.42D-04 at cycle   6 NSaved=   6.
 NSaved= 6 IEnMin= 6 EnMin= -331.579970996200     IErMin= 6 ErrMin= 5.42D-04
 ErrMax= 5.42D-04 EMaxC= 1.00D-01 BMatC= 2.68D-05 BMatP= 8.04D-05
 IDIUse=3 WtCom= 9.95D-01 WtEn= 5.42D-03
 Coeff-Com: -0.284D-02 0.307D-02 0.281D-01 0.789D-01 0.417D+00 0.476D+00
 Coeff-En:   0.000D+00 0.000D+00 0.000D+00 0.000D+00 0.202D+00 0.798D+00
 Coeff:     -0.282D-02 0.306D-02 0.279D-01 0.785D-01 0.416D+00 0.478D+00
 Gap=     0.230 Goal=   None    Shift=    0.000
 RMSDP=3.24D-05 MaxDP=1.12D-03 DE=-6.45D-05 OVMax= 1.51D-03

 Cycle   7  Pass 1  IDiag  1:
 RMSU=  1.86D-05    CP:  1.02D+00  7.62D-01  6.12D-01  6.91D-01  9.08D-01
                    CP:  5.93D-01
 E= -331.579991468440     Delta-E=       -0.000020472240 Rises=F Damp=F
 DIIS: error= 5.00D-05 at cycle   7 NSaved=   7.
 NSaved= 7 IEnMin= 7 EnMin= -331.579991468440     IErMin= 7 ErrMin= 5.00D-05
 ErrMax= 5.00D-05 EMaxC= 1.00D-01 BMatC= 1.78D-07 BMatP= 2.68D-05
 IDIUse=1 WtCom= 1.00D+00 WtEn= 0.00D+00
 Coeff-Com: -0.267D-03-0.809D-03 0.295D-02 0.129D-01 0.918D-01 0.137D+00
 Coeff-Com:  0.757D+00
 Coeff:     -0.267D-03-0.809D-03 0.295D-02 0.129D-01 0.918D-01 0.137D+00
 Coeff:      0.757D+00
 Gap=     0.230 Goal=   None    Shift=    0.000
 RMSDP=7.10D-06 MaxDP=3.54D-04 DE=-2.05D-05 OVMax= 1.23D-04

 Cycle   8  Pass 1  IDiag  1:
 RMSU=  4.28D-06    CP:  1.02D+00  7.62D-01  6.13D-01  6.91D-01  9.12D-01
                    CP:  6.33D-01  8.42D-01
 E= -331.579991573429     Delta-E=       -0.000000104989 Rises=F Damp=F
 DIIS: error= 2.35D-05 at cycle   8 NSaved=   8.
 NSaved= 8 IEnMin= 8 EnMin= -331.579991573429     IErMin= 8 ErrMin= 2.35D-05
 ErrMax= 2.35D-05 EMaxC= 1.00D-01 BMatC= 5.37D-08 BMatP= 1.78D-07
 IDIUse=1 WtCom= 1.00D+00 WtEn= 0.00D+00
 Coeff-Com:  0.908D-04-0.806D-03-0.439D-03 0.180D-02 0.231D-01 0.441D-01
 Coeff-Com:  0.412D+00 0.520D+00
 Coeff:      0.908D-04-0.806D-03-0.439D-03 0.180D-02 0.231D-01 0.441D-01
 Coeff:      0.412D+00 0.520D+00
 Gap=     0.230 Goal=   None    Shift=    0.000
 RMSDP=1.86D-06 MaxDP=8.30D-05 DE=-1.05D-07 OVMax= 6.92D-05

 Cycle   9  Pass 1  IDiag  1:
 RMSU=  9.24D-07    CP:  1.02D+00  7.62D-01  6.13D-01  6.91D-01  9.15D-01
                    CP:  6.38D-01  8.70D-01  8.44D-01
 E= -331.579991617179     Delta-E=       -0.000000043750 Rises=F Damp=F
 DIIS: error= 3.56D-06 at cycle   9 NSaved=   9.
 NSaved= 9 IEnMin= 9 EnMin= -331.579991617179     IErMin= 9 ErrMin= 3.56D-06
 ErrMax= 3.56D-06 EMaxC= 1.00D-01 BMatC= 1.33D-09 BMatP= 5.37D-08
 IDIUse=1 WtCom= 1.00D+00 WtEn= 0.00D+00
 Coeff-Com:  0.512D-04-0.147D-03-0.258D-03-0.274D-03-0.157D-03 0.247D-02
 Coeff-Com:  0.548D-01 0.166D+00 0.777D+00
 Coeff:      0.512D-04-0.147D-03-0.258D-03-0.274D-03-0.157D-03 0.247D-02
 Coeff:      0.548D-01 0.166D+00 0.777D+00
 Gap=     0.230 Goal=   None    Shift=    0.000
 RMSDP=3.46D-07 MaxDP=1.20D-05 DE=-4.37D-08 OVMax= 1.44D-05

 Cycle  10  Pass 1  IDiag  1:
 RMSU=  1.73D-07    CP:  1.02D+00  7.62D-01  6.13D-01  6.91D-01  9.15D-01
                    CP:  6.37D-01  8.77D-01  8.62D-01  8.95D-01
 E= -331.579991618432     Delta-E=       -0.000000001253 Rises=F Damp=F
 DIIS: error= 4.88D-07 at cycle  10 NSaved=  10.
 NSaved=10 IEnMin=10 EnMin= -331.579991618432     IErMin=10 ErrMin= 4.88D-07
 ErrMax= 4.88D-07 EMaxC= 1.00D-01 BMatC= 2.98D-11 BMatP= 1.33D-09
 IDIUse=1 WtCom= 1.00D+00 WtEn= 0.00D+00
 Coeff-Com:  0.617D-05-0.827D-05-0.170D-04-0.865D-04-0.485D-03-0.395D-03
 Coeff-Com:  0.122D-03 0.948D-02 0.140D+00 0.851D+00
 Coeff:      0.617D-05-0.827D-05-0.170D-04-0.865D-04-0.485D-03-0.395D-03
 Coeff:      0.122D-03 0.948D-02 0.140D+00 0.851D+00
 Gap=     0.230 Goal=   None    Shift=    0.000
 RMSDP=7.12D-08 MaxDP=3.03D-06 DE=-1.25D-09 OVMax= 3.77D-06

 Cycle  11  Pass 1  IDiag  1:
 RMSU=  3.51D-08    CP:  1.02D+00  7.62D-01  6.13D-01  6.91D-01  9.15D-01
                    CP:  6.38D-01  8.77D-01  8.66D-01  9.16D-01  9.88D-01
 E= -331.579991618461     Delta-E=       -0.000000000029 Rises=F Damp=F
 DIIS: error= 2.42D-07 at cycle  11 NSaved=  11.
 NSaved=11 IEnMin=11 EnMin= -331.579991618461     IErMin=11 ErrMin= 2.42D-07
 ErrMax= 2.42D-07 EMaxC= 1.00D-01 BMatC= 1.35D-11 BMatP= 2.98D-11
 IDIUse=1 WtCom= 1.00D+00 WtEn= 0.00D+00
 Coeff-Com:  0.664D-06 0.364D-05 0.312D-05-0.495D-04-0.367D-03-0.508D-03
 Coeff-Com: -0.427D-02-0.706D-02 0.296D-01 0.516D+00 0.467D+00
 Coeff:      0.664D-06 0.364D-05 0.312D-05-0.495D-04-0.367D-03-0.508D-03
 Coeff:     -0.427D-02-0.706D-02 0.296D-01 0.516D+00 0.467D+00
 Gap=     0.230 Goal=   None    Shift=    0.000
 RMSDP=1.81D-08 MaxDP=5.15D-07 DE=-2.90D-11 OVMax= 9.53D-07

 Cycle  12  Pass 1  IDiag  1:
 RMSU=  1.31D-08    CP:  1.02D+00  7.62D-01  6.13D-01  6.91D-01  9.15D-01
                    CP:  6.38D-01  8.77D-01  8.67D-01  9.17D-01  1.00D+00
                    CP:  8.90D-01
 E= -331.579991618474     Delta-E=       -0.000000000013 Rises=F Damp=F
 DIIS: error= 2.68D-08 at cycle  12 NSaved=  12.
 NSaved=12 IEnMin=12 EnMin= -331.579991618474     IErMin=12 ErrMin= 2.68D-08
 ErrMax= 2.68D-08 EMaxC= 1.00D-01 BMatC= 8.00D-14 BMatP= 1.35D-11
 IDIUse=1 WtCom= 1.00D+00 WtEn= 0.00D+00
 Coeff-Com: -0.157D-06 0.547D-06 0.228D-05 0.734D-06-0.111D-04-0.103D-04
 Coeff-Com: -0.306D-03-0.157D-02-0.748D-02-0.277D-02-0.258D-02 0.101D+01
 Coeff:     -0.157D-06 0.547D-06 0.228D-05 0.734D-06-0.111D-04-0.103D-04
 Coeff:     -0.306D-03-0.157D-02-0.748D-02-0.277D-02-0.258D-02 0.101D+01
 Gap=     0.230 Goal=   None    Shift=    0.000
 RMSDP=7.57D-09 MaxDP=2.22D-07 DE=-1.31D-11 OVMax= 2.23D-07

 SCF Done:  E(RB+HF-LYP) =  -331.579991618     A.U. after   12 cycles
             Convg  =    0.7567D-08             -V/T =  2.0038
             S**2   =   0.0000
 KE= 3.303253779143D+02 PE=-1.315319881246D+03 EE= 3.836188801327D+02
 Leave Link  502 at Sun Sep  3 00:12:23 2006, MaxMem=    6291456 cpu:     444.2
 (Enter /usr/local/Gaussian/g03/l601.exe)
 Copying SCF densities to generalized density rwf, ISCF=0 IROHF=0.

 **********************************************************************

            Population analysis using the SCF density.

 **********************************************************************

 Orbital symmetries:
       Occupied  (A') (A') (A') (A") (A") (A') (A') (A') (A') (A")
                 (A') (A") (A') (A') (A') (A") (A') (A') (A") (A")
                 (A') (A') (A") (A") (A')
       Virtual   (A") (A') (A') (A") (A') (A') (A") (A') (A') (A')
                 (A") (A') (A") (A') (A') (A") (A') (A") (A') (A")
                 (A') (A') (A") (A') (A") (A') (A') (A") (A') (A')
                 (A") (A") (A') (A') (A") (A') (A') (A") (A') (A")
                 (A') (A') (A") (A') (A') (A") (A') (A") (A") (A')
                 (A") (A') (A") (A') (A') (A') (A") (A') (A') (A")
                 (A') (A') (A") (A') (A') (A") (A") (A") (A') (A')
                 (A") (A') (A") (A") (A') (A") (A') (A') (A') (A')
                 (A') (A") (A") (A') (A") (A') (A") (A') (A') (A')
                 (A") (A') (A') (A") (A") (A") (A') (A') (A") (A")
                 (A') (A") (A') (A') (A") (A') (A') (A") (A') (A")
                 (A") (A') (A") (A') (A") (A') (A') (A') (A') (A")
                 (A') (A") (A') (A') (A") (A') (A") (A') (A") (A")
                 (A') (A") (A') (A") (A') (A") (A') (A') (A') (A")
                 (A') (A") (A') (A') (A") (A') (A") (A") (A') (A')
                 (A") (A') (A') (A') (A") (A') (A") (A') (A')
 The electronic state is 1-A'.
 Alpha  occ. eigenvalues --  -24.69406 -10.26609 -10.19179 -10.19178 -10.18896
 Alpha  occ. eigenvalues --  -10.18895 -10.18500  -1.23583  -0.87562  -0.76945
 Alpha  occ. eigenvalues --   -0.76040  -0.63537  -0.62418  -0.55799  -0.50812
 Alpha  occ. eigenvalues --   -0.50030  -0.47714  -0.45792  -0.44378  -0.41122
 Alpha  occ. eigenvalues --   -0.38415  -0.37499  -0.35873  -0.27392  -0.25970
 Alpha virt. eigenvalues --   -0.02957  -0.01818   0.00268   0.01994   0.02537
 Alpha virt. eigenvalues --    0.03798   0.04712   0.05799   0.06497   0.08380
 Alpha virt. eigenvalues --    0.08521   0.08840   0.09966   0.12418   0.12753
 Alpha virt. eigenvalues --    0.13700   0.13802   0.13856   0.14390   0.14628
 Alpha virt. eigenvalues --    0.15097   0.18264   0.18976   0.19253   0.20089
 Alpha virt. eigenvalues --    0.20227   0.20809   0.20966   0.22069   0.22481
 Alpha virt. eigenvalues --    0.23065   0.26291   0.27184   0.29959   0.31126
 Alpha virt. eigenvalues --    0.31150   0.33329   0.34571   0.36102   0.38217
 Alpha virt. eigenvalues --    0.39364   0.45297   0.48427   0.50304   0.51607
 Alpha virt. eigenvalues --    0.51949   0.53108   0.56367   0.56370   0.56669
 Alpha virt. eigenvalues --    0.58638   0.59576   0.60802   0.61138   0.66355
 Alpha virt. eigenvalues --    0.66916   0.69079   0.71543   0.72005   0.73892
 Alpha virt. eigenvalues --    0.78210   0.81192   0.81498   0.81689   0.84519
 Alpha virt. eigenvalues --    0.84559   0.85174   0.90946   0.91369   0.96424
 Alpha virt. eigenvalues --    0.99278   1.00057   1.01314   1.06413   1.09300
 Alpha virt. eigenvalues --    1.12292   1.17810   1.27066   1.33085   1.41624
 Alpha virt. eigenvalues --    1.42015   1.44497   1.48301   1.50085   1.52283
 Alpha virt. eigenvalues --    1.54639   1.55559   1.55786   1.60611   1.63219
 Alpha virt. eigenvalues --    1.63942   1.65959   1.72683   1.73292   1.76021
 Alpha virt. eigenvalues --    1.80480   1.84874   1.91013   1.91038   1.92392
 Alpha virt. eigenvalues --    1.94040   1.94202   1.98043   1.99401   2.01046
 Alpha virt. eigenvalues --    2.01318   2.06411   2.07190   2.27186   2.27979
 Alpha virt. eigenvalues --    2.32872   2.36557   2.37860   2.39079   2.47858
 Alpha virt. eigenvalues --    2.60449   2.62531   2.63970   2.65207   2.69629
 Alpha virt. eigenvalues --    2.71934   2.73808   2.75022   2.75200   2.77843
 Alpha virt. eigenvalues --    2.81884   2.82752   2.86314   2.87453   2.92341
 Alpha virt. eigenvalues --    3.06485   3.11341   3.15909   3.32760   3.34583
 Alpha virt. eigenvalues --    3.47309   3.48664   3.61624   3.72054   3.78487
 Alpha virt. eigenvalues --    3.84792   3.96914   3.98794   4.03368   4.11118
 Alpha virt. eigenvalues --    4.13546   4.14811   4.83616   4.86987   6.31031
 Alpha virt. eigenvalues --    6.43780   6.73828  23.53758  23.91146  23.95887
 Alpha virt. eigenvalues --   24.07548  24.09445  24.19537  66.79344
          Condensed to atoms (all electrons):
              1          2          3          4          5          6
     1  C    4.936357   0.486196   0.107402  -0.292499   0.107402   0.486196
     2  C    0.486196   5.011470   0.292122   0.148700  -0.247206   0.041437
     3  C    0.107402   0.292122   6.722324  -0.220476  -0.828184  -0.247206
     4  C   -0.292499   0.148700  -0.220476   6.170440  -0.220476   0.148700
     5  C    0.107402  -0.247206  -0.828184  -0.220476   6.722324   0.292122
     6  C    0.486196   0.041437  -0.247206   0.148700   0.292122   5.011470
     7  H   -0.018920  -0.001283  -0.001287   0.005945  -0.030278   0.396423
     8  H   -0.008217   0.007798  -0.028939  -0.017946   0.383518   0.023284
     9  F   -0.018747   0.009744  -0.244632   0.511634  -0.244632   0.009744
    10  H   -0.008217   0.023284   0.383518  -0.017946  -0.028939   0.007798
    11  H   -0.018920   0.396423  -0.030278   0.005945  -0.001287  -0.001283
    12  H    0.374624   0.000729  -0.017758   0.011790  -0.017758   0.000729
              7          8          9         10         11         12
     1  C   -0.018920  -0.008217  -0.018747  -0.008217  -0.018920   0.374624
     2  C   -0.001283   0.007798   0.009744   0.023284   0.396423   0.000729
     3  C   -0.001287  -0.028939  -0.244632   0.383518  -0.030278  -0.017758
     4  C    0.005945  -0.017946   0.511634  -0.017946   0.005945   0.011790
     5  C   -0.030278   0.383518  -0.244632  -0.028939  -0.001287  -0.017758
     6  C    0.396423   0.023284   0.009744   0.007798  -0.001283   0.000729
     7  H    0.531326  -0.007311  -0.000471   0.000057  -0.000298  -0.007725
     8  H   -0.007311   0.519216  -0.007247  -0.000122   0.000057  -0.000181
     9  F   -0.000471  -0.007247   9.181452  -0.007247  -0.000471   0.000064
    10  H    0.000057  -0.000122  -0.007247   0.519216  -0.007311  -0.000181
    11  H   -0.000298   0.000057  -0.000471  -0.007311   0.531326  -0.007725
    12  H   -0.007725  -0.000181   0.000064  -0.000181  -0.007725   0.535525
 Mulliken atomic charges:
              1
     1  C   -0.132657
     2  C   -0.169414
     3  C    0.113394
     4  C   -0.233810
     5  C    0.113394
     6  C   -0.169414
     7  H    0.133824
     8  H    0.136091
     9  F   -0.189190
    10  H    0.136091
    11  H    0.133824
    12  H    0.127867
 Sum of Mulliken charges=   0.00000
 Atomic charges with hydrogens summed into heavy atoms:
              1
     1  C   -0.004790
     2  C   -0.035590
     3  C    0.249485
     4  C   -0.233810
     5  C    0.249485
     6  C   -0.035590
     7  H    0.000000
     8  H    0.000000
     9  F   -0.189190
    10  H    0.000000
    11  H    0.000000
    12  H    0.000000
 Sum of Mulliken charges=   0.00000
 Electronic spatial extent (au):  <R**2>=   649.0673
 Charge=     0.0000 electrons
 Dipole moment (field-independent basis, Debye):
    X=     0.0008    Y=    -1.6822    Z=     0.0000  Tot=     1.6822
 Quadrupole moment (field-independent basis, Debye-Ang):
   XX=   -43.6277   YY=   -41.2345   ZZ=   -34.6792
   XY=     0.0029   XZ=     0.0000   YZ=     0.0000
 Traceless Quadrupole moment (field-independent basis, Debye-Ang):
   XX=    -3.7805   YY=    -1.3874   ZZ=     5.1679
   XY=     0.0029   XZ=     0.0000   YZ=     0.0000
 Octapole moment (field-independent basis, Debye-Ang**2):
  XXX=    -0.0159  YYY=    -2.5732  ZZZ=     0.0000  XYY=     0.0028
  XXY=     8.8955  XXZ=     0.0000  XZZ=    -0.0027  YZZ=     4.7679
  YYZ=     0.0000  XYZ=     0.0000
 Hexadecapole moment (field-independent basis, Debye-Ang**3):
 XXXX=   -49.9530 YYYY=  -482.6730 ZZZZ=  -268.1073 XXXY=     0.0678
 XXXZ=     0.0000 YYYX=     0.0840 YYYZ=     0.0000 ZZZX=     0.0000
 ZZZY=     0.0000 XXYY=   -94.1432 XXZZ=   -64.8556 YYZZ=  -118.0173
 XXYZ=     0.0000 YYXZ=     0.0000 ZZXY=     0.0148
 N-N= 2.697956315801D+02 E-N=-1.315319881564D+03  KE= 3.303253779143D+02
 Symmetry A'   KE= 2.431694839789D+02
 Symmetry A"   KE= 8.715589393539D+01
 No NMR shielding tensors so no spin-rotation constants.
 Leave Link  601 at Sun Sep  3 00:12:29 2006, MaxMem=    6291456 cpu:       1.3
 (Enter /usr/local/Gaussian/g03/l701.exe)
 Compute integral first derivatives.
 ... and contract with generalized density number  0.
 Leave Link  701 at Sun Sep  3 00:12:33 2006, MaxMem=    6291456 cpu:       0.9
 (Enter /usr/local/Gaussian/g03/l702.exe)
 L702 exits ... SP integral derivatives will be done elsewhere.
 Leave Link  702 at Sun Sep  3 00:12:34 2006, MaxMem=    6291456 cpu:       0.0
 (Enter /usr/local/Gaussian/g03/l703.exe)
 Compute integral first derivatives, UseDBF=F.
 Integral derivatives from FoFDir, PRISM(SPDF).
 Petite list used in FoFDir.
 MinBra= 0 MaxBra= 2 Meth= 1.
 IRaf=       0 NMat=   1 IRICut=       1 DoRegI=T DoRafI=F ISym2E= 1 JSym2E=1.
 Leave Link  703 at Sun Sep  3 00:21:40 2006, MaxMem=    6291456 cpu:     144.6
 (Enter /usr/local/Gaussian/g03/l716.exe)
 Dipole        = 3.33215289D-04-6.61826309D-01 4.39648318D-14
 ***** Axes restored to original set *****
 -------------------------------------------------------------------
 Center     Atomic                   Forces (Hartrees/Bohr)
 Number     Number              X              Y              Z
 -------------------------------------------------------------------
    1          6          -0.002399215    0.000108262   -0.001390296
    2          6          -0.002174369   -0.000090300    0.001057937
    3          6           0.001742728   -0.000027299    0.003211141
    4          6          -0.006457569    0.000164401   -0.003742082
    5          6           0.003652595   -0.000025928   -0.000084583
    6          6          -0.000163186   -0.000088857   -0.002412621
    7          1           0.000079142    0.000024126   -0.000136417
    8          1           0.000117184    0.000006970   -0.000367977
    9          9           0.006076179   -0.000069110    0.003521106
   10          1          -0.000261005    0.000006699    0.000284638
   11          1          -0.000079018    0.000024013    0.000136509
   12          1          -0.000133464   -0.000032976   -0.000077356
 -------------------------------------------------------------------
 Cartesian Forces:  Max     0.006457569 RMS     0.002051676
 Leave Link  716 at Sun Sep  3 00:21:41 2006, MaxMem=    6291456 cpu:       0.0
 (Enter /usr/local/Gaussian/g03/l103.exe)

 GradGradGradGradGradGradGradGradGradGradGradGradGradGradGradGradGradGrad
 Berny optimization.
 Internal  Forces:  Max     0.007022596 RMS     0.001296675
 Search for a local minimum.
 Step number   1 out of a maximum of  64
 All quantities printed in internal units (Hartrees-Bohrs-Radians)
 Second derivative matrix not updated -- first step.
     Eigenvalues ---    0.02201   0.02203   0.02204   0.02205   0.02221
     Eigenvalues ---    0.02239   0.02246   0.02265   0.02279   0.16000
     Eigenvalues ---    0.16000   0.16000   0.16000   0.16000   0.22000
     Eigenvalues ---    0.22000   0.23504   0.25000   0.35542   0.35542
     Eigenvalues ---    0.35592   0.35657   0.35657   0.42810   0.43081
     Eigenvalues ---    0.47070   0.47153   0.47614   0.47959   0.55811
     Eigenvalues --- 1000.000001000.000001000.000001000.000001000.00000
     Eigenvalues --- 1000.000001000.000001000.000001000.000001000.00000
     Eigenvalues --- 1000.000001000.000001000.000001000.000001000.00000
     Eigenvalues --- 1000.000001000.000001000.000001000.000001000.00000
     Eigenvalues --- 1000.000001000.000001000.000001000.00000
 RFO step:  Lambda=-1.84991972D-04.
 Linear search not attempted -- first point.
 Iteration  1 RMS(Cart)=  0.00330258 RMS(Int)=  0.00000373
 Iteration  2 RMS(Cart)=  0.00000372 RMS(Int)=  0.00000067
 Iteration  3 RMS(Cart)=  0.00000000 RMS(Int)=  0.00000067
 Variable       Old X    -DE/DX   Delta X   Delta X   Delta X     New X
                                 (Linear)    (Quad)   (Total)
    R1        2.62965   0.00284   0.00000   0.00613   0.00613   2.63578
    R2        2.62965   0.00284   0.00000   0.00613   0.00613   2.63578
    R3        2.04724   0.00015   0.00000   0.00043   0.00043   2.04768
    R4        2.62853   0.00282   0.00000   0.00597   0.00597   2.63450
    R5        2.04804   0.00014   0.00000   0.00038   0.00038   2.04842
    R6        2.61843   0.00165   0.00000   0.00334   0.00334   2.62177
    R7        2.04621   0.00028   0.00000   0.00078   0.00078   2.04699
    R8        2.61843   0.00165   0.00000   0.00334   0.00334   2.62177
    R9        2.54419   0.00702   0.00000   0.01258   0.01258   2.55677
   R10        2.62853   0.00282   0.00000   0.00597   0.00597   2.63450
   R11        2.04621   0.00028   0.00000   0.00078   0.00078   2.04699
   R12        2.04804   0.00014   0.00000   0.00038   0.00038   2.04842
    A1        2.09118  -0.00012   0.00000  -0.00008  -0.00009   2.09109
    A2        2.09600   0.00006   0.00000   0.00004   0.00004   2.09605
    A3        2.09600   0.00006   0.00000   0.00004   0.00004   2.09605
    A4        2.10193   0.00001   0.00000   0.00032   0.00032   2.10224
    A5        2.09647   0.00008   0.00000   0.00034   0.00034   2.09682
    A6        2.08478  -0.00008   0.00000  -0.00066  -0.00066   2.08412
    A7        2.07049  -0.00058   0.00000  -0.00270  -0.00270   2.06779
    A8        2.12734   0.00002   0.00000  -0.00036  -0.00036   2.12697
    A9        2.08536   0.00056   0.00000   0.00306   0.00306   2.08842
   A10        2.13036   0.00127   0.00000   0.00486   0.00486   2.13521
   A11        2.07641  -0.00064   0.00000  -0.00243  -0.00243   2.07399
   A12        2.07641  -0.00064   0.00000  -0.00243  -0.00243   2.07399
   A13        2.07049  -0.00058   0.00000  -0.00270  -0.00270   2.06779
   A14        2.08536   0.00056   0.00000   0.00306   0.00306   2.08842
   A15        2.12734   0.00002   0.00000  -0.00036  -0.00036   2.12697
   A16        2.10193   0.00001   0.00000   0.00032   0.00032   2.10224
   A17        2.09647   0.00008   0.00000   0.00034   0.00034   2.09682
   A18        2.08478  -0.00008   0.00000  -0.00066  -0.00066   2.08412
    D1       -0.00072   0.00003   0.00000   0.00112   0.00112   0.00041
    D2        3.14159   0.00001   0.00000   0.00035   0.00035  -3.14125
    D3       -3.14109  -0.00001   0.00000  -0.00027  -0.00027  -3.14136
    D4        0.00122  -0.00002   0.00000  -0.00105  -0.00105   0.00018
    D5        0.00072  -0.00003   0.00000  -0.00112  -0.00112  -0.00041
    D6       -3.14159  -0.00001   0.00000  -0.00035  -0.00035   3.14125
    D7        3.14109   0.00001   0.00000   0.00027   0.00027   3.14136
    D8       -0.00122   0.00002   0.00000   0.00105   0.00105  -0.00018
    D9        0.00020   0.00000   0.00000  -0.00018  -0.00018   0.00002
   D10       -3.14146   0.00000   0.00000  -0.00013  -0.00013   3.14159
   D11        3.14108   0.00001   0.00000   0.00059   0.00059  -3.14151
   D12       -0.00058   0.00001   0.00000   0.00064   0.00064   0.00006
   D13        0.00033  -0.00002   0.00000  -0.00080  -0.00080  -0.00046
   D14        3.14018   0.00004   0.00000   0.00192   0.00192  -3.14108
   D15       -3.14119  -0.00002   0.00000  -0.00084  -0.00084   3.14115
   D16       -0.00134   0.00004   0.00000   0.00187   0.00187   0.00053
   D17       -0.00033   0.00002   0.00000   0.00080   0.00080   0.00046
   D18        3.14119   0.00002   0.00000   0.00084   0.00084  -3.14115
   D19       -3.14018  -0.00004   0.00000  -0.00192  -0.00192   3.14108
   D20        0.00134  -0.00004   0.00000  -0.00187  -0.00187  -0.00053
   D21       -0.00020   0.00000   0.00000   0.00018   0.00018  -0.00002
   D22       -3.14108  -0.00001   0.00000  -0.00059  -0.00059   3.14151
   D23        3.14146   0.00000   0.00000   0.00013   0.00013  -3.14159
   D24        0.00058  -0.00001   0.00000  -0.00064  -0.00064  -0.00006
         Item               Value     Threshold  Converged?
 Maximum Force            0.007023     0.000450     NO 
 RMS     Force            0.001297     0.000300     NO 
 Maximum Displacement     0.010224     0.001800     NO 
 RMS     Displacement     0.003301     0.001200     NO 
 Predicted change in Energy=-9.253558D-05
 GradGradGradGradGradGradGradGradGradGradGradGradGradGradGradGradGradGrad

 Leave Link  103 at Sun Sep  3 00:21:44 2006, MaxMem=    6291456 cpu:       0.3
 (Enter /usr/local/Gaussian/g03/l202.exe)
                          Input orientation:                          
 ---------------------------------------------------------------------
 Center     Atomic     Atomic              Coordinates (Angstroms)
 Number     Number      Type              X           Y           Z
 ---------------------------------------------------------------------
    1          6             0       -0.002722    0.000302   -0.001577
    2          6             0       -0.002661   -0.000165    1.393218
    3          6             0        1.199200    0.000255    2.099680
    4          6             0        2.387453    0.001169    1.383525
    5          6             0        2.417999    0.001130   -0.003518
    6          6             0        1.207475    0.000703   -0.695030
    7          1             0        1.213637    0.000743   -1.778990
    8          1             0        3.370888    0.001447   -0.518661
    9          9             0        3.558079    0.000979    2.061901
   10          1             0        1.226032   -0.000092    3.182569
   11          1             0       -0.940074   -0.000802    1.937519
   12          1             0       -0.940259    0.000194   -0.544878
 ---------------------------------------------------------------------
                    Distance matrix (angstroms):
                    1          2          3          4          5
     1  C    0.000000
     2  C    1.394795   0.000000
     3  C    2.420722   1.394116   0.000000
     4  C    2.762506   2.390134   1.387380   0.000000
     5  C    2.420722   2.794722   2.430826   1.387380   0.000000
     6  C    1.394795   2.413547   2.794722   2.390134   1.394116
     7  H    2.153770   3.397394   3.878696   3.373329   2.145412
     8  H    3.413007   3.877643   3.401755   2.141368   1.083222
     9  F    4.115488   3.622983   2.359181   1.352982   2.359181
    10  H    3.413007   2.170591   1.083222   2.141368   3.401755
    11  H    2.153770   1.083977   2.145412   3.373329   3.878696
    12  H    1.083584   2.152976   3.401613   3.846090   3.401613
                    6          7          8          9         10
     6  C    0.000000
     7  H    1.083977   0.000000
     8  H    2.170591   2.498432   0.000000
     9  F    3.622983   4.499873   2.587343   0.000000
    10  H    3.877643   4.961574   4.277793   2.587343   0.000000
    11  H    3.397394   4.295452   4.961574   4.499873   2.498432
    12  H    2.152976   2.482398   4.311227   5.199072   4.311227
                   11         12
    11  H    0.000000
    12  H    2.482398   0.000000
 Stoichiometry    C6H5F
 Framework group  CS[SG(C2HF),X(C4H4)]
 Deg. of freedom    17
 Full point group                 CS      NOp   2
 Largest Abelian subgroup         CS      NOp   2
 Largest concise Abelian subgroup CS      NOp   2
                         Standard orientation:                         
 ---------------------------------------------------------------------
 Center     Atomic     Atomic              Coordinates (Angstroms)
 Number     Number      Type              X           Y           Z
 ---------------------------------------------------------------------
    1          6             0       -0.000245   -1.833742    0.000000
    2          6             0        0.000000   -1.134349    1.206774
    3          6             0        0.000000    0.259740    1.215413
    4          6             0       -0.000273    0.928764    0.000000
    5          6             0        0.000000    0.259740   -1.215413
    6          6             0        0.000000   -1.134349   -1.206774
    7          1             0        0.000135   -1.672508   -2.147726
    8          1             0        0.000186    0.825908   -2.138897
    9          9             0        0.000327    2.281746    0.000000
   10          1             0        0.000186    0.825908    2.138897
   11          1             0        0.000135   -1.672508    2.147726
   12          1             0       -0.000466   -2.917326    0.000000
 ---------------------------------------------------------------------
 Rotational constants (GHZ):      5.6832859      2.5625401      1.7661843
 Leave Link  202 at Sun Sep  3 00:21:46 2006, MaxMem=    6291456 cpu:       0.4
 (Enter /usr/local/Gaussian/g03/l301.exe)
 Standard basis: 6-311+G(d,p) (5D, 7F)
 There are   109 symmetry adapted basis functions of A'  symmetry.
 There are    75 symmetry adapted basis functions of A"  symmetry.
 Integral buffers will be    131072 words long.
 Raffenetti 2 integral format.
 Two-electron integral symmetry is turned on.
   184 basis functions,   292 primitive gaussians,   191 cartesian basis functions
    25 alpha electrons       25 beta electrons
       nuclear repulsion energy       269.2266405975 Hartrees.
 IExCor= 402 DFT=T Ex=B+HF Corr=LYP ExCW=0 ScaHFX=  0.200000
 ScaDFX=  0.800000  0.720000  1.000000  0.810000
 IRadAn=      0 IRanWt=     -1 IRanGd=            0 ICorTp=0
 NAtoms=   12 NActive=   12 NUniq=    8 SFac= 2.76D+00 NAtFMM=   60 Big=F
 Leave Link  301 at Sun Sep  3 00:21:47 2006, MaxMem=    6291456 cpu:       0.1
 (Enter /usr/local/Gaussian/g03/l302.exe)
 NPDir=0 NMtPBC=     1 NCelOv=     1 NCel=       1 NClECP=     1 NCelD=      1
         NCelK=      1 NCelE2=     1 NClLst=     1 CellRange=     0.0.
 One-electron integrals computed using PRISM.
 One-electron integral symmetry used in STVInt
 NBasis=   184 RedAO= T  NBF=   109    75
 NBsUse=   184 1.00D-06 NBFU=   109    75
 Precomputing XC quadrature grid using
 IXCGrd= 2 IRadAn=           0 IRanWt=          -1 IRanGd=           0.
 NRdTot=     769 NPtTot=       97600 NUsed=      103032 NTot=      103064
 NSgBfM=   191   191   191   191.
 Leave Link  302 at Sun Sep  3 00:21:54 2006, MaxMem=    6291456 cpu:       1.8
 (Enter /usr/local/Gaussian/g03/l303.exe)
 DipDrv:  MaxL=1.
 Leave Link  303 at Sun Sep  3 00:21:56 2006, MaxMem=    6291456 cpu:       0.1
 (Enter /usr/local/Gaussian/g03/l401.exe)
 Initial guess read from the read-write file:
 Guess basis will be translated and rotated to current coordinates.
 Initial guess orbital symmetries:
       Occupied  (A') (A') (A') (A") (A") (A') (A') (A') (A') (A")
                 (A') (A") (A') (A') (A') (A") (A') (A') (A") (A")
                 (A') (A') (A") (A") (A')
       Virtual   (A") (A') (A') (A") (A') (A') (A") (A') (A') (A')
                 (A") (A') (A") (A') (A') (A") (A') (A") (A') (A")
                 (A') (A') (A") (A') (A") (A') (A') (A") (A') (A')
                 (A") (A") (A') (A') (A") (A') (A') (A") (A') (A")
                 (A') (A') (A") (A') (A') (A") (A') (A") (A") (A')
                 (A") (A') (A") (A') (A') (A') (A") (A') (A') (A")
                 (A') (A') (A") (A') (A') (A") (A") (A") (A') (A')
                 (A") (A') (A") (A") (A') (A") (A') (A') (A') (A')
                 (A') (A") (A") (A') (A") (A') (A") (A') (A') (A')
                 (A") (A') (A') (A") (A") (A") (A') (A') (A") (A")
                 (A') (A") (A') (A') (A") (A') (A') (A") (A') (A")
                 (A") (A') (A") (A') (A") (A') (A') (A') (A') (A")
                 (A') (A") (A') (A') (A") (A') (A") (A') (A") (A")
                 (A') (A") (A') (A") (A') (A") (A') (A') (A') (A")
                 (A') (A") (A') (A') (A") (A') (A") (A") (A') (A')
                 (A") (A') (A') (A') (A") (A') (A") (A') (A')
 The electronic state of the initial guess is 1-A'.
 Leave Link  401 at Sun Sep  3 00:22:01 2006, MaxMem=    6291456 cpu:       1.0
 (Enter /usr/local/Gaussian/g03/l502.exe)
 Closed shell SCF:
 Requested convergence on RMS density matrix=1.00D-08 within 128 cycles.
 Requested convergence on MAX density matrix=1.00D-06.
 Requested convergence on             energy=1.00D-06.
 No special actions if energy rises.
 Using DIIS extrapolation, IDIIS=  1040.
 Integral symmetry usage will be decided dynamically.
       103031 words used for storage of precomputed grid.
 IEnd=    250344 IEndB=    250344 NGot=   6291456 MDV=   6094425
 LenX=   6094425
 Fock matrices will be formed incrementally for  20 cycles.

 Cycle   1  Pass 1  IDiag  1:
 Petite list used in FoFDir.
 MinBra= 0 MaxBra= 2 Meth= 1.
 IRaf=       0 NMat=   1 IRICut=       1 DoRegI=T DoRafI=F ISym2E= 1 JSym2E=1.
 E= -331.580056171885    
 DIIS: error= 4.84D-04 at cycle   1 NSaved=   1.
 NSaved= 1 IEnMin= 1 EnMin= -331.580056171885     IErMin= 1 ErrMin= 4.84D-04
 ErrMax= 4.84D-04 EMaxC= 1.00D-01 BMatC= 4.39D-05 BMatP= 4.39D-05
 IDIUse=3 WtCom= 9.95D-01 WtEn= 4.84D-03
 Coeff-Com:  0.100D+01
 Coeff-En:   0.100D+01
 Coeff:      0.100D+01
 Gap=     0.229 Goal=   None    Shift=    0.000
 RMSDP=3.45D-04 MaxDP=2.19D-02              OVMax= 1.63D-03

 Cycle   2  Pass 1  IDiag  1:
 RMSU=  2.90D-04    CP:  1.01D+00
 E= -331.580094340233     Delta-E=       -0.000038168348 Rises=F Damp=F
 DIIS: error= 2.10D-04 at cycle   2 NSaved=   2.
 NSaved= 2 IEnMin= 2 EnMin= -331.580094340233     IErMin= 2 ErrMin= 2.10D-04
 ErrMax= 2.10D-04 EMaxC= 1.00D-01 BMatC= 5.08D-06 BMatP= 4.39D-05
 IDIUse=3 WtCom= 9.98D-01 WtEn= 2.10D-03
 Coeff-Com:  0.164D+00 0.836D+00
 Coeff-En:   0.000D+00 0.100D+01
 Coeff:      0.163D+00 0.837D+00
 Gap=     0.230 Goal=   None    Shift=    0.000
 RMSDP=2.76D-05 MaxDP=1.36D-03 DE=-3.82D-05 OVMax= 7.59D-04

 Cycle   3  Pass 1  IDiag  1:
 RMSU=  2.25D-05    CP:  1.01D+00  1.04D+00
 E= -331.580095765790     Delta-E=       -0.000001425557 Rises=F Damp=F
 DIIS: error= 1.71D-04 at cycle   3 NSaved=   3.
 NSaved= 3 IEnMin= 3 EnMin= -331.580095765790     IErMin= 3 ErrMin= 1.71D-04
 ErrMax= 1.71D-04 EMaxC= 1.00D-01 BMatC= 3.16D-06 BMatP= 5.08D-06
 IDIUse=3 WtCom= 9.98D-01 WtEn= 1.71D-03
 Coeff-Com: -0.542D-02 0.439D+00 0.567D+00
 Coeff-En:   0.000D+00 0.391D+00 0.609D+00
 Coeff:     -0.541D-02 0.439D+00 0.567D+00
 Gap=     0.229 Goal=   None    Shift=    0.000
 RMSDP=1.71D-05 MaxDP=8.01D-04 DE=-1.43D-06 OVMax= 4.39D-04

 Cycle   4  Pass 1  IDiag  1:
 RMSU=  1.32D-05    CP:  1.01D+00  1.05D+00  5.66D-01
 E= -331.580098195426     Delta-E=       -0.000002429635 Rises=F Damp=F
 DIIS: error= 3.54D-05 at cycle   4 NSaved=   4.
 NSaved= 4 IEnMin= 4 EnMin= -331.580098195426     IErMin= 4 ErrMin= 3.54D-05
 ErrMax= 3.54D-05 EMaxC= 1.00D-01 BMatC= 1.29D-07 BMatP= 3.16D-06
 IDIUse=1 WtCom= 1.00D+00 WtEn= 0.00D+00
 Coeff-Com: -0.766D-02 0.183D+00 0.293D+00 0.532D+00
 Coeff:     -0.766D-02 0.183D+00 0.293D+00 0.532D+00
 Gap=     0.229 Goal=   None    Shift=    0.000
 RMSDP=3.39D-06 MaxDP=1.44D-04 DE=-2.43D-06 OVMax= 1.57D-04

 Cycle   5  Pass 1  IDiag  1:
 RMSU=  2.47D-06    CP:  1.01D+00  1.05D+00  5.46D-01  8.99D-01
 E= -331.580098283669     Delta-E=       -0.000000088244 Rises=F Damp=F
 DIIS: error= 1.07D-05 at cycle   5 NSaved=   5.
 NSaved= 5 IEnMin= 5 EnMin= -331.580098283669     IErMin= 5 ErrMin= 1.07D-05
 ErrMax= 1.07D-05 EMaxC= 1.00D-01 BMatC= 1.43D-08 BMatP= 1.29D-07
 IDIUse=1 WtCom= 1.00D+00 WtEn= 0.00D+00
 Coeff-Com: -0.298D-02 0.436D-01 0.915D-01 0.293D+00 0.574D+00
 Coeff:     -0.298D-02 0.436D-01 0.915D-01 0.293D+00 0.574D+00
 Gap=     0.229 Goal=   None    Shift=    0.000
 RMSDP=1.37D-06 MaxDP=4.74D-05 DE=-8.82D-08 OVMax= 5.24D-05

 Cycle   6  Pass 1  IDiag  1:
 RMSU=  6.50D-07    CP:  1.01D+00  1.05D+00  5.71D-01  8.53D-01  7.11D-01
 E= -331.580098297811     Delta-E=       -0.000000014142 Rises=F Damp=F
 DIIS: error= 3.32D-06 at cycle   6 NSaved=   6.
 NSaved= 6 IEnMin= 6 EnMin= -331.580098297811     IErMin= 6 ErrMin= 3.32D-06
 ErrMax= 3.32D-06 EMaxC= 1.00D-01 BMatC= 8.17D-10 BMatP= 1.43D-08
 IDIUse=1 WtCom= 1.00D+00 WtEn= 0.00D+00
 Coeff-Com: -0.123D-02 0.129D-01 0.308D-01 0.111D+00 0.276D+00 0.571D+00
 Coeff:     -0.123D-02 0.129D-01 0.308D-01 0.111D+00 0.276D+00 0.571D+00
 Gap=     0.229 Goal=   None    Shift=    0.000
 RMSDP=2.71D-07 MaxDP=8.18D-06 DE=-1.41D-08 OVMax= 2.14D-05

 Cycle   7  Pass 1  IDiag  1:
 RMSU=  1.80D-07    CP:  1.01D+00  1.05D+00  5.70D-01  8.61D-01  7.44D-01
                    CP:  8.53D-01
 E= -331.580098298494     Delta-E=       -0.000000000683 Rises=F Damp=F
 DIIS: error= 1.48D-06 at cycle   7 NSaved=   7.
 NSaved= 7 IEnMin= 7 EnMin= -331.580098298494     IErMin= 7 ErrMin= 1.48D-06
 ErrMax= 1.48D-06 EMaxC= 1.00D-01 BMatC= 2.11D-10 BMatP= 8.17D-10
 IDIUse=1 WtCom= 1.00D+00 WtEn= 0.00D+00
 Coeff-Com: -0.117D-03-0.960D-03 0.133D-02 0.161D-01 0.750D-01 0.349D+00
 Coeff-Com:  0.560D+00
 Coeff:     -0.117D-03-0.960D-03 0.133D-02 0.161D-01 0.750D-01 0.349D+00
 Coeff:      0.560D+00
 Gap=     0.229 Goal=   None    Shift=    0.000
 RMSDP=1.10D-07 MaxDP=5.10D-06 DE=-6.83D-10 OVMax= 8.04D-06

 Cycle   8  Pass 1  IDiag  1:
 RMSU=  4.43D-08    CP:  1.01D+00  1.05D+00  5.70D-01  8.65D-01  7.44D-01
                    CP:  8.76D-01  5.55D-01
 E= -331.580098298692     Delta-E=       -0.000000000199 Rises=F Damp=F
 DIIS: error= 3.06D-07 at cycle   8 NSaved=   8.
 NSaved= 8 IEnMin= 8 EnMin= -331.580098298692     IErMin= 8 ErrMin= 3.06D-07
 ErrMax= 3.06D-07 EMaxC= 1.00D-01 BMatC= 7.53D-12 BMatP= 2.11D-10
 IDIUse=1 WtCom= 1.00D+00 WtEn= 0.00D+00
 Coeff-Com: -0.226D-04-0.706D-03-0.352D-03 0.400D-02 0.268D-01 0.141D+00
 Coeff-Com:  0.282D+00 0.547D+00
 Coeff:     -0.226D-04-0.706D-03-0.352D-03 0.400D-02 0.268D-01 0.141D+00
 Coeff:      0.282D+00 0.547D+00
 Gap=     0.229 Goal=   None    Shift=    0.000
 RMSDP=3.06D-08 MaxDP=1.72D-06 DE=-1.99D-10 OVMax= 1.41D-06

 Cycle   9  Pass 1  IDiag  1:
 RMSU=  1.37D-08    CP:  1.01D+00  1.05D+00  5.70D-01  8.66D-01  7.45D-01
                    CP:  8.76D-01  6.25D-01  9.04D-01
 E= -331.580098298702     Delta-E=       -0.000000000009 Rises=F Damp=F
 DIIS: error= 7.43D-08 at cycle   9 NSaved=   9.
 NSaved= 9 IEnMin= 9 EnMin= -331.580098298702     IErMin= 9 ErrMin= 7.43D-08
 ErrMax= 7.43D-08 EMaxC= 1.00D-01 BMatC= 8.71D-13 BMatP= 7.53D-12
 IDIUse=1 WtCom= 1.00D+00 WtEn= 0.00D+00
 Coeff-Com:  0.602D-05-0.308D-03-0.555D-03-0.411D-03 0.281D-02 0.187D-01
 Coeff-Com:  0.703D-01 0.295D+00 0.615D+00
 Coeff:      0.602D-05-0.308D-03-0.555D-03-0.411D-03 0.281D-02 0.187D-01
 Coeff:      0.703D-01 0.295D+00 0.615D+00
 Gap=     0.229 Goal=   None    Shift=    0.000
 RMSDP=5.55D-09 MaxDP=1.39D-07 DE=-9.21D-12 OVMax= 2.43D-07

 SCF Done:  E(RB+HF-LYP) =  -331.580098299     A.U. after    9 cycles
             Convg  =    0.5550D-08             -V/T =  2.0040
             S**2   =   0.0000
 KE= 3.302690571905D+02 PE=-1.314142019242D+03 EE= 3.830662231553D+02
 Leave Link  502 at Sun Sep  3 00:42:37 2006, MaxMem=    6291456 cpu:     325.7
 (Enter /usr/local/Gaussian/g03/l701.exe)
 Compute integral first derivatives.
 ... and contract with generalized density number  0.
 Leave Link  701 at Sun Sep  3 00:42:41 2006, MaxMem=    6291456 cpu:       0.9
 (Enter /usr/local/Gaussian/g03/l702.exe)
 L702 exits ... SP integral derivatives will be done elsewhere.
 Leave Link  702 at Sun Sep  3 00:42:42 2006, MaxMem=    6291456 cpu:       0.0
 (Enter /usr/local/Gaussian/g03/l703.exe)
 Compute integral first derivatives, UseDBF=F.
 Integral derivatives from FoFDir, PRISM(SPDF).
 Petite list used in FoFDir.
 MinBra= 0 MaxBra= 2 Meth= 1.
 IRaf=       0 NMat=   1 IRICut=       1 DoRegI=T DoRafI=F ISym2E= 1 JSym2E=1.
 Leave Link  703 at Sun Sep  3 00:51:41 2006, MaxMem=    6291456 cpu:     143.0
 (Enter /usr/local/Gaussian/g03/l716.exe)
 Dipole        =-1.31093567D-05-6.78742027D-01 3.55271368D-15
 ***** Axes restored to original set *****
 -------------------------------------------------------------------
 Center     Atomic                   Forces (Hartrees/Bohr)
 Number     Number              X              Y              Z
 -------------------------------------------------------------------
    1          6           0.000169100   -0.000021138    0.000097984
    2          6           0.000012531    0.000023677   -0.000321812
    3          6           0.000895476    0.000019807    0.000408217
    4          6          -0.003465636   -0.000092989   -0.002008369
    5          6           0.000799413    0.000019738    0.000573985
    6          6          -0.000272992    0.000023472    0.000170895
    7          1           0.000000630    0.000002711    0.000048985
    8          1          -0.000166865   -0.000001570    0.000000369
    9          9           0.002008287    0.000033520    0.001163813
   10          1          -0.000082647   -0.000001509   -0.000144962
   11          1           0.000042814    0.000002741   -0.000023808
   12          1           0.000059890   -0.000008459    0.000034703
 -------------------------------------------------------------------
 Cartesian Forces:  Max     0.003465636 RMS     0.000811241
 Leave Link  716 at Sun Sep  3 00:51:42 2006, MaxMem=    6291456 cpu:       0.0
 (Enter /usr/local/Gaussian/g03/l103.exe)

 GradGradGradGradGradGradGradGradGradGradGradGradGradGradGradGradGradGrad
 Berny optimization.
 Internal  Forces:  Max     0.002321133 RMS     0.000371442
 Search for a local minimum.
 Step number   2 out of a maximum of  64
 All quantities printed in internal units (Hartrees-Bohrs-Radians)
 Update second derivatives using D2CorX and points  1  2
 Trust test= 1.15D+00 RLast= 2.06D-02 DXMaxT set to 3.00D-01
     Eigenvalues ---    0.02200   0.02203   0.02204   0.02205   0.02221
     Eigenvalues ---    0.02239   0.02246   0.02266   0.02284   0.15852
     Eigenvalues ---    0.16000   0.16000   0.16000   0.16002   0.21174
     Eigenvalues ---    0.22000   0.22081   0.25000   0.35542   0.35548
     Eigenvalues ---    0.35596   0.35657   0.35697   0.40293   0.42832
     Eigenvalues ---    0.44935   0.47070   0.47960   0.48242   0.57914
     Eigenvalues --- 1000.000001000.000001000.000001000.000001000.00000
     Eigenvalues --- 1000.000001000.000001000.000001000.000001000.00000
     Eigenvalues --- 1000.000001000.000001000.000001000.000001000.00000
     Eigenvalues --- 1000.000001000.000001000.000001000.000001000.00000
     Eigenvalues --- 1000.000001000.000001000.000001000.00000
 RFO step:  Lambda=-1.63649885D-05.
 Quartic linear search produced a step of  0.18931.
 Iteration  1 RMS(Cart)=  0.00070981 RMS(Int)=  0.00000120
 Iteration  2 RMS(Cart)=  0.00000147 RMS(Int)=  0.00000044
 Iteration  3 RMS(Cart)=  0.00000000 RMS(Int)=  0.00000044
 Variable       Old X    -DE/DX   Delta X   Delta X   Delta X     New X
                                 (Linear)    (Quad)   (Total)
    R1        2.63578  -0.00023   0.00116  -0.00114   0.00002   2.63580
    R2        2.63578  -0.00023   0.00116  -0.00114   0.00002   2.63580
    R3        2.04768  -0.00007   0.00008  -0.00027  -0.00019   2.04748
    R4        2.63450  -0.00001   0.00113  -0.00060   0.00053   2.63502
    R5        2.04842  -0.00005   0.00007  -0.00020  -0.00013   2.04829
    R6        2.62177  -0.00069   0.00063  -0.00207  -0.00143   2.62033
    R7        2.04699  -0.00015   0.00015  -0.00057  -0.00042   2.04657
    R8        2.62177  -0.00069   0.00063  -0.00207  -0.00143   2.62033
    R9        2.55677   0.00232   0.00238   0.00370   0.00608   2.56285
   R10        2.63450  -0.00001   0.00113  -0.00060   0.00053   2.63502
   R11        2.04699  -0.00015   0.00015  -0.00057  -0.00042   2.04657
   R12        2.04842  -0.00005   0.00007  -0.00020  -0.00013   2.04829
    A1        2.09109   0.00002  -0.00002   0.00035   0.00033   2.09142
    A2        2.09605  -0.00001   0.00001  -0.00018  -0.00017   2.09588
    A3        2.09605  -0.00001   0.00001  -0.00018  -0.00017   2.09588
    A4        2.10224  -0.00002   0.00006   0.00003   0.00009   2.10234
    A5        2.09682   0.00001   0.00006  -0.00006   0.00001   2.09683
    A6        2.08412   0.00001  -0.00012   0.00002  -0.00010   2.08402
    A7        2.06779  -0.00032  -0.00051  -0.00147  -0.00198   2.06581
    A8        2.12697   0.00008  -0.00007   0.00030   0.00023   2.12720
    A9        2.08842   0.00024   0.00058   0.00118   0.00175   2.09018
   A10        2.13521   0.00065   0.00092   0.00253   0.00345   2.13866
   A11        2.07399  -0.00032  -0.00046  -0.00126  -0.00172   2.07226
   A12        2.07399  -0.00032  -0.00046  -0.00126  -0.00172   2.07226
   A13        2.06779  -0.00032  -0.00051  -0.00147  -0.00198   2.06581
   A14        2.08842   0.00024   0.00058   0.00118   0.00175   2.09018
   A15        2.12697   0.00008  -0.00007   0.00030   0.00023   2.12720
   A16        2.10224  -0.00002   0.00006   0.00003   0.00009   2.10234
   A17        2.09682   0.00001   0.00006  -0.00006   0.00001   2.09683
   A18        2.08412   0.00001  -0.00012   0.00002  -0.00010   2.08402
    D1        0.00041  -0.00001   0.00021  -0.00076  -0.00055  -0.00014
    D2       -3.14125  -0.00001   0.00007  -0.00053  -0.00047   3.14147
    D3       -3.14136  -0.00001  -0.00005  -0.00028  -0.00033   3.14150
    D4        0.00018   0.00000  -0.00020  -0.00005  -0.00025  -0.00007
    D5       -0.00041   0.00001  -0.00021   0.00076   0.00055   0.00014
    D6        3.14125   0.00001  -0.00007   0.00053   0.00047  -3.14147
    D7        3.14136   0.00001   0.00005   0.00028   0.00033  -3.14150
    D8       -0.00018   0.00000   0.00020   0.00005   0.00025   0.00007
    D9        0.00002   0.00000  -0.00003   0.00000  -0.00003  -0.00001
   D10        3.14159   0.00000  -0.00002   0.00003   0.00000  -3.14159
   D11       -3.14151   0.00000   0.00011  -0.00023  -0.00011   3.14156
   D12        0.00006   0.00000   0.00012  -0.00020  -0.00008  -0.00002
   D13       -0.00046   0.00001  -0.00015   0.00079   0.00064   0.00017
   D14       -3.14108  -0.00002   0.00036  -0.00108  -0.00072   3.14138
   D15        3.14115   0.00001  -0.00016   0.00076   0.00060  -3.14143
   D16        0.00053  -0.00002   0.00035  -0.00111  -0.00075  -0.00022
   D17        0.00046  -0.00001   0.00015  -0.00079  -0.00064  -0.00017
   D18       -3.14115  -0.00001   0.00016  -0.00076  -0.00060   3.14143
   D19        3.14108   0.00002  -0.00036   0.00108   0.00072  -3.14138
   D20       -0.00053   0.00002  -0.00035   0.00111   0.00075   0.00022
   D21       -0.00002   0.00000   0.00003   0.00000   0.00003   0.00001
   D22        3.14151   0.00000  -0.00011   0.00023   0.00011  -3.14156
   D23       -3.14159   0.00000   0.00002  -0.00003   0.00000   3.14159
   D24       -0.00006   0.00000  -0.00012   0.00020   0.00008   0.00002
         Item               Value     Threshold  Converged?
 Maximum Force            0.002321     0.000450     NO 
 RMS     Force            0.000371     0.000300     NO 
 Maximum Displacement     0.003564     0.001800     NO 
 RMS     Displacement     0.000710     0.001200     YES
 Predicted change in Energy=-1.085582D-05
 GradGradGradGradGradGradGradGradGradGradGradGradGradGradGradGradGradGrad

 Leave Link  103 at Sun Sep  3 00:51:44 2006, MaxMem=    6291456 cpu:       0.1
 (Enter /usr/local/Gaussian/g03/l202.exe)
                          Input orientation:                          
 ---------------------------------------------------------------------
 Center     Atomic     Atomic              Coordinates (Angstroms)
 Number     Number      Type              X           Y           Z
 ---------------------------------------------------------------------
    1          6             0       -0.002546    0.000139   -0.001475
    2          6             0       -0.002719   -0.000079    1.393329
    3          6             0        1.199200    0.000175    2.100242
    4          6             0        2.385567    0.000634    1.382432
    5          6             0        2.418487    0.001050   -0.003798
    6          6             0        1.207543    0.000789   -0.695135
    7          1             0        1.213533    0.001075   -1.779028
    8          1             0        3.371165    0.001553   -0.518864
    9          9             0        3.558977    0.001136    2.062422
   10          1             0        1.225993    0.000013    3.182910
   11          1             0       -0.940159   -0.000471    1.937448
   12          1             0       -0.939995   -0.000152   -0.544726
 ---------------------------------------------------------------------
                    Distance matrix (angstroms):
                    1          2          3          4          5
     1  C    0.000000
     2  C    1.394805   0.000000
     3  C    2.421034   1.394394   0.000000
     4  C    2.760123   2.388311   1.386621   0.000000
     5  C    2.421034   2.795390   2.431799   1.386621   0.000000
     6  C    1.394805   2.413798   2.795390   2.388311   1.394394
     7  H    2.153728   3.397517   3.879297   3.371720   2.145544
     8  H    3.413154   3.878090   3.402521   2.141573   1.083000
     9  F    4.116323   3.623998   2.360080   1.356200   2.360080
    10  H    3.413154   2.170791   1.083000   2.141573   3.402521
    11  H    2.153728   1.083909   2.145544   3.371720   3.879297
    12  H    1.083482   2.152799   3.401766   3.843605   3.401766
                    6          7          8          9         10
     6  C    0.000000
     7  H    1.083909   0.000000
     8  H    2.170791   2.498678   0.000000
     9  F    3.623998   4.500871   2.588109   0.000000
    10  H    3.878090   4.961954   4.278423   2.588109   0.000000
    11  H    3.397517   4.295415   4.961954   4.500871   2.498678
    12  H    2.152799   2.482174   4.311239   5.199805   4.311239
                   11         12
    11  H    0.000000
    12  H    2.482174   0.000000
 Stoichiometry    C6H5F
 Framework group  CS[SG(C2HF),X(C4H4)]
 Deg. of freedom    17
 Full point group                 CS      NOp   2
 Largest Abelian subgroup         CS      NOp   2
 Largest concise Abelian subgroup CS      NOp   2
                         Standard orientation:                         
 ---------------------------------------------------------------------
 Center     Atomic     Atomic              Coordinates (Angstroms)
 Number     Number      Type              X           Y           Z
 ---------------------------------------------------------------------
    1          6             0        0.000092   -1.833565    0.000000
    2          6             0        0.000005   -1.134369    1.206899
    3          6             0        0.000005    0.259996    1.215899
    4          6             0        0.000107    0.926558    0.000000
    5          6             0        0.000005    0.259996   -1.215899
    6          6             0        0.000005   -1.134369   -1.206899
    7          1             0       -0.000041   -1.672643   -2.147707
    8          1             0       -0.000060    0.826020   -2.139211
    9          9             0       -0.000144    2.282758    0.000000
   10          1             0       -0.000060    0.826020    2.139211
   11          1             0       -0.000041   -1.672643    2.147707
   12          1             0        0.000182   -2.917047    0.000000
 ---------------------------------------------------------------------
 Rotational constants (GHZ):      5.6808455      2.5620899      1.7657347
 Leave Link  202 at Sun Sep  3 00:51:46 2006, MaxMem=    6291456 cpu:       0.4
 (Enter /usr/local/Gaussian/g03/l301.exe)
 Standard basis: 6-311+G(d,p) (5D, 7F)
 There are   109 symmetry adapted basis functions of A'  symmetry.
 There are    75 symmetry adapted basis functions of A"  symmetry.
 Integral buffers will be    131072 words long.
 Raffenetti 2 integral format.
 Two-electron integral symmetry is turned on.
   184 basis functions,   292 primitive gaussians,   191 cartesian basis functions
    25 alpha electrons       25 beta electrons
       nuclear repulsion energy       269.1797692993 Hartrees.
 IExCor= 402 DFT=T Ex=B+HF Corr=LYP ExCW=0 ScaHFX=  0.200000
 ScaDFX=  0.800000  0.720000  1.000000  0.810000
 IRadAn=      0 IRanWt=     -1 IRanGd=            0 ICorTp=0
 NAtoms=   12 NActive=   12 NUniq=    8 SFac= 2.76D+00 NAtFMM=   60 Big=F
 Leave Link  301 at Sun Sep  3 00:51:47 2006, MaxMem=    6291456 cpu:       0.1
 (Enter /usr/local/Gaussian/g03/l302.exe)
 NPDir=0 NMtPBC=     1 NCelOv=     1 NCel=       1 NClECP=     1 NCelD=      1
         NCelK=      1 NCelE2=     1 NClLst=     1 CellRange=     0.0.
 One-electron integrals computed using PRISM.
 One-electron integral symmetry used in STVInt
 NBasis=   184 RedAO= T  NBF=   109    75
 NBsUse=   184 1.00D-06 NBFU=   109    75
 Precomputing XC quadrature grid using
 IXCGrd= 2 IRadAn=           0 IRanWt=          -1 IRanGd=           0.
 NRdTot=     769 NPtTot=       97600 NUsed=      103032 NTot=      103064
 NSgBfM=   191   191   191   191.
 Leave Link  302 at Sun Sep  3 00:51:54 2006, MaxMem=    6291456 cpu:       1.8
 (Enter /usr/local/Gaussian/g03/l303.exe)
 DipDrv:  MaxL=1.
 Leave Link  303 at Sun Sep  3 00:51:55 2006, MaxMem=    6291456 cpu:       0.1
 (Enter /usr/local/Gaussian/g03/l401.exe)
 Initial guess read from the read-write file:
 Guess basis will be translated and rotated to current coordinates.
 Initial guess orbital symmetries:
       Occupied  (A') (A') (A') (A") (A") (A') (A') (A') (A') (A")
                 (A') (A") (A') (A') (A') (A") (A') (A') (A") (A")
                 (A') (A') (A") (A") (A')
       Virtual   (A") (A') (A') (A") (A') (A') (A") (A') (A') (A')
                 (A") (A') (A") (A') (A') (A") (A') (A") (A') (A")
                 (A') (A') (A") (A') (A") (A') (A') (A") (A') (A')
                 (A") (A") (A') (A') (A") (A') (A') (A") (A') (A")
                 (A') (A') (A") (A') (A') (A") (A') (A") (A") (A')
                 (A") (A') (A") (A') (A') (A') (A") (A') (A') (A")
                 (A') (A') (A") (A') (A') (A") (A") (A") (A') (A')
                 (A") (A') (A") (A") (A') (A") (A') (A') (A') (A')
                 (A') (A") (A") (A') (A") (A') (A") (A') (A') (A')
                 (A") (A') (A') (A") (A") (A") (A') (A') (A") (A")
                 (A') (A") (A') (A') (A") (A') (A') (A") (A') (A")
                 (A") (A') (A") (A') (A") (A') (A') (A') (A') (A")
                 (A') (A") (A') (A') (A") (A') (A") (A') (A") (A")
                 (A') (A") (A') (A") (A') (A") (A') (A') (A') (A")
                 (A') (A") (A') (A') (A") (A') (A") (A") (A') (A')
                 (A") (A') (A') (A') (A") (A') (A") (A') (A')
 The electronic state of the initial guess is 1-A'.
 Leave Link  401 at Sun Sep  3 00:52:00 2006, MaxMem=    6291456 cpu:       1.0
 (Enter /usr/local/Gaussian/g03/l502.exe)
 Closed shell SCF:
 Requested convergence on RMS density matrix=1.00D-08 within 128 cycles.
 Requested convergence on MAX density matrix=1.00D-06.
 Requested convergence on             energy=1.00D-06.
 No special actions if energy rises.
 Using DIIS extrapolation, IDIIS=  1040.
 Integral symmetry usage will be decided dynamically.
       103031 words used for storage of precomputed grid.
 IEnd=    250344 IEndB=    250344 NGot=   6291456 MDV=   6094425
 LenX=   6094425
 Fock matrices will be formed incrementally for  20 cycles.

 Cycle   1  Pass 1  IDiag  1:
 Petite list used in FoFDir.
 MinBra= 0 MaxBra= 2 Meth= 1.
 IRaf=       0 NMat=   1 IRICut=       1 DoRegI=T DoRafI=F ISym2E= 1 JSym2E=1.
 E= -331.580101821136    
 DIIS: error= 2.56D-04 at cycle   1 NSaved=   1.
 NSaved= 1 IEnMin= 1 EnMin= -331.580101821136     IErMin= 1 ErrMin= 2.56D-04
 ErrMax= 2.56D-04 EMaxC= 1.00D-01 BMatC= 9.83D-06 BMatP= 9.83D-06
 IDIUse=3 WtCom= 9.97D-01 WtEn= 2.56D-03
 Coeff-Com:  0.100D+01
 Coeff-En:   0.100D+01
 Coeff:      0.100D+01
 Gap=     0.229 Goal=   None    Shift=    0.000
 RMSDP=2.86D-04 MaxDP=1.97D-02              OVMax= 8.06D-04

 Cycle   2  Pass 1  IDiag  1:
 RMSU=  2.18D-04    CP:  1.01D+00
 E= -331.580110291256     Delta-E=       -0.000008470120 Rises=F Damp=F
 DIIS: error= 1.52D-04 at cycle   2 NSaved=   2.
 NSaved= 2 IEnMin= 2 EnMin= -331.580110291256     IErMin= 2 ErrMin= 1.52D-04
 ErrMax= 1.52D-04 EMaxC= 1.00D-01 BMatC= 1.75D-06 BMatP= 9.83D-06
 IDIUse=3 WtCom= 9.98D-01 WtEn= 1.52D-03
 Coeff-Com:  0.206D+00 0.794D+00
 Coeff-En:   0.000D+00 0.100D+01
 Coeff:      0.206D+00 0.794D+00
 Gap=     0.230 Goal=   None    Shift=    0.000
 RMSDP=1.24D-05 MaxDP=5.25D-04 DE=-8.47D-06 OVMax= 3.85D-04

 Cycle   3  Pass 1  IDiag  1:
 RMSU=  1.17D-05    CP:  1.01D+00  1.01D+00
[...]
    R4        2.63502  -0.00010   0.00000  -0.00011  -0.00011   2.63491
    R5        2.04829   0.00000   0.00000   0.00001   0.00001   2.04830
    R6        2.62033  -0.00028   0.00000  -0.00068  -0.00068   2.61965
    R7        2.04657  -0.00006   0.00000  -0.00020  -0.00020   2.04637
    R8        2.62033  -0.00028   0.00000  -0.00068  -0.00068   2.61965
    R9        2.56285   0.00041   0.00000   0.00139   0.00139   2.56424
   R10        2.63502  -0.00010   0.00000  -0.00011  -0.00011   2.63491
   R11        2.04657  -0.00006   0.00000  -0.00020  -0.00020   2.04637
   R12        2.04829   0.00000   0.00000   0.00001   0.00001   2.04830
    A1        2.09142   0.00003   0.00000   0.00031   0.00031   2.09173
    A2        2.09588  -0.00002   0.00000  -0.00015  -0.00015   2.09573
    A3        2.09588  -0.00002   0.00000  -0.00015  -0.00015   2.09573
    A4        2.10234  -0.00002   0.00000  -0.00010  -0.00010   2.10223
    A5        2.09683  -0.00001   0.00000  -0.00013  -0.00013   2.09670
    A6        2.08402   0.00003   0.00000   0.00024   0.00024   2.08426
    A7        2.06581  -0.00006   0.00000  -0.00047  -0.00047   2.06534
    A8        2.12720   0.00004   0.00000   0.00036   0.00036   2.12756
    A9        2.09018   0.00002   0.00000   0.00011   0.00011   2.09029
   A10        2.13866   0.00012   0.00000   0.00084   0.00084   2.13950
   A11        2.07226  -0.00006   0.00000  -0.00042  -0.00042   2.07184
   A12        2.07226  -0.00006   0.00000  -0.00042  -0.00042   2.07184
   A13        2.06581  -0.00006   0.00000  -0.00047  -0.00047   2.06534
   A14        2.09018   0.00002   0.00000   0.00011   0.00011   2.09029
   A15        2.12720   0.00004   0.00000   0.00036   0.00036   2.12756
   A16        2.10234  -0.00002   0.00000  -0.00010  -0.00010   2.10223
   A17        2.09683  -0.00001   0.00000  -0.00013  -0.00013   2.09670
   A18        2.08402   0.00003   0.00000   0.00024   0.00024   2.08426
    D1       -0.00014   0.00000   0.00000   0.00014   0.00014   0.00000
    D2        3.14147   0.00000   0.00000   0.00012   0.00012  -3.14159
    D3        3.14150   0.00000   0.00000   0.00010   0.00010  -3.14159
    D4       -0.00007   0.00000   0.00000   0.00007   0.00007   0.00000
    D5        0.00014   0.00000   0.00000  -0.00014  -0.00014   0.00000
    D6       -3.14147   0.00000   0.00000  -0.00012  -0.00012   3.14159
    D7       -3.14150   0.00000   0.00000  -0.00010  -0.00010   3.14159
    D8        0.00007   0.00000   0.00000  -0.00007  -0.00007   0.00000
    D9       -0.00001   0.00000   0.00000   0.00001   0.00001   0.00000
   D10       -3.14159   0.00000   0.00000   0.00000   0.00000   3.14159
   D11        3.14156   0.00000   0.00000   0.00003   0.00003   3.14159
   D12       -0.00002   0.00000   0.00000   0.00002   0.00002   0.00000
   D13        0.00017  -0.00001   0.00000  -0.00017  -0.00017   0.00000
   D14        3.14138   0.00001   0.00000   0.00021   0.00021   3.14159
   D15       -3.14143  -0.00001   0.00000  -0.00016  -0.00016  -3.14159
   D16       -0.00022   0.00001   0.00000   0.00022   0.00022   0.00000
   D17       -0.00017   0.00001   0.00000   0.00017   0.00017   0.00000
   D18        3.14143   0.00001   0.00000   0.00016   0.00016   3.14159
   D19       -3.14138  -0.00001   0.00000  -0.00021  -0.00021  -3.14159
   D20        0.00022  -0.00001   0.00000  -0.00022  -0.00022   0.00000
   D21        0.00001   0.00000   0.00000  -0.00001  -0.00001   0.00000
   D22       -3.14156   0.00000   0.00000  -0.00003  -0.00003  -3.14159
   D23        3.14159   0.00000   0.00000   0.00000   0.00000  -3.14159
   D24        0.00002   0.00000   0.00000  -0.00002  -0.00002   0.00000
         Item               Value     Threshold  Converged?
 Maximum Force            0.000410     0.000450     YES
 RMS     Force            0.000096     0.000300     YES
 Maximum Displacement     0.001148     0.001800     YES
 RMS     Displacement     0.000295     0.001200     YES
 Predicted change in Energy=-7.478054D-07
 Optimization completed.
    -- Stationary point found.
                           ----------------------------
                           !   Optimized Parameters   !
                           ! (Angstroms and Degrees)  !
 --------------------------                            --------------------------
 ! Name  Definition              Value          Derivative Info.                !
 --------------------------------------------------------------------------------
 ! R1    R(1,2)                  1.3948         -DE/DX =   -0.0002              !
 ! R2    R(1,6)                  1.3948         -DE/DX =   -0.0002              !
 ! R3    R(1,12)                 1.0835         -DE/DX =    0.0                 !
 ! R4    R(2,3)                  1.3944         -DE/DX =   -0.0001              !
 ! R5    R(2,11)                 1.0839         -DE/DX =    0.0                 !
 ! R6    R(3,4)                  1.3866         -DE/DX =   -0.0003              !
 ! R7    R(3,10)                 1.083          -DE/DX =   -0.0001              !
 ! R8    R(4,5)                  1.3866         -DE/DX =   -0.0003              !
 ! R9    R(4,9)                  1.3562         -DE/DX =    0.0004              !
 ! R10   R(5,6)                  1.3944         -DE/DX =   -0.0001              !
 ! R11   R(5,8)                  1.083          -DE/DX =   -0.0001              !
 ! R12   R(6,7)                  1.0839         -DE/DX =    0.0                 !
 ! A1    A(2,1,6)              119.8298         -DE/DX =    0.0                 !
 ! A2    A(2,1,12)             120.0851         -DE/DX =    0.0                 !
 ! A3    A(6,1,12)             120.0851         -DE/DX =    0.0                 !
 ! A4    A(1,2,3)              120.4549         -DE/DX =    0.0                 !
 ! A5    A(1,2,11)             120.1393         -DE/DX =    0.0                 !
 ! A6    A(3,2,11)             119.4058         -DE/DX =    0.0                 !
 ! A7    A(2,3,4)              118.362          -DE/DX =   -0.0001              !
 ! A8    A(2,3,10)             121.8797         -DE/DX =    0.0                 !
 ! A9    A(4,3,10)             119.7584         -DE/DX =    0.0                 !
 ! A10   A(3,4,5)              122.5364         -DE/DX =    0.0001              !
 ! A11   A(3,4,9)              118.7318         -DE/DX =   -0.0001              !
 ! A12   A(5,4,9)              118.7318         -DE/DX =   -0.0001              !
 ! A13   A(4,5,6)              118.362          -DE/DX =   -0.0001              !
 ! A14   A(4,5,8)              119.7584         -DE/DX =    0.0                 !
 ! A15   A(6,5,8)              121.8797         -DE/DX =    0.0                 !
 ! A16   A(1,6,5)              120.4549         -DE/DX =    0.0                 !
 ! A17   A(1,6,7)              120.1393         -DE/DX =    0.0                 !
 ! A18   A(5,6,7)              119.4058         -DE/DX =    0.0                 !
 ! D1    D(6,1,2,3)             -0.0082         -DE/DX =    0.0                 !
 ! D2    D(6,1,2,11)          -180.0069         -DE/DX =    0.0                 !
 ! D3    D(12,1,2,3)          -180.0056         -DE/DX =    0.0                 !
 ! D4    D(12,1,2,11)           -0.0043         -DE/DX =    0.0                 !
 ! D5    D(2,1,6,5)              0.0082         -DE/DX =    0.0                 !
 ! D6    D(2,1,6,7)            180.0069         -DE/DX =    0.0                 !
 ! D7    D(12,1,6,5)           180.0056         -DE/DX =    0.0                 !
 ! D8    D(12,1,6,7)             0.0043         -DE/DX =    0.0                 !
 ! D9    D(1,2,3,4)             -0.0007         -DE/DX =    0.0                 !
 ! D10   D(1,2,3,10)           180.0001         -DE/DX =    0.0                 !
 ! D11   D(11,2,3,4)           179.998          -DE/DX =    0.0                 !
 ! D12   D(11,2,3,10)           -0.0012         -DE/DX =    0.0                 !
 ! D13   D(2,3,4,5)              0.01           -DE/DX =    0.0                 !
 ! D14   D(2,3,4,9)            179.9879         -DE/DX =    0.0                 !
 ! D15   D(10,3,4,5)          -179.9908         -DE/DX =    0.0                 !
 ! D16   D(10,3,4,9)            -0.0128         -DE/DX =    0.0                 !
 ! D17   D(3,4,5,6)             -0.01           -DE/DX =    0.0                 !
 ! D18   D(3,4,5,8)            179.9908         -DE/DX =    0.0                 !
 ! D19   D(9,4,5,6)           -179.9879         -DE/DX =    0.0                 !
 ! D20   D(9,4,5,8)              0.0128         -DE/DX =    0.0                 !
 ! D21   D(4,5,6,1)              0.0007         -DE/DX =    0.0                 !
 ! D22   D(4,5,6,7)           -179.998          -DE/DX =    0.0                 !
 ! D23   D(8,5,6,1)           -180.0001         -DE/DX =    0.0                 !
 ! D24   D(8,5,6,7)              0.0012         -DE/DX =    0.0                 !
 --------------------------------------------------------------------------------
 GradGradGradGradGradGradGradGradGradGradGradGradGradGradGradGradGradGrad

 Leave Link  103 at Sun Sep  3 06:31:54 2006, MaxMem=    6291456 cpu:       0.1
 (Enter /usr/local/Gaussian/g03/l9999.exe)
 1\1\GINC-PUBLIX\Freq\RB3LYP\6-311+G(d,p)\C6H5F1\NOBODY\03-Sep-2006\0\\
 #P GEOM=ALLCHECK GUESS=READ SCRF=CHECK GENCHK RB3LYP/6-311+G(D,P) FREQ
 \\fluorobz basis\\0,1\C,-1.5864362201,-0.0004309741,-0.9193372381\C,-1
 .5866093285,-0.0006494397,0.4754672632\C,-0.3846904135,-0.000394555,1.
 1823797503\C,0.8016762504,0.0000644684,0.464570034\C,0.8345968362,0.00
 04805027,-0.921659717\C,-0.3763475499,0.0002191406,-1.6129975744\H,-0.
 3703575661,0.0005046311,-2.6968902144\H,1.7872746986,0.0009825282,-1.4
 367263223\F,1.9750864368,0.000566482,1.1445594261\H,-0.3578972921,-0.0
 005570182,2.265048246\H,-2.524049261,-0.0010410298,1.019586217\H,-2.52
 38859575,-0.0007223069,-1.4625878686\\Version=Sun64-SVR4-Unix-G03RevB.
 04\State=1-A'\HF=-331.5801112\RMSD=4.442e-09\RMSF=1.762e-04\Dipole=-0.
 5948222,-0.0001471,-0.3446985\DipoleDeriv=-0.0105536,0.0000603,0.08912
 41,0.0000498,-0.1462066,0.0000364,0.0891241,0.0000425,-0.1127016,0.102
 4284,0.0000504,0.0198655,0.000085,-0.1422636,-0.0000525,-0.0422999,-0.
 0000588,0.1042828,-0.2329243,-0.0000365,-0.1185768,-0.000056,-0.130734
 6,-0.000086,0.0797734,0.0000245,0.0028455,1.1658576,0.0003459,0.526709
 2,0.000502,0.0878306,0.0002206,0.5267093,0.0001301,0.5621795,-0.072180
 4,0.0000319,-0.0123434,0.0000499,-0.1307345,0.0000066,-0.2106937,-0.00
 01029,-0.1578984,0.0941463,0.0000827,-0.0375537,0.0000667,-0.1422636,-
 0.0000724,0.0246117,-0.0000769,0.1125649,0.07135,-0.0000286,0.0023603,
 -0.0000168,0.1397492,0.0000444,0.0006218,0.0000565,-0.0862208,-0.01953
 98,-0.0000784,0.0429832,-0.0000809,0.159906,0.0000462,0.0515515,0.0000
 493,0.0597184,-1.0815364,-0.0002665,-0.5048794,-0.0004327,-0.1443526,-
 0.0002233,-0.5048795,-0.000127,-0.502878,0.0809061,-0.000021,-0.006010
 7,-0.0000196,0.159906,0.0000296,-0.0145789,0.0000271,-0.0407276,-0.045
 98,-0.0000745,0.0678597,-0.0000802,0.1397491,0.0000555,0.0695982,0.000
 0398,0.0311093,-0.0519738,-0.0000657,-0.0695382,-0.0000673,0.1494145,-
 0.0000052,-0.0695382,-0.0000042,0.027726\Polar=79.5779723,0.0133758,40
 .3623814,1.0835123,-0.0077807,78.3361304\PG=CS [SG(C2H1F1),X(C4H4)]\NI
 mag=0\\0.71759401,0.00023206,0.12931160,0.03896047,-0.00008222,0.67294
 029,-0.12776784,-0.00003073,0.03122638,0.71530151,-0.00001663,-0.06101
 298,0.00004996,0.00019484,0.13356361,-0.03122671,0.00002822,-0.3286829
 7,-0.03522578,-0.00010104,0.67401028,0.03149802,0.00002520,-0.07504945
 ,-0.28109728,-0.00005903,-0.05831580,0.66718620,0.00001249,0.00552284,
 -0.00001999,-0.00004777,-0.05748467,0.00000196,0.00017159,0.12337054,-
 0.03009247,-0.00000423,-0.02510955,-0.12200314,-0.00001811,-0.18154327
 ,0.00560014,-0.00009695,0.75202487,-0.01886270,-0.00001149,0.03411151,
 -0.06071688,-0.00001319,-0.03093719,-0.25400136,-0.00007460,0.13994746
 ,0.65264035,-0.00001114,-0.00361573,0.00002436,-0.00002781,0.00001718,
 -0.00002109,-0.00006990,-0.06429855,0.00006379,0.00019733,0.14782435,0
 .03411151,0.00002416,-0.05795900,0.02697963,-0.00000177,0.07191155,0.0
 6218800,0.00003354,-0.19578147,-0.02973249,-0.00011694,0.68671781,-0.0
 5647278,-0.00002617,0.02032062,-0.01555219,0.00000004,-0.02767521,0.03
 201795,0.00000258,0.02523771,-0.12297437,-0.00004097,0.06486031,0.7358
 8292,-0.00001816,0.00552283,-0.00000759,0.00000306,-0.00152559,0.00000
 255,-0.00000548,0.00706941,0.00001384,-0.00002113,-0.06429856,0.000105
 46,0.00024325,0.12337061,-0.02463637,-0.00002063,0.06286126,-0.0270423
 1,-0.00000090,-0.05235262,0.07142483,0.00003310,-0.02337608,-0.0128991
 4,0.00006644,-0.32680846,-0.03376761,-0.00016378,0.68332809,-0.2790133
 6,-0.00010398,0.05544697,0.03206365,-0.00000718,0.07668197,-0.06685973
 ,-0.00002091,0.00172740,0.03741622,0.00003565,-0.08717395,-0.28394328,
 -0.00006847,-0.05668486,0.65382572,-0.00011700,-0.06101303,0.00005323,
 0.00000458,0.00555603,0.00003311,-0.00002580,-0.00152560,0.00000080,0.
 00002362,0.00001720,-0.00002568,-0.00005182,-0.05748468,0.00001281,0.0
 0019694,0.13356365,0.11790006,0.00007435,-0.17743740,0.02928894,0.0000
 1939,-0.02866469,0.00236030,0.00000194,-0.00104508,-0.02925712,-0.0000
 0786,-0.02622156,-0.12037220,-0.00001038,-0.17869727,0.00000392,-0.000
 15552,0.73548603,0.00487256,-0.00000621,0.02803291,-0.00451296,-0.0000
 0488,0.00253974,-0.00112708,0.00000002,-0.00019535,-0.00367308,-0.0000
 0431,-0.00136509,0.00366368,0.00000796,-0.02861621,-0.05889653,-0.0000
 0968,0.00175178,0.05835485,0.00000344,0.00349876,0.00001288,-0.0000053
 3,0.00680580,0.00000372,-0.00000183,-0.00118528,-0.00000095,-0.0000022
 9,0.00763498,-0.00000143,0.00000103,0.00335144,-0.00000475,-0.00001210
 ,-0.03679032,0.00007860,0.00001279,0.02543455,-0.00281378,0.00000241,-
 0.01099815,0.00330697,0.00000320,0.00046418,-0.00002125,-0.00000046,0.
 00071513,-0.00226116,0.00000066,0.00156628,0.00215752,0.00000466,-0.01
 152654,0.00156766,0.00007898,-0.33669848,-0.00148611,-0.00008678,0.356
 68264,-0.00240013,-0.00000284,-0.00388870,0.00018101,0.00000060,-0.000
 71550,0.00141255,-0.00000143,-0.00050955,0.00072758,-0.00000064,-0.002
 28833,-0.27336942,-0.00012410,0.12078642,-0.01705884,-0.00001140,0.014
 74613,0.00101105,0.00000206,-0.00015557,0.28884372,-0.00000283,0.00713
 753,0.00000068,0.00000070,-0.00112446,-0.00000046,0.00000008,0.0052185
 3,0.00000252,-0.00001220,0.00484576,0.00000504,-0.00012316,-0.03371484
 ,0.00006942,-0.00000317,0.00241140,0.00000306,0.00000198,-0.00417760,-
 0.00000134,0.00013597,0.02378401,-0.00337188,0.00000107,-0.00095309,-0
 .00110435,-0.00000051,-0.00079011,-0.00119908,0.00000255,-0.00578616,0
 .03028291,0.00001524,-0.00936580,0.11902542,0.00007221,-0.12491868,-0.
 01497863,-0.00000878,0.01254680,0.00056988,-0.00000125,0.00079399,-0.1
 2921608,-0.00007839,0.12557437,-0.00152928,0.00000067,-0.00374716,-0.0
 0028130,-0.00000540,0.00949193,-0.05334782,-0.00002473,-0.03120754,-0.
 23463572,-0.00007123,-0.09289447,-0.01181534,-0.00000887,-0.01386620,0
 .00054751,-0.00000355,-0.00004154,-0.00074111,-0.00000007,-0.00037270,
 0.00144934,0.00000320,-0.00060998,0.29978566,-0.00000029,-0.00115731,-
 0.00000270,-0.00000235,0.00733657,0.00000403,-0.00002216,0.00686652,-0
 .00001451,-0.00008367,-0.04045380,-0.00003440,0.00000390,0.00686653,0.
 00000439,-0.00000574,0.00733657,0.00000406,0.00000015,-0.00000365,0.00
 000012,0.00000214,-0.00420059,-0.00000211,0.00010581,0.02271135,-0.003
 74716,-0.00000215,0.00276546,0.00043343,0.00000180,-0.00486820,0.00993
 466,0.00000177,0.01401488,-0.09289448,-0.00002719,-0.12816642,-0.05500
 839,-0.00002077,-0.02751760,0.00901697,0.00000579,-0.00569701,-0.00208
 309,0.00000010,-0.00104362,0.00060985,-0.00000071,0.00297168,0.1348839
 3,0.00004289,0.14519092,-0.00444299,-0.00000329,-0.00220119,0.00512747
 ,0.00000494,-0.02769285,-0.05816485,-0.00000519,-0.00430103,0.00520616
 ,-0.00000423,0.02771639,-0.00474361,-0.00000354,0.00232881,-0.00133510
 ,-0.00000008,-0.00023552,0.00009220,0.00000020,-0.00001105,0.00011298,
 -0.00000050,0.00133627,0.00259527,0.00000248,-0.00126668,0.05445126,-0
 .00000330,0.00713753,0.00000018,0.00000079,0.00241140,-0.00000676,-0.0
 0000825,-0.03371478,0.00004786,0.00000146,0.00484577,0.00000855,-0.000
 00325,0.00521853,0.00000268,-0.00000022,-0.00112446,-0.00000041,0.0000
 0028,-0.00069518,-0.00000020,-0.00000004,0.00019309,0.00000045,0.00000
 345,-0.00420059,-0.00000108,0.00000748,0.02378395,-0.00271801,-0.00000
 021,0.00108978,0.00203190,0.00000271,-0.00963951,-0.00254003,0.0000463
 0,-0.34012331,-0.00485486,0.00000175,-0.01384438,0.00301833,0.00000160
 ,0.00036999,0.00015334,-0.00000032,0.00072600,0.00000516,-0.00000004,-
 0.00007376,-0.00017947,0.00000014,-0.00054994,-0.00004685,-0.00000087,
 0.00182575,0.00510630,-0.00005055,0.35996690,0.00380475,0.00000049,-0.
 00220186,-0.26658899,-0.00009429,0.12058919,-0.01918538,-0.00000963,0.
 01525154,-0.00129331,-0.00000253,-0.00362492,0.00016626,0.00000058,-0.
 00076242,0.00175598,-0.00000129,-0.00028555,0.00004936,0.00000008,-0.0
 0016950,-0.00003527,0.00000016,0.00006200,-0.00202825,-0.00000077,0.00
 036492,0.00102638,0.00000180,-0.00016436,0.28164859,-0.00000484,0.0034
 9876,0.00000414,-0.00009595,-0.03679033,0.00005135,-0.00000207,0.00335
 144,0.00000379,-0.00000390,0.00763498,0.00000268,-0.00000067,-0.001185
 28,-0.00000177,-0.00000059,0.00680580,0.00000127,0.,0.00007519,-0.0000
 0002,0.00000026,-0.00069518,-0.00000025,0.00000016,-0.00000365,-0.0000
 0013,0.00000146,-0.00417760,-0.00000074,0.00010412,0.02543457,0.028644
 83,0.00001211,-0.00993034,0.12077330,0.00005334,-0.12900601,-0.0155221
 9,-0.00000597,0.01132252,-0.00272885,0.00000020,-0.00081347,-0.0009365
 2,-0.00000047,-0.00057822,-0.00105278,0.00000165,-0.00580476,0.0013917
 0,0.00000097,-0.00065104,0.00007821,-0.00000010,0.00005371,-0.00134547
 ,-0.00000057,0.00024352,0.00056110,-0.00000050,0.00077866,-0.12944820,
 -0.00005968,0.13338888,-0.26728026,-0.00007372,-0.12101049,0.00384382,
 0.00000019,0.00248622,0.00166879,-0.00000243,0.00054483,0.00016711,-0.
 00000021,0.00122340,-0.00285981,-0.00000510,0.00373506,-0.01850223,-0.
 00000452,-0.01585921,0.00090706,0.00000203,0.00025898,-0.00087456,-0.0
 0000022,-0.00079647,0.00000104,0.00000052,-0.00024395,0.00007483,-0.00
 000019,0.00018853,0.00067988,0.00000200,-0.00041513,0.28217434,-0.0000
 7379,-0.03483079,-0.00003293,0.00000597,0.00224745,0.00000441,-0.00000
 235,0.00680959,0.00000215,0.00000007,-0.00015357,0.00000079,-0.0000047
 5,0.00680959,0.00000297,-0.00001021,0.00224745,-0.00000850,0.00000188,
 -0.00394870,-0.00000124,-0.00000056,0.00032234,-0.00000024,0.00000055,
 -0.00109795,-0.00000032,0.00000026,0.00032234,0.00000023,0.00000129,-0
 .00394870,-0.00000099,0.00008165,0.02522096,-0.12101048,-0.00003289,-0
 .12858629,-0.02866498,-0.00000807,-0.01083863,0.00113988,0.00000221,-0
 .00531247,0.00122340,0.00000062,-0.00123507,0.00314001,0.00000266,-0.0
 0078388,0.01529198,0.00000393,0.01150743,-0.00054532,-0.00000108,0.000
 76937,0.00073260,0.00000015,0.00042322,-0.00024395,-0.00000033,0.00028
 064,-0.00134054,-0.00000022,-0.00052617,0.00038916,-0.00000064,0.00099
 655,0.12988824,0.00003367,0.13330529\\-0.00023076,-0.00000676,-0.00013
 373,-0.00008314,0.00000872,0.00018299,-0.00018559,0.00000775,0.0000320
 6,0.00073225,-0.00003653,0.00042432,-0.00006446,0.00000784,-0.00017696
 ,0.00011743,0.00000887,-0.00016312,0.00001948,0.00000093,0.00000150,0.
 00004926,-0.00000085,-0.00004016,-0.00035438,0.00001364,-0.00020535,-0
 .00001035,-0.00000089,0.00006271,0.00001098,0.00000093,0.00001616,-0.0
 0000071,-0.00000365,-0.00000041\\\@


 THE THINKER DIES, BUT HIS THOUGHTS ARE BEYOND THE 
 REACH OF DESTRUCTION.  MEN ARE MORTAL; BUT IDEAS 
 ARE IMMORTAL.
                              -- WALTER LIPPMANN
 Job cpu time:  0 days  1 hours 22 minutes  2.3 seconds.
 File lengths (MBytes):  RWF=     54 Int=      0 D2E=      0 Chk=     12 Scr=      1
 Normal termination of Gaussian 03 at Sun Sep  3 06:31:55 2006.
