 argument  1 = band.nw
                                         
                                         


              Northwest Computational Chemistry Package (NWChem) 6.0
              ------------------------------------------------------


                    Environmental Molecular Sciences Laboratory
                       Pacific Northwest National Laboratory
                                Richland, WA 99352

                              Copyright (c) 1994-2010
                       Pacific Northwest National Laboratory
                            Battelle Memorial Institute

             NWChem is an open-source computational chemistry package
                        distributed under the terms of the
                      Educational Community License (ECL) 2.0
             A copy of the license is included with this distribution
                              in the LICENSE.TXT file

                                  ACKNOWLEDGMENT
                                  --------------

            This software and its documentation were developed at the
            EMSL at Pacific Northwest National Laboratory, a multiprogram
            national laboratory, operated for the U.S. Department of Energy
            by Battelle under Contract Number DE-AC05-76RL01830. Support
            for this work was provided by the Department of Energy Office
            of Biological and Environmental Research, Office of Basic
            Energy Sciences, and the Office of Advanced Scientific Computing.


           Job information
           ---------------

    hostname      = arcen
    program       = /home/d3y133/nwchem-releases/nwchem-6.0-gfortran/bin/LINUX64/nwchem
    date          = Fri Aug  6 14:00:17 2010

    compiled      = Fri_Aug_06_13:42:42_2010
    source        = /home/d3y133/nwchem-releases/nwchem-6.0-gfortran
    nwchem branch = 6.0
    input         = band.nw
    prefix        = band.
    data base     = ./band.db
    status        = startup
    nproc         =        4
    time left     =     -1s



           Memory information
           ------------------

    heap     =    2949121 doubles =     22.5 Mbytes
    stack    =    2949121 doubles =     22.5 Mbytes
    global   =    5898240 doubles =     45.0 Mbytes (distinct from heap & stack)
    total    =   11796482 doubles =     90.0 Mbytes
    verify   = yes
    hardfail = no 


           Directory information
           ---------------------

  0 permanent = .
  0 scratch   = .




                                NWChem Input Module
                                -------------------


                               GaN 8 atom cubic cell
                               ---------------------

  !!!!!!!!!  geom_3d NEEDS TESTING !!!!!!!!!! 


                             Geometry "geometry" -> ""
                             -------------------------

 Output coordinates in a.u. (scale by  1.000000000 to convert to a.u.)

  No.       Tag          Charge          X              Y              Z
 ---- ---------------- ---------- -------------- -------------- --------------
    1 Ga                  31.0000     2.96000000     5.12750000     4.82650000
    2 Ga                  31.0000     2.96000000     1.70916701     0.00000000
    3 Ga                  31.0000     0.00000000     6.83666670     0.00000000
    4 Ga                  31.0000     0.00000000     0.00000000     4.82650000
    5 N                    7.0000     2.96000000     5.12750000     8.46568100
    6 N                    7.0000     2.96000000     1.70916701     3.63918100
    7 N                    7.0000     0.00000000     6.83666701     3.63918100
    8 N                    7.0000     0.00000000     0.00000000     8.46568100

      Lattice Parameters 
      ------------------ 

      lattice vectors in a.u. (scale by  1.000000000 to convert to a.u.)

      a1=<   5.920   0.000   0.000 >
      a2=<   0.000  10.255   0.000 >
      a3=<   0.000   0.000   9.653 >
      a=       5.920 b=     10.255 c=       9.653
      alpha=  90.000 beta=  90.000 gamma=  90.000
      omega=   586.0

      reciprocal lattice vectors in a.u.

      b1=<   1.061   0.000   0.000 >
      b2=<   0.000   0.613   0.000 >
      b3=<   0.000   0.000   0.651 >

      Atomic Mass 
      ----------- 

      Ga                68.925700
      N                 14.003070


 ==============================================================================
                                internuclear distances
 ------------------------------------------------------------------------------
       center one      |      center two      | atomic units |       a.u.
 ------------------------------------------------------------------------------
    5 N                |   1 Ga               |     3.63918  |     3.63918
    6 N                |   1 Ga               |     3.61866  |     3.61866
    6 N                |   2 Ga               |     3.63918  |     3.63918
    6 N                |   4 Ga               |     3.61837  |     3.61837
    7 N                |   1 Ga               |     3.61837  |     3.61837
    7 N                |   3 Ga               |     3.63918  |     3.63918
    8 N                |   4 Ga               |     3.63918  |     3.63918
 ------------------------------------------------------------------------------
                         number of included internuclear distances:          7
 ==============================================================================



 ==============================================================================
                                 internuclear angles
 ------------------------------------------------------------------------------
        center 1       |       center 2       |       center 3       |  degrees
 ------------------------------------------------------------------------------
    5 N                |   1 Ga               |   6 N                |   109.15
    5 N                |   1 Ga               |   7 N                |   109.16
    6 N                |   1 Ga               |   7 N                |   109.79
    6 N                |   4 Ga               |   8 N                |   109.16
    1 Ga               |   6 N                |   2 Ga               |   109.15
    1 Ga               |   6 N                |   4 Ga               |   109.79
    2 Ga               |   6 N                |   4 Ga               |   109.16
    1 Ga               |   7 N                |   3 Ga               |   109.16
 ------------------------------------------------------------------------------
                            number of included internuclear angles:          8
 ==============================================================================



          ****************************************************
          *                                                  *
          *               NWPW PSPW Calculation              *
          *                                                  *
          *  [ (Grassman/Stiefel manifold implementation) ]  *
          *                                                  *
          *      [ NorthWest Chemistry implementation ]      *
          *                                                  *
          *            version #5.10   06/12/02              *
          *                                                  *
          *    This code was developed by Eric J. Bylaska,   *
          *    and was based upon algorithms and code        *
          *    developed by the group of Prof. John H. Weare *
          *                                                  *
          ****************************************************
     >>>  JOB STARTED       AT Fri Aug  6 14:00:17 2010  <<<
          ================ input data ========================
  library name resolved from: compiled reference
  NWCHEM_NWPW_LIBRARY set to: </home/d3y133/nwchem-releases/nwchem-6.0-gfortran/src/nwpw/libraryps/>
 Generating 1d pseudopotential for Ga  

 Generated formatted_filename: ./Ga.vpp
  library name resolved from: compiled reference
  NWCHEM_NWPW_LIBRARY set to: </home/d3y133/nwchem-releases/nwchem-6.0-gfortran/src/nwpw/libraryps/>
 Generating 1d pseudopotential for N   

 Generated formatted_filename: ./N.vpp
 random planewave guess, initial psi:band.movecs                   
 -   spin, nalpha, nbeta:                    1                   16                    0

 input psi filename:./band.movecs
 Warning - Gram-Schmidt being performed on psi:   16.0000000000000        10.8210191970224        16.0000000000000        5.17898080297764     

 number of processors used:         4
 processor grid           :   4 x   1
 parallel mapping         :      slab
 parallel mapping         :  balanced

 options:
      boundary conditions  = periodic    (version3)
      electron spin        = restricted
      exchange-correlation = LDA (Vosko et al) parameterization

 elements involved in the cluster:
      1: Ga    core charge:  3.0000  lmax=  2
             comment    : Hamann pseudopotential
             pseudpotential type            :   0
             highest angular component      :   2
             local potential used           :   2
             number of non-local projections:   4
             cutoff =   1.128   1.506   2.118

      2: N     core charge:  5.0000  lmax=  2
             comment    : Hamann pseudopotential
             pseudpotential type            :   0
             highest angular component      :   2
             local potential used           :   2
             number of non-local projections:   4
             cutoff =   0.700   0.700   0.700


 total charge:   0.000

 atomic composition:
     Ga  :  4     N   :  4

 number of electrons: spin up=    16 (  16 per task)  down=    16 (  16 per task) (fourier space)
 number of orbitals : spin up=    16 (  16 per task)  down=    16 (  16 per task) (fourier space)

 supercell:
      cell_name:  cell_default                  
      lattice:    a1=<   5.920   0.000   0.000 >
                  a2=<   0.000  10.255   0.000 >
                  a3=<   0.000   0.000   9.653 >
      reciprocal: b1=<   1.061   0.000   0.000 >
                  b2=<   0.000   0.613   0.000 >
                  b3=<   0.000   0.000   0.651 >
      lattice:    a=       5.920 b=     10.255 c=       9.653
                  alpha=  90.000 beta=  90.000 gamma=  90.000
                  omega=       586.0

      density cutoff= 10.000  fft= 16x 16x 16(      446 waves      112 per task)
      wavefnc cutoff= 10.000  fft= 16x 16x 16(      446 waves      112 per task)
      ewald summation: cut radius=    1.88  and  8
                        madelung= 1.58898112

 technical parameters:
      time step=      5.80     ficticious mass=  400000.0
      tolerance=.100E-06 (energy)   0.100E-06 (density)
      maximum iterations =    1000 (   10 inner  100 outer )





== Energy Calculation ==


          ============ Grassmann lmbfgs iteration ============
     >>>  ITERATION STARTED AT Fri Aug  6 14:00:18 2010  <<<
    iter.           Energy         DeltaE       DeltaRho 
    ------------------------------------------------------
     -  15 steepest descent iterations performed
      10   -0.4511269825E+02   -0.30112E+00    0.22417E+01
     -  10 steepest descent iterations performed
      20   -0.4648853474E+02   -0.66635E-01    0.83498E-01
     -  10 steepest descent iterations performed
      30   -0.4668325778E+02   -0.65612E-02    0.13946E-01
      40   -0.4670543632E+02   -0.51735E-03    0.35224E-02
      50   -0.4670721816E+02   -0.50781E-04    0.26063E-03
      60   -0.4670735701E+02   -0.15935E-05    0.22588E-04
      70   -0.4670736111E+02   -0.11414E-06    0.23507E-06
      80   -0.4670736121E+02   -0.92963E-07    0.23769E-08
  *** tolerance ok. iteration terminated
     >>>  ITERATION ENDED   AT Fri Aug  6 14:00:19 2010  <<<


==  Summary Of Results  ==

 number of electrons: spin up=   16.00000  down=   16.00000 (real space)

 total     energy    :  -0.4670736121E+02 (   -0.58384E+01/ion)
 total orbital energy:   0.2046631066E+01 (    0.12791E+00/electron)
 hartree   energy    :   0.9902996428E+01 (    0.61894E+00/electron)
 exc-corr  energy    :  -0.1329222277E+02 (   -0.83076E+00/electron)
 ion-ion   energy    :  -0.4294681362E+02 (   -0.53684E+01/ion)

 kinetic (planewave) :   0.2846763780E+02 (    0.17792E+01/electron)
 V_local (planewave) :  -0.2934398068E+02 (   -0.18340E+01/electron)
 V_nl    (planewave) :   0.5050216234E+00 (    0.31564E-01/electron)
 V_Coul  (planewave) :   0.1980599286E+02 (    0.12379E+01/electron)
 V_xc.   (planewave) :  -0.1738804054E+02 (   -0.10868E+01/electron)
 Virial Coefficient  :  -0.9281067477E+00

 orbital energies:
     0.2993373E+00 (   8.145eV)
     0.2990278E+00 (   8.137eV)
     0.2971352E+00 (   8.086eV)
     0.2627997E+00 (   7.151eV)
     0.2535420E+00 (   6.899eV)
     0.2527827E+00 (   6.879eV)
     0.1947522E+00 (   5.300eV)
     0.1809225E+00 (   4.923eV)
     0.1079714E+00 (   2.938eV)
     0.6383514E-01 (   1.737eV)
     0.1282419E-01 (   0.349eV)
    -0.8698547E-02 (  -0.237eV)
    -0.2553932E+00 (  -6.950eV)
    -0.2824950E+00 (  -7.687eV)
    -0.2865662E+00 (  -7.798eV)
    -0.3684617E+00 ( -10.026eV)

 Total PSPW energy   :  -0.4670736121E+02


=== Spin Contamination ===

 <Sexact^2> =    0.00000000000000     
 <S^2>      =    0.00000000000000     



== Center of Charge ==

spin up     (    0.0000,   -0.3785,    0.6527 )
spin down   (    0.0000,   -0.3785,    0.6527 )
     total  (    0.0000,   -0.3785,    0.6527 )
ionic       (    1.4800,    0.8546,    1.6712 )
crystal     (    0.0000,    0.0000,    0.1008 )


== Crystal Dipole ==

mu   =  (   -0.0011,   12.1120,  -17.6598 ) au
|mu| =    21.4142 au,      54.4264 Debye


== Molecular Dipole wrt Center of Mass ==

mu   =  (   47.3589,   39.4586,   32.5917 ) au
|mu| =    69.7286 au,     177.2221 Debye

 output psi filename:./band.movecs


== Timing ==

cputime in seconds
  prologue    :   0.117057E+01
  main loop   :   0.873615E+00
  epilogue    :   0.343513E-02
  total       :   0.204762E+01
  cputime/step:   0.450317E-02       (     194 evalulations,      71 linesearches)


Time spent doing                        total          step
  FFTs                       :   0.271419E-01  0.139907E-03
  dot products               :   0.994427E-01  0.512591E-03
  geodesic                   :   0.183187E+00  0.944265E-03
  ffm_dgemm                  :   0.265541E-01  0.136877E-03
  fmf_dgemm                  :   0.104092E+00  0.536556E-03
  m_diagonalize              :   0.570911E-02  0.294284E-04
    - m_tredq                :   0.000000E+00  0.000000E+00
    - m_getdiags             :   0.000000E+00  0.000000E+00
    - m_tqliq                :   0.000000E+00  0.000000E+00
    - m_eigsrt               :   0.000000E+00  0.000000E+00
  exchange correlation       :   0.737753E-01  0.380285E-03
  local pseudopotentials     :   0.450611E-04  0.232274E-06
  non-local pseudopotentials :   0.139608E+00  0.719631E-03
  hartree potentials         :   0.389061E-02  0.200547E-04
  ion-ion interaction        :   0.907390E-01  0.467727E-03
  structure factors          :   0.280782E-02  0.144733E-04
  phase factors              :   0.286102E-04  0.147475E-06
  masking and packing        :   0.358375E-01  0.184729E-03
  queue fft                  :   0.223047E+00  0.114973E-02
  queue fft (serial)         :   0.139748E+00  0.720350E-03
  queue fft (message passing):   0.695592E-01  0.358553E-03
  HFX potential              :   0.000000E+00  0.000000E+00
  qmmm LJ                    :   0.000000E+00  0.000000E+00
  qmmm residual Q            :   0.000000E+00  0.000000E+00

     >>>  JOB COMPLETED     AT Fri Aug  6 14:00:19 2010  <<<

 Task  times  cpu:        2.0s     wall:        2.0s


                                NWChem Input Module
                                -------------------


          **********************************************************
          *                                                        *
          *                   NWPW BAND Calculation                *
          *                                                        *
          *  [(bundled Grassman/Stiefel manifold implementation)]  *
          *                                                        *
          *         [ NorthWest Chemistry implementation ]         *
          *                                                        *
          *                version #1.10   01/31/03                *
          *                                                        *
          *  A pseudopotential plane-wave band structure program   *
          *  with Brillouin zone sampling for optimizing crystals, *
          *  slabs, and polymers.  Developed by Eric J. Bylaska    *
          *  , Edoardo Apra, and Patrick Nichols.                  *
          *                                                        *
          **********************************************************
     >>>  JOB STARTED       AT Fri Aug  6 14:00:19 2010  <<<
          ================ input data ========================

 Generated formatted_filename: ./Ga.cpp

 Generated formatted_filename: ./N.cpp

 + converting wavefunctions from pspw format to band format
 filename converted    : band.movecs                   
 pspw filename moved to: band.movecs.pspw              

 input psi filename:./band.movecs

 number of processors used:               4
 processor grid           :   4 x   1 x   1
 parallel mapping         :            slab

 options:
      boundary conditions  = periodic    (version3)
      electron spin        = restricted
      exchange-correlation = Vosko et al parameterization

 elements involved in the cluster:
      1: Ga    core charge: 3.0  lmax=2
             comment    : Hamann pseudopotential
             pseudpotential type            :   0
             highest angular component      :   2
             local potential used           :   2
             number of non-local projections:   4
             cutoff =   1.128   1.506   2.118
      2: N     core charge: 5.0  lmax=2
             comment    : Hamann pseudopotential
             pseudpotential type            :   0
             highest angular component      :   2
             local potential used           :   2
             number of non-local projections:   4
             cutoff =   0.700   0.700   0.700

 total charge:   0.000

 atomic composition:
     Ga  :  4     N   :  4

 number of electrons: spin up=   16.00  spin down=   16.00 (fourier space)
 number of orbitals:  spin up=      16  spin down=      16 (fourier space)

 supercell:
      lattice:    a1=<   5.920   0.000   0.000 >
                  a2=<   0.000  10.255   0.000 >
                  a3=<   0.000   0.000   9.653 >
      reciprocal: b1=<   1.061   0.000   0.000 >
                  b2=<   0.000   0.613   0.000 >
                  b3=<   0.000   0.000   0.651 >

      lattice:    a=   5.920    b=  10.255     c=   9.653
              alpha=  90.000 beta=  90.000 gamma=  90.000
      volume :      586.0
      ewald summation: cut radius=    1.88  and  8
                        madelung= 1.58898112

 brillouin zone:
      number of zone points:     1
      weight=   1.000  ks=<   0.000   0.000   0.000 >, k=<   0.000   0.000   0.000>

 computational grids:
      density     cutoff= 10.000  fft=  16x  16x  16(      891 waves      222 per task)
      wavefnc   1 cutoff= 10.000  fft=  16x  16x  16(      891 waves      222 per task)

 technical parameters:
      time step=      5.80     ficticious mass=  400000.0
      tolerance=.100E-06 (energy)   0.100E-06 (density)
      maximum iterations =    1000 (   10 inner  100 outer )



= energy calculation =


          ======== bundled Grassmann lmbfgs iteration ========
     >>>  ITERATION STARTED AT Fri Aug  6 14:00:19 2010  <<<
    iter.           Energy         DeltaE       DeltaRho 
    ------------------------------------------------------
     -  10 steepest descent iterations performed
      10   -0.4670736126E+02   -0.32554E-07    0.18769E-09
  *** tolerance ok.    iteration terminated.
     >>>  ITERATION ENDED   AT Fri Aug  6 14:00:19 2010  <<<


          =============  summary of results  =================

 number of electrons: spin up=   16.00000  down=   16.00000 (real space)

 total     energy    :  -0.4670736126E+02 (   -0.58384E+01/ion)
 total orbital energy:   0.2046628579E+01 (    0.12791E+00/electron)
 hartree   energy    :   0.9902993817E+01 (    0.61894E+00/electron)
 exc-corr  energy    :  -0.1329222221E+02 (   -0.83076E+00/electron)
 ion-ion   energy    :  -0.4294681362E+02 (   -0.53684E+01/ion)

 K.S. kinetic energy :   0.2846763128E+02 (    0.17792E+01/electron)
 K.S. V_l  energy    :  -0.2934397297E+02 (   -0.18340E+01/electron)
 K.S. V_nl energy    :   0.5050224332E+00 (    0.31564E-01/electron)
 K.S. V_Hart energy  :   0.1980598763E+02 (    0.12379E+01/electron)
 K.S. V_xc energy    :  -0.1738803980E+02 (   -0.10868E+01/electron)
 K.S. V_so energy    :   0.0000000000E+00 (    0.00000E+00/electron)
 Virial Coefficient  :  -0.9281068186E+00

 Brillouin zone point:      1
    weight=  1.000000
    k     =<   0.000   0.000   0.000> . <b1,b2,b3> 
          =<   0.000   0.000   0.000>

 orbital energies:
     0.2993371E+00 (   8.145eV) occ=1.000
     0.2990276E+00 (   8.137eV) occ=1.000
     0.2971355E+00 (   8.086eV) occ=1.000
     0.2627996E+00 (   7.151eV) occ=1.000
     0.2535420E+00 (   6.899eV) occ=1.000
     0.2527823E+00 (   6.879eV) occ=1.000
     0.1947522E+00 (   5.300eV) occ=1.000
     0.1809225E+00 (   4.923eV) occ=1.000
     0.1079713E+00 (   2.938eV) occ=1.000
     0.6383554E-01 (   1.737eV) occ=1.000
     0.1282393E-01 (   0.349eV) occ=1.000
    -0.8698660E-02 (  -0.237eV) occ=1.000
    -0.2553933E+00 (  -6.950eV) occ=1.000
    -0.2824952E+00 (  -7.687eV) occ=1.000
    -0.2865663E+00 (  -7.798eV) occ=1.000
    -0.3684618E+00 ( -10.026eV) occ=1.000

 Total BAND energy   :  -0.4670736126E+02


=== Spin Contamination ===

 <Sexact^2> =    0.00000000000000     
 <S^2>      =    0.00000000000000     


 output psi filename:./band.movecs


== Timing ==

cputime in seconds
  prologue    :   0.700637E+00
  main loop   :   0.709391E-01
  epilogue    :   0.404596E-02
  total       :   0.775622E+00
  cputime/step:   0.506708E-02       (      14 evalulations,       1 linesearches)


Time spent doing                        total          step
  FFTs                       :   0.220870E-02  0.157764E-03
  dot products               :   0.173096E-01  0.123640E-02
  geodesic                   :   0.308776E-02  0.220554E-03
  ffm_dgemm                  :   0.000000E+00  0.000000E+00
  fmf_dgemm                  :   0.000000E+00  0.000000E+00
  m_diagonalize              :   0.000000E+00  0.000000E+00
    - m_tredq                :   0.000000E+00  0.000000E+00
    - m_getdiags             :   0.000000E+00  0.000000E+00
    - m_tqliq                :   0.000000E+00  0.000000E+00
    - m_eigsrt               :   0.000000E+00  0.000000E+00
  exchange correlation       :   0.477076E-02  0.340768E-03
  local pseudopotentials     :   0.650883E-04  0.464916E-05
  non-local pseudopotentials :   0.131516E-01  0.939403E-03
  hartree potentials         :   0.128511E-03  0.917933E-05
  ion-ion interaction        :   0.113330E-01  0.809499E-03
  structure factors          :   0.330921E-03  0.236372E-04
  phase factors              :   0.000000E+00  0.000000E+00
  masking and packing        :   0.382081E-02  0.272915E-03
  queue fft                  :   0.217137E-01  0.155098E-02
  queue fft (serial)         :   0.134014E-01  0.957240E-03
  queue fft (message passing):   0.705953E-02  0.504252E-03
  HFX potential              :   0.000000E+00  0.000000E+00
  qmmm LJ                    :   0.000000E+00  0.000000E+00
  qmmm residual Q            :   0.000000E+00  0.000000E+00

     >>>  JOB COMPLETED     AT Fri Aug  6 14:00:19 2010  <<<

 Task  times  cpu:        0.8s     wall:        0.8s


                                NWChem Input Module
                                -------------------


          **********************************************************
          *                                                        *
          *                   NWPW BAND Calculation                *
          *                                                        *
          *  [(bundled Grassman/Stiefel manifold implementation)]  *
          *                                                        *
          *         [ NorthWest Chemistry implementation ]         *
          *                                                        *
          *                version #1.10   01/31/03                *
          *                                                        *
          *  A pseudopotential plane-wave band structure program   *
          *  with Brillouin zone sampling for optimizing crystals, *
          *  slabs, and polymers.  Developed by Eric J. Bylaska    *
          *  , Edoardo Apra, and Patrick Nichols.                  *
          *                                                        *
          **********************************************************
     >>>  JOB STARTED       AT Fri Aug  6 14:00:19 2010  <<<
          ================ input data ========================
 Brillioun Zone Points do not match!
 NB =                     1  not equal                     3

 pseudopotential is not correctly formatted---bad brillioun zone:Ga.cpp              

 Generated formatted_filename: ./Ga.cpp
 Brillioun Zone Points do not match!
 NB =                     1  not equal                     3

 pseudopotential is not correctly formatted---bad brillioun zone:N.cpp               

 Generated formatted_filename: ./N.cpp

 input psi filename:./band.movecs
Warning - Orthogonalization performed, spin,zone: 1   1
        - error(before)=  0.728559E-02 (  0.159927E+02)
        - error(after)=   0.355271E-14 (  0.160000E+02)
Warning - Orthogonalization performed, spin,zone: 1   2
        - error(before)=  0.124401E-01 (  0.159876E+02)
        - error(after)=   0.000000E+00 (  0.160000E+02)
Warning - Orthogonalization performed, spin,zone: 1   3
        - error(before)=  0.157657E-01 (  0.159842E+02)
        - error(after)=   0.000000E+00 (  0.160000E+02)

 number of processors used:               4
 processor grid           :   4 x   1 x   1
 parallel mapping         :            slab

 options:
      boundary conditions  = periodic    (version3)
      electron spin        = restricted
      exchange-correlation = Vosko et al parameterization

 elements involved in the cluster:
      1: Ga    core charge: 3.0  lmax=2
             comment    : Hamann pseudopotential
             pseudpotential type            :   0
             highest angular component      :   2
             local potential used           :   2
             number of non-local projections:   4
             cutoff =   1.128   1.506   2.118
      2: N     core charge: 5.0  lmax=2
             comment    : Hamann pseudopotential
             pseudpotential type            :   0
             highest angular component      :   2
             local potential used           :   2
             number of non-local projections:   4
             cutoff =   0.700   0.700   0.700

 total charge:   0.000

 atomic composition:
     Ga  :  4     N   :  4

 number of electrons: spin up=   16.00  spin down=   16.00 (fourier space)
 number of orbitals:  spin up=      16  spin down=      16 (fourier space)

 supercell:
      lattice:    a1=<   5.920   0.000   0.000 >
                  a2=<   0.000  10.255   0.000 >
                  a3=<   0.000   0.000   9.653 >
      reciprocal: b1=<   1.061   0.000   0.000 >
                  b2=<   0.000   0.613   0.000 >
                  b3=<   0.000   0.000   0.651 >

      lattice:    a=   5.920    b=  10.255     c=   9.653
              alpha=  90.000 beta=  90.000 gamma=  90.000
      volume :      586.0
      ewald summation: cut radius=    1.88  and  8
                        madelung= 1.58898112

 brillouin zone:
      number of zone points:     3
      weight=   0.333  ks=<   0.222   0.000   0.250 >, k=<   0.236   0.000   0.163>
      weight=   0.333  ks=<   0.444   0.000   0.250 >, k=<   0.472   0.000   0.163>
      weight=   0.333  ks=<   0.556   0.333   0.250 >, k=<   0.590   0.204   0.163>

 computational grids:
      density     cutoff= 10.000  fft=  16x  16x  16(      891 waves      222 per task)
      wavefnc   1 cutoff= 10.000  fft=  16x  16x  16(      888 waves      222 per task)
      wavefnc   2 cutoff= 10.000  fft=  16x  16x  16(      883 waves      221 per task)
      wavefnc   3 cutoff= 10.000  fft=  16x  16x  16(      890 waves      222 per task)

 technical parameters:
      time step=      5.80     ficticious mass=  400000.0
      tolerance=.100E-06 (energy)   0.100E-06 (density)
      maximum iterations =    1000 (   10 inner  100 outer )



= energy calculation =


          ======== bundled Grassmann lmbfgs iteration ========
     >>>  ITERATION STARTED AT Fri Aug  6 14:00:21 2010  <<<
    iter.           Energy         DeltaE       DeltaRho 
    ------------------------------------------------------
      10   -0.4751287724E+02   -0.98242E-02    0.60427E-01
     -  10 steepest descent iterations performed
      20   -0.4752521950E+02   -0.30025E-04    0.11986E-03
      30   -0.4752527344E+02   -0.18680E-06    0.31185E-06
      40   -0.4752527351E+02   -0.73766E-07    0.10392E-09
  *** tolerance ok.    iteration terminated.
     >>>  ITERATION ENDED   AT Fri Aug  6 14:00:22 2010  <<<


          =============  summary of results  =================

 number of electrons: spin up=   16.00000  down=   16.00000 (real space)

 total     energy    :  -0.4752527351E+02 (   -0.59407E+01/ion)
 total orbital energy:   0.3222226463E+00 (    0.20139E-01/electron)
 hartree   energy    :   0.8910396016E+01 (    0.55690E+00/electron)
 exc-corr  energy    :  -0.1302181319E+02 (   -0.81386E+00/electron)
 ion-ion   energy    :  -0.4294681362E+02 (   -0.53684E+01/ion)

 K.S. kinetic energy :   0.2620928078E+02 (    0.16381E+01/electron)
 K.S. V_l  energy    :  -0.2787376451E+02 (   -0.17421E+01/electron)
 K.S. V_nl energy    :   0.1197441014E+01 (    0.74840E-01/electron)
 K.S. V_Hart energy  :   0.1782079203E+02 (    0.11138E+01/electron)
 K.S. V_xc energy    :  -0.1703152667E+02 (   -0.10645E+01/electron)
 K.S. V_so energy    :   0.0000000000E+00 (    0.00000E+00/electron)
 Virial Coefficient  :  -0.9877057807E+00

 Brillouin zone point:      1
    weight=  0.333333
    k     =<   0.222   0.000   0.250> . <b1,b2,b3> 
          =<   0.236   0.000   0.163>

 orbital energies:
     0.2386202E+00 (   6.493eV) occ=1.000
     0.2359344E+00 (   6.420eV) occ=1.000
     0.1985560E+00 (   5.403eV) occ=1.000
     0.1883712E+00 (   5.126eV) occ=1.000
     0.1543047E+00 (   4.199eV) occ=1.000
     0.1479483E+00 (   4.026eV) occ=1.000
     0.1425457E+00 (   3.879eV) occ=1.000
     0.1320900E+00 (   3.594eV) occ=1.000
     0.7970966E-01 (   2.169eV) occ=1.000
     0.2877725E-01 (   0.783eV) occ=1.000
     0.2335951E-01 (   0.636eV) occ=1.000
     0.9027493E-02 (   0.246eV) occ=1.000
    -0.2983556E+00 (  -8.119eV) occ=1.000
    -0.3096058E+00 (  -8.425eV) occ=1.000
    -0.3236061E+00 (  -8.806eV) occ=1.000
    -0.3723691E+00 ( -10.133eV) occ=1.000

 Brillouin zone point:      2
    weight=  0.333333
    k     =<   0.444   0.000   0.250> . <b1,b2,b3> 
          =<   0.472   0.000   0.163>

 orbital energies:
     0.2160183E+00 (   5.878eV) occ=1.000
     0.1964945E+00 (   5.347eV) occ=1.000
     0.1733821E+00 (   4.718eV) occ=1.000
     0.1500417E+00 (   4.083eV) occ=1.000
     0.1386718E+00 (   3.773eV) occ=1.000
     0.1242906E+00 (   3.382eV) occ=1.000
     0.1223923E+00 (   3.330eV) occ=1.000
     0.8035734E-01 (   2.187eV) occ=1.000
     0.4493183E-01 (   1.223eV) occ=1.000
     0.2676480E-01 (   0.728eV) occ=1.000
     0.2024353E-01 (   0.551eV) occ=1.000
     0.1859342E-01 (   0.506eV) occ=1.000
    -0.2972945E+00 (  -8.090eV) occ=1.000
    -0.3008529E+00 (  -8.187eV) occ=1.000
    -0.3129175E+00 (  -8.515eV) occ=1.000
    -0.3317785E+00 (  -9.028eV) occ=1.000

 Brillouin zone point:      3
    weight=  0.333333
    k     =<   0.556   0.333   0.250> . <b1,b2,b3> 
          =<   0.590   0.204   0.163>

 orbital energies:
     0.2103503E+00 (   5.724eV) occ=1.000
     0.2003383E+00 (   5.452eV) occ=1.000
     0.1974940E+00 (   5.374eV) occ=1.000
     0.1840667E+00 (   5.009eV) occ=1.000
     0.1600432E+00 (   4.355eV) occ=1.000
     0.1526268E+00 (   4.153eV) occ=1.000
     0.1169439E+00 (   3.182eV) occ=1.000
     0.1168500E+00 (   3.180eV) occ=1.000
     0.2996245E-01 (   0.815eV) occ=1.000
     0.2243811E-01 (   0.611eV) occ=1.000
    -0.2980364E-02 (  -0.081eV) occ=1.000
    -0.7210052E-02 (  -0.196eV) occ=1.000
    -0.2989195E+00 (  -8.134eV) occ=1.000
    -0.3005917E+00 (  -8.180eV) occ=1.000
    -0.3162642E+00 (  -8.606eV) occ=1.000
    -0.3264608E+00 (  -8.884eV) occ=1.000

 Total BAND energy   :  -0.4752527351E+02


=== Spin Contamination ===

 <Sexact^2> =    0.00000000000000     
 <S^2>      =    0.00000000000000     


 output psi filename:./band.movecs


== Timing ==

cputime in seconds
  prologue    :   0.122747E+01
  main loop   :   0.114397E+01
  epilogue    :   0.862598E-02
  total       :   0.238007E+01
  cputime/step:   0.142996E-01       (      80 evalulations,      31 linesearches)


Time spent doing                        total          step
  FFTs                       :   0.126223E-01  0.157779E-03
  dot products               :   0.447399E+00  0.559248E-02
  geodesic                   :   0.332623E+00  0.415779E-02
  ffm_dgemm                  :   0.000000E+00  0.000000E+00
  fmf_dgemm                  :   0.000000E+00  0.000000E+00
  m_diagonalize              :   0.000000E+00  0.000000E+00
    - m_tredq                :   0.000000E+00  0.000000E+00
    - m_getdiags             :   0.000000E+00  0.000000E+00
    - m_tqliq                :   0.000000E+00  0.000000E+00
    - m_eigsrt               :   0.000000E+00  0.000000E+00
  exchange correlation       :   0.288374E-01  0.360468E-03
  local pseudopotentials     :   0.631809E-04  0.789762E-06
  non-local pseudopotentials :   0.205197E+00  0.256496E-02
  hartree potentials         :   0.213862E-02  0.267327E-04
  ion-ion interaction        :   0.454412E-01  0.568014E-03
  structure factors          :   0.473712E-02  0.592140E-04
  phase factors              :   0.000000E+00  0.000000E+00
  masking and packing        :   0.451616E-01  0.564520E-03
  queue fft                  :   0.370398E+00  0.462998E-02
  queue fft (serial)         :   0.223395E+00  0.279244E-02
  queue fft (message passing):   0.117651E+00  0.147064E-02
  HFX potential              :   0.000000E+00  0.000000E+00
  qmmm LJ                    :   0.000000E+00  0.000000E+00
  qmmm residual Q            :   0.000000E+00  0.000000E+00

     >>>  JOB COMPLETED     AT Fri Aug  6 14:00:22 2010  <<<

 Task  times  cpu:        2.4s     wall:        2.4s


                                NWChem Input Module
                                -------------------


          **********************************************************
          *                                                        *
          *                   NWPW BAND Calculation                *
          *                                                        *
          *  [(bundled Grassman/Stiefel manifold implementation)]  *
          *                                                        *
          *         [ NorthWest Chemistry implementation ]         *
          *                                                        *
          *                version #1.10   01/31/03                *
          *                                                        *
          *  A pseudopotential plane-wave band structure program   *
          *  with Brillouin zone sampling for optimizing crystals, *
          *  slabs, and polymers.  Developed by Eric J. Bylaska    *
          *  , Edoardo Apra, and Patrick Nichols.                  *
          *                                                        *
          **********************************************************
     >>>  JOB STARTED       AT Fri Aug  6 14:00:22 2010  <<<
          ================ input data ========================
 Brillioun Zone Points do not match!
 NB =                     3  not equal                     1

 pseudopotential is not correctly formatted---bad brillioun zone:Ga.cpp              

 Generated formatted_filename: ./Ga.cpp
 Brillioun Zone Points do not match!
 NB =                     3  not equal                     1

 pseudopotential is not correctly formatted---bad brillioun zone:N.cpp               

 Generated formatted_filename: ./N.cpp

 input psi filename:./band.movecs
Warning - Orthogonalization performed, spin,zone: 1   1
        - error(before)=  0.812913E-02 (  0.159919E+02)
        - error(after)=   0.177636E-14 (  0.160000E+02)

 number of processors used:               4
 processor grid           :   4 x   1 x   1
 parallel mapping         :            slab

 options:
      boundary conditions  = periodic    (version3)
      electron spin        = restricted
      exchange-correlation = Vosko et al parameterization

 elements involved in the cluster:
      1: Ga    core charge: 3.0  lmax=2
             comment    : Hamann pseudopotential
             pseudpotential type            :   0
             highest angular component      :   2
             local potential used           :   2
             number of non-local projections:   4
             cutoff =   1.128   1.506   2.118
      2: N     core charge: 5.0  lmax=2
             comment    : Hamann pseudopotential
             pseudpotential type            :   0
             highest angular component      :   2
             local potential used           :   2
             number of non-local projections:   4
             cutoff =   0.700   0.700   0.700

 total charge:   0.000

 atomic composition:
     Ga  :  4     N   :  4

 number of electrons: spin up=   16.00  spin down=   16.00 (fourier space)
 number of orbitals:  spin up=      16  spin down=      16 (fourier space)

 supercell:
      lattice:    a1=<   5.920   0.000   0.000 >
                  a2=<   0.000  10.255   0.000 >
                  a3=<   0.000   0.000   9.653 >
      reciprocal: b1=<   1.061   0.000   0.000 >
                  b2=<   0.000   0.613   0.000 >
                  b3=<   0.000   0.000   0.651 >

      lattice:    a=   5.920    b=  10.255     c=   9.653
              alpha=  90.000 beta=  90.000 gamma=  90.000
      volume :      586.0
      ewald summation: cut radius=    1.88  and  8
                        madelung= 1.58898112

 brillouin zone:
      number of zone points:     1
      weight=   1.000  ks=<   0.500   0.500   0.500 >, k=<   0.531   0.306   0.325>

 computational grids:
      density     cutoff= 10.000  fft=  16x  16x  16(      891 waves      222 per task)
      wavefnc   1 cutoff= 10.000  fft=  16x  16x  16(      896 waves      224 per task)

 technical parameters:
      time step=      5.80     ficticious mass=  400000.0
      tolerance=.100E-06 (energy)   0.100E-06 (density)
      maximum iterations =    1000 (   10 inner  100 outer )



= energy calculation =


          ======== bundled Grassmann lmbfgs iteration ========
     >>>  ITERATION STARTED AT Fri Aug  6 14:00:23 2010  <<<
    iter.           Energy         DeltaE       DeltaRho 
    ------------------------------------------------------
      10   -0.4740236636E+02   -0.13672E-01    0.74217E-02
     -  10 steepest descent iterations performed
      20   -0.4742718688E+02   -0.10418E-03    0.13498E-03
      30   -0.4742731913E+02   -0.10938E-06    0.68949E-06
      40   -0.4742731917E+02   -0.40881E-07    0.51209E-10
  *** tolerance ok.    iteration terminated.
     >>>  ITERATION ENDED   AT Fri Aug  6 14:00:23 2010  <<<


          =============  summary of results  =================

 number of electrons: spin up=   16.00000  down=   16.00000 (real space)

 total     energy    :  -0.4742731917E+02 (   -0.59284E+01/ion)
 total orbital energy:   0.7586445961E+00 (    0.47415E-01/electron)
 hartree   energy    :   0.9281870269E+01 (    0.58012E+00/electron)
 exc-corr  energy    :  -0.1312573059E+02 (   -0.82036E+00/electron)
 ion-ion   energy    :  -0.4294681362E+02 (   -0.53684E+01/ion)

 K.S. kinetic energy :   0.2676818466E+02 (    0.16730E+01/electron)
 K.S. V_l  energy    :  -0.2841542073E+02 (   -0.17760E+01/electron)
 K.S. V_nl energy    :   0.1010590852E+01 (    0.63162E-01/electron)
 K.S. V_Hart energy  :   0.1856374054E+02 (    0.11602E+01/electron)
 K.S. V_xc energy    :  -0.1716845072E+02 (   -0.10730E+01/electron)
 K.S. V_so energy    :   0.0000000000E+00 (    0.00000E+00/electron)
 Virial Coefficient  :  -0.9716587208E+00

 Brillouin zone point:      1
    weight=  1.000000
    k     =<   0.500   0.500   0.500> . <b1,b2,b3> 
          =<   0.531   0.306   0.325>

 orbital energies:
     0.1997718E+00 (   5.436eV) occ=1.000
     0.1997715E+00 (   5.436eV) occ=1.000
     0.1965675E+00 (   5.349eV) occ=1.000
     0.1965670E+00 (   5.349eV) occ=1.000
     0.1962106E+00 (   5.339eV) occ=1.000
     0.1962102E+00 (   5.339eV) occ=1.000
     0.1943240E+00 (   5.288eV) occ=1.000
     0.1943238E+00 (   5.288eV) occ=1.000
    -0.3456436E-02 (  -0.094eV) occ=1.000
    -0.3456933E-02 (  -0.094eV) occ=1.000
    -0.3851197E-02 (  -0.105eV) occ=1.000
    -0.3851958E-02 (  -0.105eV) occ=1.000
    -0.2942165E+00 (  -8.006eV) occ=1.000
    -0.2942166E+00 (  -8.006eV) occ=1.000
    -0.2956871E+00 (  -8.046eV) occ=1.000
    -0.2956872E+00 (  -8.046eV) occ=1.000

 Total BAND energy   :  -0.4742731917E+02


=== Spin Contamination ===

 <Sexact^2> =    0.00000000000000     
 <S^2>      =    0.00000000000000     


 output psi filename:./band.movecs


== Timing ==

cputime in seconds
  prologue    :   0.698499E+00
  main loop   :   0.457553E+00
  epilogue    :   0.435114E-02
  total       :   0.116040E+01
  cputime/step:   0.571941E-02       (      80 evalulations,      31 linesearches)


Time spent doing                        total          step
  FFTs                       :   0.116283E-01  0.145354E-03
  dot products               :   0.153800E+00  0.192250E-02
  geodesic                   :   0.124058E+00  0.155072E-02
  ffm_dgemm                  :   0.000000E+00  0.000000E+00
  fmf_dgemm                  :   0.000000E+00  0.000000E+00
  m_diagonalize              :   0.000000E+00  0.000000E+00
    - m_tredq                :   0.000000E+00  0.000000E+00
    - m_getdiags             :   0.000000E+00  0.000000E+00
    - m_tqliq                :   0.000000E+00  0.000000E+00
    - m_eigsrt               :   0.000000E+00  0.000000E+00
  exchange correlation       :   0.274692E-01  0.343364E-03
  local pseudopotentials     :   0.588894E-04  0.736117E-06
  non-local pseudopotentials :   0.723090E-01  0.903863E-03
  hartree potentials         :   0.187303E-02  0.234129E-04
  ion-ion interaction        :   0.454919E-01  0.568649E-03
  structure factors          :   0.162075E-02  0.202594E-04
  phase factors              :   0.000000E+00  0.000000E+00
  masking and packing        :   0.162939E-01  0.203674E-03
  queue fft                  :   0.118201E+00  0.147752E-02
  queue fft (serial)         :   0.741183E-01  0.926478E-03
  queue fft (message passing):   0.371280E-01  0.464100E-03
  HFX potential              :   0.000000E+00  0.000000E+00
  qmmm LJ                    :   0.000000E+00  0.000000E+00
  qmmm residual Q            :   0.000000E+00  0.000000E+00

     >>>  JOB COMPLETED     AT Fri Aug  6 14:00:23 2010  <<<

 Task  times  cpu:        1.2s     wall:        1.2s


                                NWChem Input Module
                                -------------------


          **********************************************************
          *                                                        *
          *                   NWPW BAND Calculation                *
          *                                                        *
          *  [(bundled Grassman/Stiefel manifold implementation)]  *
          *                                                        *
          *         [ NorthWest Chemistry implementation ]         *
          *                                                        *
          *                version #1.10   01/31/03                *
          *                                                        *
          *  A pseudopotential plane-wave band structure program   *
          *  with Brillouin zone sampling for optimizing crystals, *
          *  slabs, and polymers.  Developed by Eric J. Bylaska    *
          *  , Edoardo Apra, and Patrick Nichols.                  *
          *                                                        *
          **********************************************************
     >>>  JOB STARTED       AT Fri Aug  6 14:00:23 2010  <<<
          ================ input data ========================
 Brillioun Zone Vectors do not match!

 pseudopotential is not correctly formatted---bad brillioun zone:Ga.cpp              

 Generated formatted_filename: ./Ga.cpp
 Brillioun Zone Vectors do not match!

 pseudopotential is not correctly formatted---bad brillioun zone:N.cpp               

 Generated formatted_filename: ./N.cpp

 input psi filename:./band.movecs
Warning - Orthogonalization performed, spin,zone: 1   1
        - error(before)=  0.161135E-01 (  0.159839E+02)
        - error(after)=   0.000000E+00 (  0.160000E+02)

 number of processors used:               4
 processor grid           :   4 x   1 x   1
 parallel mapping         :            slab

 options:
      boundary conditions  = periodic    (version3)
      electron spin        = restricted
      exchange-correlation = Vosko et al parameterization

 elements involved in the cluster:
      1: Ga    core charge: 3.0  lmax=2
             comment    : Hamann pseudopotential
             pseudpotential type            :   0
             highest angular component      :   2
             local potential used           :   2
             number of non-local projections:   4
             cutoff =   1.128   1.506   2.118
      2: N     core charge: 5.0  lmax=2
             comment    : Hamann pseudopotential
             pseudpotential type            :   0
             highest angular component      :   2
             local potential used           :   2
             number of non-local projections:   4
             cutoff =   0.700   0.700   0.700

 total charge:   0.000

 atomic composition:
     Ga  :  4     N   :  4

 number of electrons: spin up=   16.00  spin down=   16.00 (fourier space)
 number of orbitals:  spin up=      16  spin down=      16 (fourier space)

 supercell:
      lattice:    a1=<   5.920   0.000   0.000 >
                  a2=<   0.000  10.255   0.000 >
                  a3=<   0.000   0.000   9.653 >
      reciprocal: b1=<   1.061   0.000   0.000 >
                  b2=<   0.000   0.613   0.000 >
                  b3=<   0.000   0.000   0.651 >

      lattice:    a=   5.920    b=  10.255     c=   9.653
              alpha=  90.000 beta=  90.000 gamma=  90.000
      volume :      586.0
      ewald summation: cut radius=    1.88  and  8
                        madelung= 1.58898112

 brillouin zone:
      number of zone points:     1
      weight=   1.000  ks=<   0.000   0.000   0.000 >, k=<   0.000   0.000   0.000>

 computational grids:
      density     cutoff= 10.000  fft=  16x  16x  16(      891 waves      222 per task)
      wavefnc   1 cutoff= 10.000  fft=  16x  16x  16(      891 waves      222 per task)

 technical parameters:
      time step=      5.80     ficticious mass=  400000.0
      tolerance=.100E-08 (energy)   0.100E-08 (density)
      maximum iterations =    1000 (   10 inner  100 outer )



= energy calculation =


          ======== bundled Grassmann lmbfgs iteration ========
     >>>  ITERATION STARTED AT Fri Aug  6 14:00:24 2010  <<<
    iter.           Energy         DeltaE       DeltaRho 
    ------------------------------------------------------
      10   -0.4664391547E+02   -0.26439E-01    0.56455E-01
     -  10 steepest descent iterations performed
      20   -0.4669936782E+02   -0.77871E-03    0.61672E-03
      30   -0.4670665603E+02   -0.36684E-03    0.31210E-03
      40   -0.4670735088E+02   -0.47321E-05    0.33231E-05
      50   -0.4670736049E+02   -0.21981E-06    0.20666E-06
      60   -0.4670736135E+02   -0.30433E-07    0.20228E-07
      70   -0.4670736149E+02   -0.34863E-08    0.33111E-08
      80   -0.4670736150E+02   -0.90853E-09    0.39924E-10
  *** tolerance ok.    iteration terminated.
     >>>  ITERATION ENDED   AT Fri Aug  6 14:00:25 2010  <<<


          =============  summary of results  =================

 number of electrons: spin up=   16.00000  down=   16.00000 (real space)

 total     energy    :  -0.4670736150E+02 (   -0.58384E+01/ion)
 total orbital energy:   0.2046625854E+01 (    0.12791E+00/electron)
 hartree   energy    :   0.9902990493E+01 (    0.61894E+00/electron)
 exc-corr  energy    :  -0.1329221954E+02 (   -0.83076E+00/electron)
 ion-ion   energy    :  -0.4294681362E+02 (   -0.53684E+01/ion)

 K.S. kinetic energy :   0.2846762916E+02 (    0.17792E+01/electron)
 K.S. V_l  energy    :  -0.2934396851E+02 (   -0.18340E+01/electron)
 K.S. V_nl energy    :   0.5050205177E+00 (    0.31564E-01/electron)
 K.S. V_Hart energy  :   0.1980598099E+02 (    0.12379E+01/electron)
 K.S. V_xc energy    :  -0.1738803629E+02 (   -0.10868E+01/electron)
 K.S. V_so energy    :   0.0000000000E+00 (    0.00000E+00/electron)
 Virial Coefficient  :  -0.9281069090E+00

 Brillouin zone point:      1
    weight=  1.000000
    k     =<   0.000   0.000   0.000> . <b1,b2,b3> 
          =<   0.000   0.000   0.000>

 orbital energies:
     0.2993371E+00 (   8.145eV) occ=1.000
     0.2990274E+00 (   8.137eV) occ=1.000
     0.2971361E+00 (   8.086eV) occ=1.000
     0.2627993E+00 (   7.151eV) occ=1.000
     0.2535414E+00 (   6.899eV) occ=1.000
     0.2527818E+00 (   6.879eV) occ=1.000
     0.1947527E+00 (   5.300eV) occ=1.000
     0.1809222E+00 (   4.923eV) occ=1.000
     0.1079712E+00 (   2.938eV) occ=1.000
     0.6383896E-01 (   1.737eV) occ=1.000
     0.1282093E-01 (   0.349eV) occ=1.000
    -0.8698667E-02 (  -0.237eV) occ=1.000
    -0.2553925E+00 (  -6.950eV) occ=1.000
    -0.2824955E+00 (  -7.687eV) occ=1.000
    -0.2865675E+00 (  -7.798eV) occ=1.000
    -0.3684620E+00 ( -10.026eV) occ=1.000

 Total BAND energy   :  -0.4670736150E+02


=== Spin Contamination ===

 <Sexact^2> =    0.00000000000000     
 <S^2>      =    0.00000000000000     


 output psi filename:./band.movecs


== Timing ==

cputime in seconds
  prologue    :   0.696686E+00
  main loop   :   0.104632E+01
  epilogue    :   0.401878E-02
  total       :   0.174703E+01
  cputime/step:   0.608326E-02       (     172 evalulations,      73 linesearches)


Time spent doing                        total          step
  FFTs                       :   0.253168E-01  0.147191E-03
  dot products               :   0.367411E+00  0.213611E-02
  geodesic                   :   0.330479E+00  0.192139E-02
  ffm_dgemm                  :   0.000000E+00  0.000000E+00
  fmf_dgemm                  :   0.000000E+00  0.000000E+00
  m_diagonalize              :   0.000000E+00  0.000000E+00
    - m_tredq                :   0.000000E+00  0.000000E+00
    - m_getdiags             :   0.000000E+00  0.000000E+00
    - m_tqliq                :   0.000000E+00  0.000000E+00
    - m_eigsrt               :   0.000000E+00  0.000000E+00
  exchange correlation       :   0.594754E-01  0.345787E-03
  local pseudopotentials     :   0.600815E-04  0.349311E-06
  non-local pseudopotentials :   0.154132E+00  0.896116E-03
  hartree potentials         :   0.437310E-02  0.254250E-04
  ion-ion interaction        :   0.913265E-01  0.530968E-03
  structure factors          :   0.342580E-02  0.199175E-04
  phase factors              :   0.000000E+00  0.000000E+00
  masking and packing        :   0.360959E-01  0.209860E-03
  queue fft                  :   0.265502E+00  0.154361E-02
  queue fft (serial)         :   0.163927E+00  0.953064E-03
  queue fft (message passing):   0.866902E-01  0.504013E-03
  HFX potential              :   0.000000E+00  0.000000E+00
  qmmm LJ                    :   0.000000E+00  0.000000E+00
  qmmm residual Q            :   0.000000E+00  0.000000E+00

     >>>  JOB COMPLETED     AT Fri Aug  6 14:00:25 2010  <<<

 Task  times  cpu:        1.7s     wall:        1.7s


                                NWChem Input Module
                                -------------------


          **********************************************************
          *                                                        *
          *                   NWPW BAND Calculation                *
          *                                                        *
          *  [(bundled Grassman/Stiefel manifold implementation)]  *
          *                                                        *
          *         [ NorthWest Chemistry implementation ]         *
          *                                                        *
          *                version #1.10   01/31/03                *
          *                                                        *
          *  A pseudopotential plane-wave band structure program   *
          *  with Brillouin zone sampling for optimizing crystals, *
          *  slabs, and polymers.  Developed by Eric J. Bylaska    *
          *  , Edoardo Apra, and Patrick Nichols.                  *
          *                                                        *
          **********************************************************
     >>>  JOB STARTED       AT Fri Aug  6 14:00:25 2010  <<<
          ================ input data ========================
 Brillioun Zone Vectors do not match!

 pseudopotential is not correctly formatted---bad brillioun zone:Ga.cpp              

 Generated formatted_filename: ./Ga.cpp
 Brillioun Zone Vectors do not match!

 pseudopotential is not correctly formatted---bad brillioun zone:N.cpp               

 Generated formatted_filename: ./N.cpp

 input psi filename:./band.movecs
Warning - Orthogonalization performed, spin,zone: 1   1
        - error(before)=  0.746075E-02 (  0.159925E+02)
        - error(after)=   0.000000E+00 (  0.160000E+02)

 number of processors used:               4
 processor grid           :   4 x   1 x   1
 parallel mapping         :            slab

 options:
      boundary conditions  = periodic    (version3)
      electron spin        = restricted
      exchange-correlation = Vosko et al parameterization

 elements involved in the cluster:
      1: Ga    core charge: 3.0  lmax=2
             comment    : Hamann pseudopotential
             pseudpotential type            :   0
             highest angular component      :   2
             local potential used           :   2
             number of non-local projections:   4
             cutoff =   1.128   1.506   2.118
      2: N     core charge: 5.0  lmax=2
             comment    : Hamann pseudopotential
             pseudpotential type            :   0
             highest angular component      :   2
             local potential used           :   2
             number of non-local projections:   4
             cutoff =   0.700   0.700   0.700

 total charge:   0.000

 atomic composition:
     Ga  :  4     N   :  4

 number of electrons: spin up=   16.00  spin down=   16.00 (fourier space)
 number of orbitals:  spin up=      16  spin down=      16 (fourier space)

 supercell:
      lattice:    a1=<   5.920   0.000   0.000 >
                  a2=<   0.000  10.255   0.000 >
                  a3=<   0.000   0.000   9.653 >
      reciprocal: b1=<   1.061   0.000   0.000 >
                  b2=<   0.000   0.613   0.000 >
                  b3=<   0.000   0.000   0.651 >

      lattice:    a=   5.920    b=  10.255     c=   9.653
              alpha=  90.000 beta=  90.000 gamma=  90.000
      volume :      586.0
      ewald summation: cut radius=    1.88  and  8
                        madelung= 1.58898112

 brillouin zone:
      number of zone points:     1
      weight=   1.000  ks=<   0.250   0.000   0.000 >, k=<   0.265   0.000   0.000>

 computational grids:
      density     cutoff= 10.000  fft=  16x  16x  16(      891 waves      222 per task)
      wavefnc   1 cutoff= 10.000  fft=  16x  16x  16(      878 waves      220 per task)

 technical parameters:
      time step=      5.80     ficticious mass=  400000.0
      tolerance=.100E-08 (energy)   0.100E-08 (density)
      maximum iterations =    1000 (   10 inner  100 outer )



= energy calculation =


          ======== bundled Grassmann lmbfgs iteration ========
     >>>  ITERATION STARTED AT Fri Aug  6 14:00:25 2010  <<<
    iter.           Energy         DeltaE       DeltaRho 
    ------------------------------------------------------
      10   -0.4737384993E+02   -0.48773E-02    0.51020E-01
     -  10 steepest descent iterations performed
      20   -0.4737922836E+02   -0.98759E-05    0.43689E-04
      30   -0.4737924287E+02   -0.51489E-07    0.49137E-06
      40   -0.4737924291E+02   -0.63732E-09    0.53980E-09
  *** tolerance ok.    iteration terminated.
     >>>  ITERATION ENDED   AT Fri Aug  6 14:00:26 2010  <<<


          =============  summary of results  =================

 number of electrons: spin up=   16.00000  down=   16.00000 (real space)

 total     energy    :  -0.4737924291E+02 (   -0.59224E+01/ion)
 total orbital energy:   0.5288923650E+00 (    0.33056E-01/electron)
 hartree   energy    :   0.8975570048E+01 (    0.56097E+00/electron)
 exc-corr  energy    :  -0.1303597405E+02 (   -0.81475E+00/electron)
 ion-ion   energy    :  -0.4294681362E+02 (   -0.53684E+01/ion)

 K.S. kinetic energy :   0.2638701916E+02 (    0.16492E+01/electron)
 K.S. V_l  energy    :  -0.2800395284E+02 (   -0.17502E+01/electron)
 K.S. V_nl energy    :   0.1244908387E+01 (    0.77807E-01/electron)
 K.S. V_Hart energy  :   0.1795114010E+02 (    0.11219E+01/electron)
 K.S. V_xc energy    :  -0.1705022244E+02 (   -0.10656E+01/electron)
 K.S. V_so energy    :   0.0000000000E+00 (    0.00000E+00/electron)
 Virial Coefficient  :  -0.9799563429E+00

 Brillouin zone point:      1
    weight=  1.000000
    k     =<   0.250   0.000   0.000> . <b1,b2,b3> 
          =<   0.265   0.000   0.000>

 orbital energies:
     0.2500811E+00 (   6.805eV) occ=1.000
     0.2468942E+00 (   6.718eV) occ=1.000
     0.1955833E+00 (   5.322eV) occ=1.000
     0.1583612E+00 (   4.309eV) occ=1.000
     0.1537242E+00 (   4.183eV) occ=1.000
     0.1395031E+00 (   3.796eV) occ=1.000
     0.1239759E+00 (   3.374eV) occ=1.000
     0.1223710E+00 (   3.330eV) occ=1.000
     0.6848277E-01 (   1.864eV) occ=1.000
     0.5284451E-01 (   1.438eV) occ=1.000
     0.2723204E-01 (   0.741eV) occ=1.000
     0.4393279E-02 (   0.120eV) occ=1.000
    -0.2937387E+00 (  -7.993eV) occ=1.000
    -0.3045660E+00 (  -8.288eV) occ=1.000
    -0.3072704E+00 (  -8.361eV) occ=1.000
    -0.3734252E+00 ( -10.161eV) occ=1.000

 Total BAND energy   :  -0.4737924291E+02


=== Spin Contamination ===

 <Sexact^2> =    0.00000000000000     
 <S^2>      =    0.00000000000000     


 output psi filename:./band.movecs


== Timing ==

cputime in seconds
  prologue    :   0.696810E+00
  main loop   :   0.502585E+00
  epilogue    :   0.408912E-02
  total       :   0.120348E+01
  cputime/step:   0.558428E-02       (      90 evalulations,      36 linesearches)


Time spent doing                        total          step
  FFTs                       :   0.131141E-01  0.145713E-03
  dot products               :   0.167624E+00  0.186249E-02
  geodesic                   :   0.135931E+00  0.151034E-02
  ffm_dgemm                  :   0.000000E+00  0.000000E+00
  fmf_dgemm                  :   0.000000E+00  0.000000E+00
  m_diagonalize              :   0.000000E+00  0.000000E+00
    - m_tredq                :   0.000000E+00  0.000000E+00
    - m_getdiags             :   0.000000E+00  0.000000E+00
    - m_tqliq                :   0.000000E+00  0.000000E+00
    - m_eigsrt               :   0.000000E+00  0.000000E+00
  exchange correlation       :   0.312884E-01  0.347649E-03
  local pseudopotentials     :   0.598431E-04  0.664923E-06
  non-local pseudopotentials :   0.793066E-01  0.881184E-03
  hartree potentials         :   0.222327E-02  0.247030E-04
  ion-ion interaction        :   0.454698E-01  0.505220E-03
  structure factors          :   0.175498E-02  0.194998E-04
  phase factors              :   0.000000E+00  0.000000E+00
  masking and packing        :   0.201155E-01  0.223506E-03
  queue fft                  :   0.132832E+00  0.147591E-02
  queue fft (serial)         :   0.825007E-01  0.916674E-03
  queue fft (message passing):   0.427123E-01  0.474582E-03
  HFX potential              :   0.000000E+00  0.000000E+00
  qmmm LJ                    :   0.000000E+00  0.000000E+00
  qmmm residual Q            :   0.000000E+00  0.000000E+00

     >>>  JOB COMPLETED     AT Fri Aug  6 14:00:26 2010  <<<

 Task  times  cpu:        1.2s     wall:        1.2s
 Summary of allocated global arrays
-----------------------------------
  No active global arrays



                         GA Statistics for process    0
                         ------------------------------

       create   destroy   get      put      acc     scatter   gather  read&inc
calls:    0        0        0        0        0        0        0        0     
number of processes/call 0.00e+00 0.00e+00 0.00e+00 0.00e+00 0.00e+00
bytes total:             0.00e+00 0.00e+00 0.00e+00 0.00e+00 0.00e+00 0.00e+00
bytes remote:            0.00e+00 0.00e+00 0.00e+00 0.00e+00 0.00e+00 0.00e+00
Max memory consumed for GA by this process: 0 bytes
MA_summarize_allocated_blocks: starting scan ...
MA_summarize_allocated_blocks: scan completed: 0 heap blocks, 0 stack blocks
MA usage statistics:

	allocation statistics:
					      heap	     stack
					      ----	     -----
	current number of blocks	         0	         0
	maximum number of blocks	       197	         9
	current total bytes		         0	         0
	maximum total bytes		   2849672	    800096
	maximum total K-bytes		      2850	       801
	maximum total M-bytes		         3	         1


                                NWChem Input Module
                                -------------------





                                     CITATION
                                     --------
                Please cite the following reference when publishing
                           results obtained with NWChem:

                 M. Valiev, E.J. Bylaska, N. Govind, K. Kowalski,
              T.P. Straatsma, H.J.J. van Dam, D. Wang, J. Nieplocha,
                        E. Apra, T.L. Windus, W.A. de Jong
                 "NWChem: a comprehensive and scalable open-source
                  solution for large scale molecular simulations"
                      Comput. Phys. Commun. 181, 1477 (2010)
                           doi:10.1016/j.cpc.2010.04.018

                              AUTHORS & CONTRIBUTORS
                              ----------------------
      E. J. Bylaska, W. A. de Jong, N. Govind, K. Kowalski, T. P. Straatsma,
     M. Valiev, H. J. J. Van Dam, D. Wang, E. Apra, T. L. Windus, J. Hammond,
     J. Autschbach, P. Nichols, S. Hirata, M. T. Hackler, Y. Zhao, P.-D. Fan,
      R. J. Harrison, M. Dupuis, D. M. A. Smith, J. Nieplocha, V. Tipparaju,
          M. Krishnan, A. Vazquez-Mayagoitia, L. Jensen, M. Swart, Q. Wu,
          T. Van Voorhis, A. A. Auer, M. Nooijen, L. D. Crosby, E. Brown,
             G. Cisneros, G. I. Fann, H. Fruchtl, J. Garza, K. Hirao,
        R. Kendall, J. A. Nichols, K. Tsemekhman, K. Wolinski, J. Anchell,
       D. Bernholdt, P. Borowski, T. Clark, D. Clerc, H. Dachsel, M. Deegan,
        K. Dyall, D. Elwood, E. Glendening, M. Gutowski, A. Hess, J. Jaffe,
        B. Johnson, J. Ju, R. Kobayashi, R. Kutteh, Z. Lin, R. Littlefield,
    X. Long, B. Meng, T. Nakajima, S. Niu, L. Pollack, M. Rosing, G. Sandrone,
       M. Stave, H. Taylor, G. Thomas, J. H. van Lenthe, A. Wong, Z. Zhang.

 Total times  cpu:        9.2s     wall:        9.4s
