 argument  1 = c60_ecp.nw



============================== echo of input deck ==============================
# $Id: c60_ecp.nw,v 1.1 2003-04-11 01:19:11 edo Exp $
echo

title "c60 with ECPs"

start c60

geometry
  symmetry Ih
  C -1.2287651 0.0 3.3143121   # bonds = 1.4445 and 1.3945 Angstrom
end

basis
  C library SBKJC_VDZ_ECP
end

ecp
  C library SBKJC_ECP
end

task scf
================================================================================


                                         
                                         


              Northwest Computational Chemistry Package (NWChem) 6.0
              ------------------------------------------------------


                    Environmental Molecular Sciences Laboratory
                       Pacific Northwest National Laboratory
                                Richland, WA 99352

                              Copyright (c) 1994-2010
                       Pacific Northwest National Laboratory
                            Battelle Memorial Institute

             NWChem is an open-source computational chemistry package
                        distributed under the terms of the
                      Educational Community License (ECL) 2.0
             A copy of the license is included with this distribution
                              in the LICENSE.TXT file

                                  ACKNOWLEDGMENT
                                  --------------

            This software and its documentation were developed at the
            EMSL at Pacific Northwest National Laboratory, a multiprogram
            national laboratory, operated for the U.S. Department of Energy
            by Battelle under Contract Number DE-AC05-76RL01830. Support
            for this work was provided by the Department of Energy Office
            of Biological and Environmental Research, Office of Basic
            Energy Sciences, and the Office of Advanced Scientific Computing.


           Job information
           ---------------

    hostname      = arcen
    program       = /home/d3y133/nwchem-releases/nwchem-6.0-gfortran/bin/LINUX64/nwchem
    date          = Fri Aug  6 14:52:30 2010

    compiled      = Fri_Aug_06_13:42:42_2010
    source        = /home/d3y133/nwchem-releases/nwchem-6.0-gfortran
    nwchem branch = 6.0
    input         = c60_ecp.nw
    prefix        = c60.
    data base     = ./c60.db
    status        = startup
    nproc         =        4
    time left     =     -1s



           Memory information
           ------------------

    heap     =   13107201 doubles =    100.0 Mbytes
    stack    =   13107201 doubles =    100.0 Mbytes
    global   =   26214400 doubles =    200.0 Mbytes (distinct from heap & stack)
    total    =   52428802 doubles =    400.0 Mbytes
    verify   = yes
    hardfail = no 


           Directory information
           ---------------------

  0 permanent = .
  0 scratch   = .




                                NWChem Input Module
                                -------------------


                                   c60 with ECPs
                                   -------------

 Scaling coordinates for geometry "geometry" by  1.889725989
 (inverse scale =  0.529177249)



                             Geometry "geometry" -> ""
                             -------------------------

 Output coordinates in angstroms (scale by  1.889725989 to convert to a.u.)

  No.       Tag          Charge          X              Y              Z
 ---- ---------------- ---------- -------------- -------------- --------------
    1 C                    6.0000    -1.22876510     0.00000000     3.31431210
    2 C                    6.0000    -0.37970930    -1.16862506     3.31431210
    3 C                    6.0000     0.99409185    -0.72225000     3.31431210
    4 C                    6.0000     0.99409185     0.72225000     3.31431210
    5 C                    6.0000    -0.37970930     1.16862506     3.31431210
    6 C                    6.0000     1.57397808    -2.58806202     1.82182775
    7 C                    6.0000     2.33339667    -2.58806202     0.59306265
    8 C                    6.0000     3.18245248    -1.41943696     0.59306265
    9 C                    6.0000     2.94777922    -0.69718696     1.82182775
   10 C                    6.0000     1.95368738    -1.41943696     2.58124635
   11 C                    6.0000     2.79459970    -1.16862506    -1.82182775
   12 C                    6.0000     2.41489040     0.00000000    -2.58124635
   13 C                    6.0000     2.79459970     1.16862506    -1.82182775
   14 C                    6.0000     3.40898225     0.72225000    -0.59306265
   15 C                    6.0000     3.40898225    -0.72225000    -0.59306265
   16 C                    6.0000     0.74624217     2.29669725    -2.58124635
   17 C                    6.0000    -2.33339667    -2.58806202    -0.59306265
   18 C                    6.0000    -3.18245248    -1.41943696    -0.59306265
   19 C                    6.0000    -2.94777922    -0.69718696    -1.82182775
   20 C                    6.0000    -1.95368738    -1.41943696    -2.58124635
   21 C                    6.0000    -1.57397808    -2.58806202    -1.82182775
   22 C                    6.0000    -3.18245248     1.41943696    -0.59306265
   23 C                    6.0000    -2.33339667     2.58806202    -0.59306265
   24 C                    6.0000    -1.57397808     2.58806202    -1.82182775
   25 C                    6.0000    -1.95368738     1.41943696    -2.58124635
   26 C                    6.0000    -2.94777922     0.69718696    -1.82182775
   27 C                    6.0000     0.36653288     3.46532231    -0.59306265
   28 C                    6.0000     1.74033402     3.01894726    -0.59306265
   29 C                    6.0000     1.97500727     2.29669725    -1.82182775
   30 C                    6.0000    -0.24784967     3.01894726    -1.82182775
   31 C                    6.0000    -0.74624217    -2.29669725     2.58124635
   32 C                    6.0000    -1.97500727    -2.29669725     1.82182775
   33 C                    6.0000    -1.74033402    -3.01894726     0.59306265
   34 C                    6.0000    -0.36653288    -3.46532231     0.59306265
   35 C                    6.0000     0.24784967    -3.01894726     1.82182775
   36 C                    6.0000    -0.99409185     0.72225000    -3.31431210
   37 C                    6.0000     0.37970930     1.16862506    -3.31431210
   38 C                    6.0000     1.22876510     0.00000000    -3.31431210
   39 C                    6.0000     0.37970930    -1.16862506    -3.31431210
   40 C                    6.0000    -0.99409185    -0.72225000    -3.31431210
   41 C                    6.0000    -1.97500727     2.29669725     1.82182775
   42 C                    6.0000    -0.74624217     2.29669725     2.58124635
   43 C                    6.0000     0.24784967     3.01894726     1.82182775
   44 C                    6.0000    -0.36653288     3.46532231     0.59306265
   45 C                    6.0000    -1.74033402     3.01894726     0.59306265
   46 C                    6.0000     1.95368738     1.41943696     2.58124635
   47 C                    6.0000     2.94777922     0.69718696     1.82182775
   48 C                    6.0000     3.18245248     1.41943696     0.59306265
   49 C                    6.0000     2.33339667     2.58806202     0.59306265
   50 C                    6.0000     1.57397808     2.58806202     1.82182775
   51 C                    6.0000    -2.79459970    -1.16862506     1.82182775
   52 C                    6.0000    -2.41489040     0.00000000     2.58124635
   53 C                    6.0000    -2.79459970     1.16862506     1.82182775
   54 C                    6.0000    -3.40898225     0.72225000     0.59306265
   55 C                    6.0000    -3.40898225    -0.72225000     0.59306265
   56 C                    6.0000     0.36653288    -3.46532231    -0.59306265
   57 C                    6.0000    -0.24784967    -3.01894726    -1.82182775
   58 C                    6.0000     0.74624217    -2.29669725    -2.58124635
   59 C                    6.0000     1.97500727    -2.29669725    -1.82182775
   60 C                    6.0000     1.74033402    -3.01894726    -0.59306265

      Atomic Mass 
      ----------- 

      C                 12.000000


 Effective nuclear repulsion energy (a.u.)    8362.6760611738

            Nuclear Dipole moment (a.u.) 
            ----------------------------
        X                 Y               Z
 ---------------- ---------------- ----------------
     0.0000000000     0.0000000000     0.0000000000

      Symmetry information
      --------------------

 Group name              Ih       
 Group number             46
 Group order             120
 No. of unique centers     1

      Symmetry unique atoms

     1


            XYZ format geometry
            -------------------
    60
 geometry
 C                    -1.22876510     0.00000000     3.31431210
 C                    -0.37970930    -1.16862506     3.31431210
 C                     0.99409185    -0.72225000     3.31431210
 C                     0.99409185     0.72225000     3.31431210
 C                    -0.37970930     1.16862506     3.31431210
 C                     1.57397808    -2.58806202     1.82182775
 C                     2.33339667    -2.58806202     0.59306265
 C                     3.18245248    -1.41943696     0.59306265
 C                     2.94777922    -0.69718696     1.82182775
 C                     1.95368738    -1.41943696     2.58124635
 C                     2.79459970    -1.16862506    -1.82182775
 C                     2.41489040     0.00000000    -2.58124635
 C                     2.79459970     1.16862506    -1.82182775
 C                     3.40898225     0.72225000    -0.59306265
 C                     3.40898225    -0.72225000    -0.59306265
 C                     0.74624217     2.29669725    -2.58124635
 C                    -2.33339667    -2.58806202    -0.59306265
 C                    -3.18245248    -1.41943696    -0.59306265
 C                    -2.94777922    -0.69718696    -1.82182775
 C                    -1.95368738    -1.41943696    -2.58124635
 C                    -1.57397808    -2.58806202    -1.82182775
 C                    -3.18245248     1.41943696    -0.59306265
 C                    -2.33339667     2.58806202    -0.59306265
 C                    -1.57397808     2.58806202    -1.82182775
 C                    -1.95368738     1.41943696    -2.58124635
 C                    -2.94777922     0.69718696    -1.82182775
 C                     0.36653288     3.46532231    -0.59306265
 C                     1.74033402     3.01894726    -0.59306265
 C                     1.97500727     2.29669725    -1.82182775
 C                    -0.24784967     3.01894726    -1.82182775
 C                    -0.74624217    -2.29669725     2.58124635
 C                    -1.97500727    -2.29669725     1.82182775
 C                    -1.74033402    -3.01894726     0.59306265
 C                    -0.36653288    -3.46532231     0.59306265
 C                     0.24784967    -3.01894726     1.82182775
 C                    -0.99409185     0.72225000    -3.31431210
 C                     0.37970930     1.16862506    -3.31431210
 C                     1.22876510     0.00000000    -3.31431210
 C                     0.37970930    -1.16862506    -3.31431210
 C                    -0.99409185    -0.72225000    -3.31431210
 C                    -1.97500727     2.29669725     1.82182775
 C                    -0.74624217     2.29669725     2.58124635
 C                     0.24784967     3.01894726     1.82182775
 C                    -0.36653288     3.46532231     0.59306265
 C                    -1.74033402     3.01894726     0.59306265
 C                     1.95368738     1.41943696     2.58124635
 C                     2.94777922     0.69718696     1.82182775
 C                     3.18245248     1.41943696     0.59306265
 C                     2.33339667     2.58806202     0.59306265
 C                     1.57397808     2.58806202     1.82182775
 C                    -2.79459970    -1.16862506     1.82182775
 C                    -2.41489040     0.00000000     2.58124635
 C                    -2.79459970     1.16862506     1.82182775
 C                    -3.40898225     0.72225000     0.59306265
 C                    -3.40898225    -0.72225000     0.59306265
 C                     0.36653288    -3.46532231    -0.59306265
 C                    -0.24784967    -3.01894726    -1.82182775
 C                     0.74624217    -2.29669725    -2.58124635
 C                     1.97500727    -2.29669725    -1.82182775
 C                     1.74033402    -3.01894726    -0.59306265

 ==============================================================================
                                internuclear distances
 ------------------------------------------------------------------------------
       center one      |      center two      | atomic units |  angstroms
 ------------------------------------------------------------------------------
    2 C                |   1 C                |     2.72971  |     1.44450
    3 C                |   2 C                |     2.72971  |     1.44450
    4 C                |   3 C                |     2.72971  |     1.44450
    5 C                |   1 C                |     2.72971  |     1.44450
    5 C                |   4 C                |     2.72971  |     1.44450
    7 C                |   6 C                |     2.72971  |     1.44450
    8 C                |   7 C                |     2.72971  |     1.44450
    9 C                |   8 C                |     2.72971  |     1.44450
   10 C                |   3 C                |     2.63498  |     1.39437
   10 C                |   6 C                |     2.72971  |     1.44450
   10 C                |   9 C                |     2.72971  |     1.44450
   12 C                |  11 C                |     2.72971  |     1.44450
   13 C                |  12 C                |     2.72971  |     1.44450
   14 C                |  13 C                |     2.72971  |     1.44450
   15 C                |   8 C                |     2.63498  |     1.39437
   15 C                |  11 C                |     2.72971  |     1.44450
   15 C                |  14 C                |     2.72971  |     1.44450
   18 C                |  17 C                |     2.72971  |     1.44450
   19 C                |  18 C                |     2.72971  |     1.44450
   20 C                |  19 C                |     2.72971  |     1.44450
   21 C                |  17 C                |     2.72971  |     1.44450
   21 C                |  20 C                |     2.72971  |     1.44450
   23 C                |  22 C                |     2.72971  |     1.44450
   24 C                |  23 C                |     2.72971  |     1.44450
   25 C                |  24 C                |     2.72971  |     1.44450
   26 C                |  19 C                |     2.63498  |     1.39437
   26 C                |  22 C                |     2.72971  |     1.44450
   26 C                |  25 C                |     2.72971  |     1.44450
   28 C                |  27 C                |     2.72971  |     1.44450
   29 C                |  13 C                |     2.63498  |     1.39437
   29 C                |  16 C                |     2.72971  |     1.44450
   29 C                |  28 C                |     2.72971  |     1.44450
   30 C                |  16 C                |     2.72971  |     1.44450
   30 C                |  24 C                |     2.63498  |     1.39437
   30 C                |  27 C                |     2.72971  |     1.44450
   31 C                |   2 C                |     2.63498  |     1.39437
   32 C                |  31 C                |     2.72971  |     1.44450
   33 C                |  17 C                |     2.63498  |     1.39437
   33 C                |  32 C                |     2.72971  |     1.44450
   34 C                |  33 C                |     2.72971  |     1.44450
   35 C                |   6 C                |     2.63498  |     1.39437
   35 C                |  31 C                |     2.72971  |     1.44450
   35 C                |  34 C                |     2.72971  |     1.44450
   36 C                |  25 C                |     2.63498  |     1.39437
   37 C                |  16 C                |     2.63498  |     1.39437
   37 C                |  36 C                |     2.72971  |     1.44450
   38 C                |  12 C                |     2.63498  |     1.39437
   38 C                |  37 C                |     2.72971  |     1.44450
   39 C                |  38 C                |     2.72971  |     1.44450
   40 C                |  20 C                |     2.63498  |     1.39437
   40 C                |  36 C                |     2.72971  |     1.44450
   40 C                |  39 C                |     2.72971  |     1.44450
   42 C                |   5 C                |     2.63498  |     1.39437
   42 C                |  41 C                |     2.72971  |     1.44450
   43 C                |  42 C                |     2.72971  |     1.44450
   44 C                |  27 C                |     2.63498  |     1.39437
   44 C                |  43 C                |     2.72971  |     1.44450
   45 C                |  23 C                |     2.63498  |     1.39437
   45 C                |  41 C                |     2.72971  |     1.44450
   45 C                |  44 C                |     2.72971  |     1.44450
   46 C                |   4 C                |     2.63498  |     1.39437
   47 C                |   9 C                |     2.63498  |     1.39437
   47 C                |  46 C                |     2.72971  |     1.44450
   48 C                |  14 C                |     2.63498  |     1.39437
   48 C                |  47 C                |     2.72971  |     1.44450
   49 C                |  28 C                |     2.63498  |     1.39437
   49 C                |  48 C                |     2.72971  |     1.44450
   50 C                |  43 C                |     2.63498  |     1.39437
   50 C                |  46 C                |     2.72971  |     1.44450
   50 C                |  49 C                |     2.72971  |     1.44450
   51 C                |  32 C                |     2.63498  |     1.39437
   52 C                |   1 C                |     2.63498  |     1.39437
   52 C                |  51 C                |     2.72971  |     1.44450
   53 C                |  41 C                |     2.63498  |     1.39437
   53 C                |  52 C                |     2.72971  |     1.44450
   54 C                |  22 C                |     2.63498  |     1.39437
   54 C                |  53 C                |     2.72971  |     1.44450
   55 C                |  18 C                |     2.63498  |     1.39437
   55 C                |  51 C                |     2.72971  |     1.44450
   55 C                |  54 C                |     2.72971  |     1.44450
   56 C                |  34 C                |     2.63498  |     1.39437
   57 C                |  21 C                |     2.63498  |     1.39437
   57 C                |  56 C                |     2.72971  |     1.44450
   58 C                |  39 C                |     2.63498  |     1.39437
   58 C                |  57 C                |     2.72971  |     1.44450
   59 C                |  11 C                |     2.63498  |     1.39437
   59 C                |  58 C                |     2.72971  |     1.44450
   60 C                |   7 C                |     2.63498  |     1.39437
   60 C                |  56 C                |     2.72971  |     1.44450
   60 C                |  59 C                |     2.72971  |     1.44450
 ------------------------------------------------------------------------------
                         number of included internuclear distances:         90
 ==============================================================================



 ==============================================================================
                                 internuclear angles
 ------------------------------------------------------------------------------
        center 1       |       center 2       |       center 3       |  degrees
 ------------------------------------------------------------------------------
    2 C                |   1 C                |   5 C                |   108.00
    2 C                |   1 C                |  52 C                |   120.00
    5 C                |   1 C                |  52 C                |   120.00
    1 C                |   2 C                |   3 C                |   108.00
    1 C                |   2 C                |  31 C                |   120.00
    3 C                |   2 C                |  31 C                |   120.00
    2 C                |   3 C                |   4 C                |   108.00
    2 C                |   3 C                |  10 C                |   120.00
    4 C                |   3 C                |  10 C                |   120.00
    3 C                |   4 C                |   5 C                |   108.00
    3 C                |   4 C                |  46 C                |   120.00
    5 C                |   4 C                |  46 C                |   120.00
    1 C                |   5 C                |   4 C                |   108.00
    1 C                |   5 C                |  42 C                |   120.00
    4 C                |   5 C                |  42 C                |   120.00
    7 C                |   6 C                |  10 C                |   108.00
    7 C                |   6 C                |  35 C                |   120.00
   10 C                |   6 C                |  35 C                |   120.00
    6 C                |   7 C                |   8 C                |   108.00
    6 C                |   7 C                |  60 C                |   120.00
    8 C                |   7 C                |  60 C                |   120.00
    7 C                |   8 C                |   9 C                |   108.00
    7 C                |   8 C                |  15 C                |   120.00
    9 C                |   8 C                |  15 C                |   120.00
    8 C                |   9 C                |  10 C                |   108.00
    8 C                |   9 C                |  47 C                |   120.00
   10 C                |   9 C                |  47 C                |   120.00
    3 C                |  10 C                |   6 C                |   120.00
    3 C                |  10 C                |   9 C                |   120.00
    6 C                |  10 C                |   9 C                |   108.00
   12 C                |  11 C                |  15 C                |   108.00
   12 C                |  11 C                |  59 C                |   120.00
   15 C                |  11 C                |  59 C                |   120.00
   11 C                |  12 C                |  13 C                |   108.00
   11 C                |  12 C                |  38 C                |   120.00
   13 C                |  12 C                |  38 C                |   120.00
   12 C                |  13 C                |  14 C                |   108.00
   12 C                |  13 C                |  29 C                |   120.00
   14 C                |  13 C                |  29 C                |   120.00
   13 C                |  14 C                |  15 C                |   108.00
   13 C                |  14 C                |  48 C                |   120.00
   15 C                |  14 C                |  48 C                |   120.00
    8 C                |  15 C                |  11 C                |   120.00
    8 C                |  15 C                |  14 C                |   120.00
   11 C                |  15 C                |  14 C                |   108.00
   29 C                |  16 C                |  30 C                |   108.00
   29 C                |  16 C                |  37 C                |   120.00
   30 C                |  16 C                |  37 C                |   120.00
   18 C                |  17 C                |  21 C                |   108.00
   18 C                |  17 C                |  33 C                |   120.00
   21 C                |  17 C                |  33 C                |   120.00
   17 C                |  18 C                |  19 C                |   108.00
   17 C                |  18 C                |  55 C                |   120.00
   19 C                |  18 C                |  55 C                |   120.00
   18 C                |  19 C                |  20 C                |   108.00
   18 C                |  19 C                |  26 C                |   120.00
   20 C                |  19 C                |  26 C                |   120.00
   19 C                |  20 C                |  21 C                |   108.00
   19 C                |  20 C                |  40 C                |   120.00
   21 C                |  20 C                |  40 C                |   120.00
   17 C                |  21 C                |  20 C                |   108.00
   17 C                |  21 C                |  57 C                |   120.00
   20 C                |  21 C                |  57 C                |   120.00
   23 C                |  22 C                |  26 C                |   108.00
   23 C                |  22 C                |  54 C                |   120.00
   26 C                |  22 C                |  54 C                |   120.00
   22 C                |  23 C                |  24 C                |   108.00
   22 C                |  23 C                |  45 C                |   120.00
   24 C                |  23 C                |  45 C                |   120.00
   23 C                |  24 C                |  25 C                |   108.00
   23 C                |  24 C                |  30 C                |   120.00
   25 C                |  24 C                |  30 C                |   120.00
   24 C                |  25 C                |  26 C                |   108.00
   24 C                |  25 C                |  36 C                |   120.00
   26 C                |  25 C                |  36 C                |   120.00
   19 C                |  26 C                |  22 C                |   120.00
   19 C                |  26 C                |  25 C                |   120.00
   22 C                |  26 C                |  25 C                |   108.00
   28 C                |  27 C                |  30 C                |   108.00
   28 C                |  27 C                |  44 C                |   120.00
   30 C                |  27 C                |  44 C                |   120.00
   27 C                |  28 C                |  29 C                |   108.00
   27 C                |  28 C                |  49 C                |   120.00
   29 C                |  28 C                |  49 C                |   120.00
   13 C                |  29 C                |  16 C                |   120.00
   13 C                |  29 C                |  28 C                |   120.00
   16 C                |  29 C                |  28 C                |   108.00
   16 C                |  30 C                |  24 C                |   120.00
   16 C                |  30 C                |  27 C                |   108.00
   24 C                |  30 C                |  27 C                |   120.00
    2 C                |  31 C                |  32 C                |   120.00
    2 C                |  31 C                |  35 C                |   120.00
   32 C                |  31 C                |  35 C                |   108.00
   31 C                |  32 C                |  33 C                |   108.00
   31 C                |  32 C                |  51 C                |   120.00
   33 C                |  32 C                |  51 C                |   120.00
   17 C                |  33 C                |  32 C                |   120.00
   17 C                |  33 C                |  34 C                |   120.00
   32 C                |  33 C                |  34 C                |   108.00
   33 C                |  34 C                |  35 C                |   108.00
   33 C                |  34 C                |  56 C                |   120.00
   35 C                |  34 C                |  56 C                |   120.00
    6 C                |  35 C                |  31 C                |   120.00
    6 C                |  35 C                |  34 C                |   120.00
   31 C                |  35 C                |  34 C                |   108.00
   25 C                |  36 C                |  37 C                |   120.00
   25 C                |  36 C                |  40 C                |   120.00
   37 C                |  36 C                |  40 C                |   108.00
   16 C                |  37 C                |  36 C                |   120.00
   16 C                |  37 C                |  38 C                |   120.00
   36 C                |  37 C                |  38 C                |   108.00
   12 C                |  38 C                |  37 C                |   120.00
   12 C                |  38 C                |  39 C                |   120.00
   37 C                |  38 C                |  39 C                |   108.00
   38 C                |  39 C                |  40 C                |   108.00
   38 C                |  39 C                |  58 C                |   120.00
   40 C                |  39 C                |  58 C                |   120.00
   20 C                |  40 C                |  36 C                |   120.00
   20 C                |  40 C                |  39 C                |   120.00
   36 C                |  40 C                |  39 C                |   108.00
   42 C                |  41 C                |  45 C                |   108.00
   42 C                |  41 C                |  53 C                |   120.00
   45 C                |  41 C                |  53 C                |   120.00
    5 C                |  42 C                |  41 C                |   120.00
    5 C                |  42 C                |  43 C                |   120.00
   41 C                |  42 C                |  43 C                |   108.00
   42 C                |  43 C                |  44 C                |   108.00
   42 C                |  43 C                |  50 C                |   120.00
   44 C                |  43 C                |  50 C                |   120.00
   27 C                |  44 C                |  43 C                |   120.00
   27 C                |  44 C                |  45 C                |   120.00
   43 C                |  44 C                |  45 C                |   108.00
   23 C                |  45 C                |  41 C                |   120.00
   23 C                |  45 C                |  44 C                |   120.00
   41 C                |  45 C                |  44 C                |   108.00
    4 C                |  46 C                |  47 C                |   120.00
    4 C                |  46 C                |  50 C                |   120.00
   47 C                |  46 C                |  50 C                |   108.00
    9 C                |  47 C                |  46 C                |   120.00
    9 C                |  47 C                |  48 C                |   120.00
   46 C                |  47 C                |  48 C                |   108.00
   14 C                |  48 C                |  47 C                |   120.00
   14 C                |  48 C                |  49 C                |   120.00
   47 C                |  48 C                |  49 C                |   108.00
   28 C                |  49 C                |  48 C                |   120.00
   28 C                |  49 C                |  50 C                |   120.00
   48 C                |  49 C                |  50 C                |   108.00
   43 C                |  50 C                |  46 C                |   120.00
   43 C                |  50 C                |  49 C                |   120.00
   46 C                |  50 C                |  49 C                |   108.00
   32 C                |  51 C                |  52 C                |   120.00
   32 C                |  51 C                |  55 C                |   120.00
   52 C                |  51 C                |  55 C                |   108.00
    1 C                |  52 C                |  51 C                |   120.00
    1 C                |  52 C                |  53 C                |   120.00
   51 C                |  52 C                |  53 C                |   108.00
   41 C                |  53 C                |  52 C                |   120.00
   41 C                |  53 C                |  54 C                |   120.00
   52 C                |  53 C                |  54 C                |   108.00
   22 C                |  54 C                |  53 C                |   120.00
   22 C                |  54 C                |  55 C                |   120.00
   53 C                |  54 C                |  55 C                |   108.00
   18 C                |  55 C                |  51 C                |   120.00
   18 C                |  55 C                |  54 C                |   120.00
   51 C                |  55 C                |  54 C                |   108.00
   34 C                |  56 C                |  57 C                |   120.00
   34 C                |  56 C                |  60 C                |   120.00
   57 C                |  56 C                |  60 C                |   108.00
   21 C                |  57 C                |  56 C                |   120.00
   21 C                |  57 C                |  58 C                |   120.00
   56 C                |  57 C                |  58 C                |   108.00
   39 C                |  58 C                |  57 C                |   120.00
   39 C                |  58 C                |  59 C                |   120.00
   57 C                |  58 C                |  59 C                |   108.00
   11 C                |  59 C                |  58 C                |   120.00
   11 C                |  59 C                |  60 C                |   120.00
   58 C                |  59 C                |  60 C                |   108.00
    7 C                |  60 C                |  56 C                |   120.00
    7 C                |  60 C                |  59 C                |   120.00
   56 C                |  60 C                |  59 C                |   108.00
 ------------------------------------------------------------------------------
                            number of included internuclear angles:        180
 ==============================================================================



  library name resolved from: .nwchemrc
  library file name is: </home/d3y133/nwchem-releases/nwchem-6.0-gfortran/QA/../src/basis/libraries/>
  
                      Basis "ao basis" -> "" (cartesian)
                      -----
  C (Carbon)
  ----------
            Exponent  Coefficients 
       -------------- ---------------------------------------------------------
  1 S  4.28600000E+00 -0.147220
  1 S  1.04600000E+00  0.081250
  1 S  3.44700000E-01  0.713600

  2 P  4.28600000E+00  0.102570
  2 P  1.04600000E+00  0.329870
  2 P  3.44700000E-01  0.482120

  3 S  1.12800000E-01  0.315210

  4 P  1.12800000E-01  0.315930



 Summary of "ao basis" -> "" (cartesian)
 ------------------------------------------------------------------------------
       Tag                 Description            Shells   Functions and Types
 ---------------- ------------------------------  ------  ---------------------
 C                       SBKJC VDZ ECP               4        8   2s2p


  library name resolved from: .nwchemrc
  library file name is: </home/d3y133/nwchem-releases/nwchem-6.0-gfortran/QA/../src/basis/libraries/>
  
                 ECP       "ecp basis" -> "" (cartesian)
                -----
  C (Carbon) Replaces     2 electrons
  -----------------------------------
          R-exponent    Exponent     Coefficients 
         ------------ ---------------------------------------------------------
  1 U L      1.00        8.564680      -0.893710

  2 U-s      0.00        2.814970       1.929260
  2 U-s      2.00        8.112960      14.881990

                                 NWChem SCF Module
                                 -----------------


                                   c60 with ECPs



  ao basis        = "ao basis"
  functions       =   480
  atoms           =    60
  closed shells   =   120
  open shells     =     0
  charge          =   0.00
  wavefunction    = RHF 
  input vectors   = atomic
  output vectors  = ./c60.movecs
  use symmetry    = T
  symmetry adapt  = T


 Summary of "ao basis" -> "ao basis" (cartesian)
 ------------------------------------------------------------------------------
       Tag                 Description            Shells   Functions and Types
 ---------------- ------------------------------  ------  ---------------------
 C                       SBKJC VDZ ECP               4        8   2s2p


      Symmetry analysis of basis
      --------------------------

        ag          6
        t1g        30
        t2g        30
        gg         64
        hg        110
        au          2
        t1u        42
        t2u        42
        gu         64
        hu         90


 Forming initial guess at       3.1s


      Superposition of Atomic Density Guess
      -------------------------------------

 Sum of atomic energies:        -178.37146217

      Non-variational initial energy
      ------------------------------

 Total energy =    -260.884714
 1-e energy   =   -7420.474671
 2-e energy   =    3442.845041
 HOMO         =      -1.594210
 LUMO         =      -1.522914


      Symmetry analysis of molecular orbitals - initial
      -------------------------------------------------

  Numbering of irreducible representations: 

     1 ag          2 t1g         3 t2g         4 gg          5 hg      
     6 au          7 t1u         8 t2u         9 gu         10 hu      

  Orbital symmetries:

     1 ag          2 t1u         3 t1u         4 t1u         5 hg      
     6 hg          7 hg          8 hg          9 hg         10 t2u     
    11 t2u        12 t2u        13 gu         14 gu         15 gu      
    16 gu         17 hg         18 hg         19 hg         20 hg      
    21 hg         22 gg         23 gg         24 gg         25 gg      
    26 t1u        27 t1u        28 t1u        29 hu         30 hu      
    31 hu         32 hu         33 hu         34 t2u        35 t2u     
    36 t2u        37 t1g        38 t1g        39 t1g        40 hg      
    41 hg         42 hg         43 hg         44 hg         45 ag      
    46 gg         47 gg         48 gg         49 gg         50 hu      
    51 hu         52 hu         53 hu         54 hu         55 t1u     
    56 t1u        57 t1u        58 t2u        59 t2u        60 t2u     
    61 gu         62 gu         63 gu         64 gu         65 hg      
    66 hg         67 hg         68 hg         69 hg         70 gg      
    71 gg         72 gg         73 gg         74 gu         75 gu      
    76 gu         77 gu         78 t2g        79 t2g        80 t2g     
    81 ag         82 hg         83 hg         84 hg         85 hg      
    86 hg         87 hu         88 hu         89 hu         90 hu      
    91 hu         92 t1u        93 t1u        94 t1u        95 hg      
    96 hg         97 hg         98 hg         99 hg        100 t2u     
   101 t2u       102 t2u       103 gu        104 gu        105 gu      
   106 gu        107 hg        108 hg        109 hg        110 hg      
   111 hg        112 gg        113 gg        114 gg        115 gg      
   116 hu        117 hu        118 hu        119 hu        120 hu      
   121 t1u       122 t1u       123 t1u       124 t1g       125 t1g     
   126 t1g       127 hg        128 hg        129 hg        130 hg      


 Starting SCF solution at      16.9s



 ----------------------------------------------
         Quadratically convergent ROHF

 Convergence threshold     :          1.000E-04
 Maximum no. of iterations :           30
 Final Fock-matrix accuracy:          1.000E-07
 ----------------------------------------------


 Integral file          = ./c60.aoints.0
 Record size in doubles =  65536        No. of integs per rec  =  32766
 Max. records in memory =      0        Max. records in file   =  26329
 No. of bits per label  =     16        No. of bits per value  =     64


 #quartets = 3.024D+06 #integrals = 4.567D+07 #direct =  0.0% #cached =100.0%


File balance: exchanges=     4  moved=    22  time=   0.0


              iter       energy          gnorm     gmax       time
             ----- ------------------- --------- --------- --------
                 1     -320.3349848973  8.62D+00  1.11D+00     32.3
                 2     -327.3494506103  3.64D+00  5.90D-01     36.8
                 3     -327.7140741542  1.41D+00  2.51D-01     40.6
                 4     -327.8455020275  8.19D-01  1.30D-01     44.3
                 5     -327.8680031857  7.32D-02  9.79D-03     46.3
                 6     -327.8686415244  2.64D-03  4.48D-04     52.4
                 7     -327.8686426170  4.48D-06  5.03D-07     61.4


       Final RHF  results 
       ------------------ 

         Total SCF energy =   -327.868642616962
      One-electron energy =  -7905.184430542893
      Two-electron energy =   3860.570871848732
 Nuclear repulsion energy =   3716.744916077200

        Time for solution =     46.1s



       Symmetry analysis of molecular orbitals - final
       -----------------------------------------------

  Numbering of irreducible representations: 

     1 ag          2 t1g         3 t2g         4 gg          5 hg      
     6 au          7 t1u         8 t2u         9 gu         10 hu      

  Orbital symmetries:

     1 ag          2 t1u         3 t1u         4 t1u         5 hg      
     6 hg          7 hg          8 hg          9 hg         10 t2u     
    11 t2u        12 t2u        13 gu         14 gu         15 gu      
    16 gu         17 hg         18 hg         19 hg         20 hg      
    21 hg         22 gg         23 gg         24 gg         25 gg      
    26 hu         27 hu         28 hu         29 hu         30 hu      
    31 t1u        32 t1u        33 t1u        34 t2u        35 t2u     
    36 t2u        37 t1g        38 t1g        39 t1g        40 hg      
    41 hg         42 hg         43 hg         44 hg         45 ag      
    46 gg         47 gg         48 gg         49 gg         50 hu      
    51 hu         52 hu         53 hu         54 hu         55 t1u     
    56 t1u        57 t1u        58 t2u        59 t2u        60 t2u     
    61 ag         62 gu         63 gu         64 gu         65 gu      
    66 t1u        67 t1u        68 t1u        69 hg         70 hg      
    71 hg         72 hg         73 hg         74 gg         75 gg      
    76 gg         77 gg         78 t2g        79 t2g        80 t2g     
    81 gu         82 gu         83 gu         84 gu         85 hg      
    86 hg         87 hg         88 hg         89 hg         90 hg      
    91 hg         92 hg         93 hg         94 hg         95 hu      
    96 hu         97 hu         98 hu         99 hu        100 t2u     
   101 t2u       102 t2u       103 gu        104 gu        105 gu      
   106 gu        107 gg        108 gg        109 gg        110 gg      
   111 hg        112 hg        113 hg        114 hg        115 hg      
   116 hu        117 hu        118 hu        119 hu        120 hu      
   121 t1u       122 t1u       123 t1u       124 t1g       125 t1g     
   126 t1g       127 t2u       128 t2u       129 t2u       130 hg      

             Final eigenvalues
             -----------------

              1      
    1   -1.3460
    2   -1.3209
    3   -1.3209
    4   -1.3209
    5   -1.2723
    6   -1.2723
    7   -1.2723
    8   -1.2723
    9   -1.2723
   10   -1.2211
   11   -1.2211
   12   -1.2211
   13   -1.1788
   14   -1.1788
   15   -1.1788
   16   -1.1788
   17   -1.1129
   18   -1.1129
   19   -1.1129
   20   -1.1129
   21   -1.1129
   22   -1.0924
   23   -1.0924
   24   -1.0924
   25   -1.0924
   26   -1.0225
   27   -1.0225
   28   -1.0225
   29   -1.0225
   30   -1.0225
   31   -0.9936
   32   -0.9936
   33   -0.9936
   34   -0.9295
   35   -0.9295
   36   -0.9295
   37   -0.8939
   38   -0.8939
   39   -0.8939
   40   -0.8874
   41   -0.8874
   42   -0.8874
   43   -0.8874
   44   -0.8874
   45   -0.8367
   46   -0.7911
   47   -0.7911
   48   -0.7911
   49   -0.7911
   50   -0.7679
   51   -0.7679
   52   -0.7679
   53   -0.7679
   54   -0.7679
   55   -0.7383
   56   -0.7383
   57   -0.7383
   58   -0.6991
   59   -0.6991
   60   -0.6991
   61   -0.6799
   62   -0.6715
   63   -0.6715
   64   -0.6715
   65   -0.6715
   66   -0.6479
   67   -0.6479
   68   -0.6479
   69   -0.6475
   70   -0.6475
   71   -0.6475
   72   -0.6475
   73   -0.6475
   74   -0.6291
   75   -0.6291
   76   -0.6291
   77   -0.6291
   78   -0.6168
   79   -0.6168
   80   -0.6168
   81   -0.5922
   82   -0.5922
   83   -0.5922
   84   -0.5922
   85   -0.5856
   86   -0.5856
   87   -0.5856
   88   -0.5856
   89   -0.5856
   90   -0.5330
   91   -0.5330
   92   -0.5330
   93   -0.5330
   94   -0.5330
   95   -0.5192
   96   -0.5192
   97   -0.5192
   98   -0.5192
   99   -0.5192
  100   -0.5039
  101   -0.5039
  102   -0.5039
  103   -0.4843
  104   -0.4843
  105   -0.4843
  106   -0.4843
  107   -0.3850
  108   -0.3850
  109   -0.3850
  110   -0.3850
  111   -0.3755
  112   -0.3755
  113   -0.3755
  114   -0.3755
  115   -0.3755
  116   -0.3094
  117   -0.3094
  118   -0.3094
  119   -0.3094
  120   -0.3094
  121   -0.0474
  122   -0.0474
  123   -0.0474
  124    0.0146
  125    0.0146
  126    0.0146
  127    0.0780
  128    0.0780
  129    0.0780
  130    0.0796

                       ROHF Final Molecular Orbital Analysis
                       -------------------------------------

 Vector    1  Occ=2.000000D+00  E=-1.345958D+00  Symmetry=ag
              MO Center=  7.9D-16,  2.5D-15,  1.0D-15, r^2= 1.2D+01
   Bfn.  Coefficient  Atom+Function         Bfn.  Coefficient  Atom+Function  
  ----- ------------  ---------------      ----- ------------  ---------------
    65      0.083921   9 C  s               145      0.083921  19 C  s         
   201      0.083921  26 C  s               225      0.083921  29 C  s         
   321      0.083921  41 C  s               369      0.083921  47 C  s         
   249      0.083921  32 C  s                97      0.083921  13 C  s         
   465      0.083921  59 C  s               401      0.083921  51 C  s         

 Vector    2  Occ=2.000000D+00  E=-1.320875D+00  Symmetry=t1u
              MO Center=  7.8D-16, -7.3D-17, -1.6D-15, r^2= 1.2D+01
   Bfn.  Coefficient  Atom+Function         Bfn.  Coefficient  Atom+Function  
  ----- ------------  ---------------      ----- ------------  ---------------
    89      0.142753  12 C  s               409     -0.142753  52 C  s         
   297      0.142463  38 C  s                 1     -0.142463   1 C  s         

 Vector    3  Occ=2.000000D+00  E=-1.320875D+00  Symmetry=t1u
              MO Center= -1.4D-15,  0.0D+00, -8.3D-16, r^2= 1.2D+01
   Bfn.  Coefficient  Atom+Function         Bfn.  Coefficient  Atom+Function  
  ----- ------------  ---------------      ----- ------------  ---------------
   145     -0.144711  19 C  s               369      0.144711  47 C  s         
   201     -0.139783  26 C  s                65      0.139783   9 C  s         

 Vector    4  Occ=2.000000D+00  E=-1.320875D+00  Symmetry=t1u
              MO Center=  6.1D-17, -2.9D-15,  2.8D-17, r^2= 1.2D+01
   Bfn.  Coefficient  Atom+Function         Bfn.  Coefficient  Atom+Function  
  ----- ------------  ---------------      ----- ------------  ---------------
   265      0.142717  34 C  s               209     -0.142717  27 C  s         
   441      0.141751  56 C  s               345     -0.141751  44 C  s         
   273      0.129581  35 C  s               233     -0.129581  30 C  s         

 Vector    5  Occ=2.000000D+00  E=-1.272275D+00  Symmetry=hg
              MO Center=  7.6D-17, -4.2D-17,  2.5D-16, r^2= 1.2D+01
   Bfn.  Coefficient  Atom+Function         Bfn.  Coefficient  Atom+Function  
  ----- ------------  ---------------      ----- ------------  ---------------
     1      0.183690   1 C  s               297      0.183690  38 C  s         
   409      0.154336  52 C  s                89      0.154336  12 C  s         

 Vector    6  Occ=2.000000D+00  E=-1.272275D+00  Symmetry=hg
              MO Center=  2.8D-17, -2.2D-16,  6.9D-17, r^2= 1.2D+01
   Bfn.  Coefficient  Atom+Function         Bfn.  Coefficient  Atom+Function  
  ----- ------------  ---------------      ----- ------------  ---------------
   169      0.152849  22 C  s                57      0.152849   8 C  s         
   425      0.151489  54 C  s               113      0.151489  15 C  s         

 Vector    7  Occ=2.000000D+00  E=-1.272275D+00  Symmetry=hg
              MO Center= -9.1D-15, -1.1D-14, -1.8D-14, r^2= 1.2D+01
   Bfn.  Coefficient  Atom+Function         Bfn.  Coefficient  Atom+Function  
  ----- ------------  ---------------      ----- ------------  ---------------
   433      0.152915  55 C  s               105      0.152915  14 C  s         
   193     -0.152583  25 C  s                73     -0.152583  10 C  s         

 Vector    8  Occ=2.000000D+00  E=-1.272275D+00  Symmetry=hg
              MO Center=  4.4D-16,  5.6D-17, -7.2D-16, r^2= 1.2D+01
   Bfn.  Coefficient  Atom+Function         Bfn.  Coefficient  Atom+Function  
  ----- ------------  ---------------      ----- ------------  ---------------
   121      0.163137  16 C  s               241      0.163137  31 C  s         
   465     -0.162899  59 C  s               321     -0.162899  41 C  s         
   225      0.152620  29 C  s               249      0.152620  32 C  s         
   457     -0.151062  58 C  s               329     -0.151062  42 C  s         

 Vector    9  Occ=2.000000D+00  E=-1.272275D+00  Symmetry=hg
              MO Center=  4.1D-15, -4.9D-15, -1.7D-15, r^2= 1.2D+01
   Bfn.  Coefficient  Atom+Function         Bfn.  Coefficient  Atom+Function  
  ----- ------------  ---------------      ----- ------------  ---------------
   345      0.155542  44 C  s               441      0.155542  56 C  s         
   265      0.154122  34 C  s               209      0.154122  27 C  s         
   369     -0.151250  47 C  s               145     -0.151250  19 C  s         

 Vector   10  Occ=2.000000D+00  E=-1.221089D+00  Symmetry=t2u
              MO Center= -2.3D-15,  5.3D-15,  6.4D-15, r^2= 1.2D+01
   Bfn.  Coefficient  Atom+Function         Bfn.  Coefficient  Atom+Function  
  ----- ------------  ---------------      ----- ------------  ---------------
   369      0.138465  47 C  s               145     -0.138465  19 C  s         
   401      0.138068  51 C  s                97     -0.138068  13 C  s         
    33     -0.132138   5 C  s               305      0.132138  39 C  s         
   385      0.125693  49 C  s               129     -0.125693  17 C  s         
   425      0.125297  54 C  s               113     -0.125297  15 C  s         

 Vector   11  Occ=2.000000D+00  E=-1.221089D+00  Symmetry=t2u
              MO Center= -4.4D-15, -9.0D-15,  1.9D-16, r^2= 1.2D+01
   Bfn.  Coefficient  Atom+Function         Bfn.  Coefficient  Atom+Function  
  ----- ------------  ---------------      ----- ------------  ---------------
   241      0.147467  31 C  s               121     -0.147467  16 C  s         
   257      0.143966  33 C  s               217     -0.143966  28 C  s         
   265      0.141816  34 C  s               209     -0.141816  27 C  s         
   233     -0.136151  30 C  s               273      0.136151  35 C  s         
   225     -0.134822  29 C  s               249      0.134822  32 C  s         

 Vector   12  Occ=2.000000D+00  E=-1.221089D+00  Symmetry=t2u
              MO Center= -2.4D-15, -1.1D-15,  8.9D-16, r^2= 1.2D+01
   Bfn.  Coefficient  Atom+Function         Bfn.  Coefficient  Atom+Function  
  ----- ------------  ---------------      ----- ------------  ---------------
   321      0.141417  41 C  s               465     -0.141417  59 C  s         
   345      0.137458  44 C  s               441     -0.137458  56 C  s         
   185     -0.136627  24 C  s                41      0.136627   6 C  s         
   169     -0.132668  22 C  s                57      0.132668   8 C  s         

 Vector   13  Occ=2.000000D+00  E=-1.178805D+00  Symmetry=gu
              MO Center= -2.2D-14, -1.9D-16,  4.2D-14, r^2= 1.2D+01
   Bfn.  Coefficient  Atom+Function         Bfn.  Coefficient  Atom+Function  
  ----- ------------  ---------------      ----- ------------  ---------------
     9      0.170121   2 C  s               289     -0.170121  37 C  s         
   241      0.165192  31 C  s               121     -0.165192  16 C  s         
    33     -0.151828   5 C  s               305      0.151828  39 C  s         

 Vector   14  Occ=2.000000D+00  E=-1.178805D+00  Symmetry=gu
              MO Center=  1.2D-14, -2.4D-15,  1.7D-15, r^2= 1.2D+01
   Bfn.  Coefficient  Atom+Function         Bfn.  Coefficient  Atom+Function  
  ----- ------------  ---------------      ----- ------------  ---------------
   425      0.157967  54 C  s               113     -0.157967  15 C  s         
    57     -0.154662   8 C  s               169      0.154662  22 C  s         
   401     -0.152646  51 C  s                97      0.152646  13 C  s         

 Vector   15  Occ=2.000000D+00  E=-1.178805D+00  Symmetry=gu
              MO Center=  2.4D-14,  1.1D-14, -4.3D-15, r^2= 1.2D+01
   Bfn.  Coefficient  Atom+Function         Bfn.  Coefficient  Atom+Function  
  ----- ------------  ---------------      ----- ------------  ---------------
   105      0.165691  14 C  s               433     -0.165691  55 C  s         
   377      0.154850  48 C  s               137     -0.154850  18 C  s         

 Vector   16  Occ=2.000000D+00  E=-1.178805D+00  Symmetry=gu
              MO Center= -4.4D-15,  1.3D-14, -4.9D-15, r^2= 1.2D+01
   Bfn.  Coefficient  Atom+Function         Bfn.  Coefficient  Atom+Function  
  ----- ------------  ---------------      ----- ------------  ---------------
    65      0.172634   9 C  s               201     -0.172634  26 C  s         
   145     -0.169993  19 C  s               369      0.169993  47 C  s         

 Vector   17  Occ=2.000000D+00  E=-1.112910D+00  Symmetry=hg
              MO Center= -1.3D-15, -1.6D-15,  3.1D-16, r^2= 1.3D+01
   Bfn.  Coefficient  Atom+Function         Bfn.  Coefficient  Atom+Function  
  ----- ------------  ---------------      ----- ------------  ---------------
     1      0.179892   1 C  s               297      0.179892  38 C  s         
   177      0.179032  23 C  s                49      0.179032   7 C  s         
   129      0.176860  17 C  s               385      0.176860  49 C  s         

 Vector   18  Occ=2.000000D+00  E=-1.112910D+00  Symmetry=hg
              MO Center=  1.5D-14, -2.8D-16, -9.8D-15, r^2= 1.3D+01
   Bfn.  Coefficient  Atom+Function         Bfn.  Coefficient  Atom+Function  
  ----- ------------  ---------------      ----- ------------  ---------------
   473      0.158612  60 C  s               353      0.158612  45 C  s         
   377      0.151243  48 C  s               137      0.151243  18 C  s         

 Vector   19  Occ=2.000000D+00  E=-1.112910D+00  Symmetry=hg
              MO Center= -1.4D-14, -1.3D-15, -1.6D-14, r^2= 1.3D+01
   Bfn.  Coefficient  Atom+Function         Bfn.  Coefficient  Atom+Function  
  ----- ------------  ---------------      ----- ------------  ---------------
   257      0.152604  33 C  s               217      0.152604  28 C  s         

 Vector   20  Occ=2.000000D+00  E=-1.112910D+00  Symmetry=hg
              MO Center= -3.1D-14, -2.2D-15,  1.7D-14, r^2= 1.3D+01
   Bfn.  Coefficient  Atom+Function         Bfn.  Coefficient  Atom+Function  
  ----- ------------  ---------------      ----- ------------  ---------------
   417      0.171125  53 C  s                81      0.171125  11 C  s         
   153      0.161291  20 C  s               361      0.161291  46 C  s         
   273      0.159829  35 C  s               233      0.159829  30 C  s         

 Vector   21  Occ=2.000000D+00  E=-1.112910D+00  Symmetry=hg
              MO Center= -3.6D-15,  5.6D-17, -4.3D-16, r^2= 1.3D+01
   Bfn.  Coefficient  Atom+Function         Bfn.  Coefficient  Atom+Function  
  ----- ------------  ---------------      ----- ------------  ---------------
   249      0.151471  32 C  s               225      0.151471  29 C  s         

 Vector   22  Occ=2.000000D+00  E=-1.092450D+00  Symmetry=gg
              MO Center=  6.0D-15, -3.6D-15, -1.2D-15, r^2= 1.3D+01
   Bfn.  Coefficient  Atom+Function         Bfn.  Coefficient  Atom+Function  
  ----- ------------  ---------------      ----- ------------  ---------------
   361      0.145459  46 C  s               153      0.145459  20 C  s         
    73     -0.141650  10 C  s               193     -0.141650  25 C  s         

 Vector   23  Occ=2.000000D+00  E=-1.092450D+00  Symmetry=gg
              MO Center= -9.5D-15,  2.9D-15,  8.5D-15, r^2= 1.3D+01
   Bfn.  Coefficient  Atom+Function         Bfn.  Coefficient  Atom+Function  
  ----- ------------  ---------------      ----- ------------  ---------------
   409      0.169567  52 C  s                89      0.169567  12 C  s         

 Vector   24  Occ=2.000000D+00  E=-1.092450D+00  Symmetry=gg
              MO Center=  2.7D-15,  2.9D-15, -8.8D-15, r^2= 1.3D+01
   Bfn.  Coefficient  Atom+Function         Bfn.  Coefficient  Atom+Function  
  ----- ------------  ---------------      ----- ------------  ---------------
   289      0.154847  37 C  s                 9      0.154847   2 C  s         
   313     -0.151930  40 C  s                25     -0.151930   4 C  s         

 Vector   25  Occ=2.000000D+00  E=-1.092450D+00  Symmetry=gg
              MO Center= -6.3D-15, -2.2D-15,  2.3D-14, r^2= 1.3D+01
   Bfn.  Coefficient  Atom+Function         Bfn.  Coefficient  Atom+Function  
  ----- ------------  ---------------      ----- ------------  ---------------
    17      0.164165   3 C  s               281      0.164165  36 C  s         

 Vector   26  Occ=2.000000D+00  E=-1.022544D+00  Symmetry=hu
              MO Center= -5.3D-16,  3.1D-16,  1.7D-15, r^2= 1.3D+01
   Bfn.  Coefficient  Atom+Function         Bfn.  Coefficient  Atom+Function  
  ----- ------------  ---------------      ----- ------------  ---------------
    81      0.177737  11 C  s               417     -0.177737  53 C  s         
     9     -0.165959   2 C  s               289      0.165959  37 C  s         
    33      0.161962   5 C  s               305     -0.161962  39 C  s         
    97     -0.161610  13 C  s               401      0.161610  51 C  s         

 Vector   27  Occ=2.000000D+00  E=-1.022544D+00  Symmetry=hu
              MO Center=  1.1D-14,  3.8D-15, -2.1D-14, r^2= 1.3D+01
   Bfn.  Coefficient  Atom+Function         Bfn.  Coefficient  Atom+Function  
  ----- ------------  ---------------      ----- ------------  ---------------
   145      0.188669  19 C  s               369     -0.188669  47 C  s         
   281     -0.152616  36 C  s                17      0.152616   3 C  s         

 Vector   28  Occ=2.000000D+00  E=-1.022544D+00  Symmetry=hu
              MO Center=  2.9D-15, -5.6D-15,  1.6D-15, r^2= 1.3D+01
   Bfn.  Coefficient  Atom+Function         Bfn.  Coefficient  Atom+Function  
  ----- ------------  ---------------      ----- ------------  ---------------
    25      0.192761   4 C  s               313     -0.192761  40 C  s         
   449      0.180390  57 C  s               337     -0.180390  43 C  s         

 Vector   29  Occ=2.000000D+00  E=-1.022544D+00  Symmetry=hu
              MO Center=  4.2D-15, -2.4D-15,  8.2D-15, r^2= 1.3D+01
   Bfn.  Coefficient  Atom+Function         Bfn.  Coefficient  Atom+Function  
  ----- ------------  ---------------      ----- ------------  ---------------
   233      0.175369  30 C  s               273     -0.175369  35 C  s         
   457     -0.155481  58 C  s               329      0.155481  42 C  s         
     1     -0.154640   1 C  s               297      0.154640  38 C  s         

 Vector   30  Occ=2.000000D+00  E=-1.022544D+00  Symmetry=hu
              MO Center=  9.0D-15,  6.1D-15, -5.6D-17, r^2= 1.3D+01
   Bfn.  Coefficient  Atom+Function         Bfn.  Coefficient  Atom+Function  
  ----- ------------  ---------------      ----- ------------  ---------------
    57      0.159913   8 C  s               169     -0.159913  22 C  s         
   217      0.157348  28 C  s               257     -0.157348  33 C  s         
   441      0.153149  56 C  s               345     -0.153149  44 C  s         
   105     -0.151629  14 C  s               433      0.151629  55 C  s         

 Vector   31  Occ=2.000000D+00  E=-9.936327D-01  Symmetry=t1u
              MO Center=  1.3D-14,  4.9D-15, -2.5D-15, r^2= 1.3D+01
   Bfn.  Coefficient  Atom+Function         Bfn.  Coefficient  Atom+Function  
  ----- ------------  ---------------      ----- ------------  ---------------
    89      0.129643  12 C  s               409     -0.129643  52 C  s         
   257      0.125707  33 C  s               217     -0.125707  28 C  s         
   353      0.123894  45 C  s               473     -0.123894  60 C  s         
     1      0.120510   1 C  s               297     -0.120510  38 C  s         

 Vector   32  Occ=2.000000D+00  E=-9.936327D-01  Symmetry=t1u
              MO Center= -8.3D-17, -4.2D-16,  1.6D-16, r^2= 1.3D+01
   Bfn.  Coefficient  Atom+Function         Bfn.  Coefficient  Atom+Function  
  ----- ------------  ---------------      ----- ------------  ---------------
    65      0.127902   9 C  s               201     -0.127902  26 C  s         
   417      0.123830  53 C  s                81     -0.123830  11 C  s         
   145      0.121899  19 C  s               369     -0.121899  47 C  s         
     9     -0.120372   2 C  s               289      0.120372  37 C  s         

 Vector   33  Occ=2.000000D+00  E=-9.936327D-01  Symmetry=t1u
              MO Center= -1.1D-15,  2.4D-15, -1.5D-15, r^2= 1.3D+01
   Bfn.  Coefficient  Atom+Function         Bfn.  Coefficient  Atom+Function  
  ----- ------------  ---------------      ----- ------------  ---------------
   209      0.129074  27 C  s               265     -0.129074  34 C  s         
   193     -0.126078  25 C  s                73      0.126078  10 C  s         
   137      0.122882  18 C  s               377     -0.122882  48 C  s         
   345     -0.119312  44 C  s               441      0.119312  56 C  s         

 Vector   34  Occ=2.000000D+00  E=-9.294571D-01  Symmetry=t2u
              MO Center= -1.9D-16,  3.8D-16, -2.7D-16, r^2= 1.3D+01
   Bfn.  Coefficient  Atom+Function         Bfn.  Coefficient  Atom+Function  
  ----- ------------  ---------------      ----- ------------  ---------------
   433      0.100013  55 C  s               105     -0.100013  14 C  s         
    25     -0.099878   4 C  s               313      0.099878  40 C  s         
   281     -0.099714  36 C  s                17      0.099714   3 C  s         
   425     -0.099579  54 C  s               113      0.099579  15 C  s         

 Vector   35  Occ=2.000000D+00  E=-9.294571D-01  Symmetry=t2u
              MO Center= -9.0D-15, -1.7D-15,  3.7D-15, r^2= 1.3D+01
   Bfn.  Coefficient  Atom+Function         Bfn.  Coefficient  Atom+Function  
  ----- ------------  ---------------      ----- ------------  ---------------
   177      0.101906  23 C  s                49     -0.101906   7 C  s         
   385     -0.101773  49 C  s               129      0.101773  17 C  s         
   393      0.094584  50 C  s               161     -0.094584  21 C  s         
   185     -0.094451  24 C  s                41      0.094451   6 C  s         
     1     -0.092733   1 C  s               297      0.092733  38 C  s         

 Vector   36  Occ=2.000000D+00  E=-9.294571D-01  Symmetry=t2u
              MO Center= -8.6D-15, -1.2D-14,  1.2D-14, r^2= 1.3D+01
   Bfn.  Coefficient  Atom+Function         Bfn.  Coefficient  Atom+Function  
  ----- ------------  ---------------      ----- ------------  ---------------
   121      0.103435  16 C  s               241     -0.103435  31 C  s         
   329     -0.103201  42 C  s               457      0.103201  58 C  s         
   465     -0.093154  59 C  s               321      0.093154  41 C  s         

 Vector   37  Occ=2.000000D+00  E=-8.939115D-01  Symmetry=t1g
              MO Center=  4.9D-16,  3.0D-15, -1.1D-15, r^2= 1.3D+01
   Bfn.  Coefficient  Atom+Function         Bfn.  Coefficient  Atom+Function  
  ----- ------------  ---------------      ----- ------------  ---------------
   145      0.141946  19 C  s                65     -0.141946   9 C  s         
   369      0.141946  47 C  s               201     -0.141946  26 C  s         
    41      0.134710   6 C  s               185      0.134710  24 C  s         
   273     -0.134710  35 C  s               233     -0.134710  30 C  s         

 Vector   38  Occ=2.000000D+00  E=-8.939115D-01  Symmetry=t1g
              MO Center=  6.4D-16, -1.5D-15, -1.7D-15, r^2= 1.3D+01
   Bfn.  Coefficient  Atom+Function         Bfn.  Coefficient  Atom+Function  
  ----- ------------  ---------------      ----- ------------  ---------------
   457      0.140609  58 C  s               329      0.140609  42 C  s         
    33     -0.140609   5 C  s               305     -0.140609  39 C  s         
   281      0.137275  36 C  s                17      0.137275   3 C  s         
    73     -0.137275  10 C  s               193     -0.137275  25 C  s         

 Vector   39  Occ=2.000000D+00  E=-8.939115D-01  Symmetry=t1g
              MO Center= -1.7D-15, -4.2D-16,  1.6D-15, r^2= 1.3D+01
   Bfn.  Coefficient  Atom+Function         Bfn.  Coefficient  Atom+Function  
  ----- ------------  ---------------      ----- ------------  ---------------
   313      0.144120  40 C  s                25      0.144120   4 C  s         
   153     -0.144120  20 C  s               361     -0.144120  46 C  s         
   433     -0.137262  55 C  s               105     -0.137262  14 C  s         
   377      0.137262  48 C  s               137      0.137262  18 C  s         

 Vector   40  Occ=2.000000D+00  E=-8.874389D-01  Symmetry=hg
              MO Center= -7.3D-16, -6.1D-15,  2.7D-15, r^2= 1.3D+01
   Bfn.  Coefficient  Atom+Function         Bfn.  Coefficient  Atom+Function  
  ----- ------------  ---------------      ----- ------------  ---------------
    17      0.154751   3 C  s               281      0.154751  36 C  s         

 Vector   41  Occ=2.000000D+00  E=-8.874389D-01  Symmetry=hg
              MO Center= -1.1D-15,  2.2D-15, -1.9D-15, r^2= 1.3D+01
   Bfn.  Coefficient  Atom+Function         Bfn.  Coefficient  Atom+Function  
  ----- ------------  ---------------      ----- ------------  ---------------
   433      0.134352  55 C  s               105      0.134352  14 C  s         

 Vector   42  Occ=2.000000D+00  E=-8.874389D-01  Symmetry=hg
              MO Center= -5.5D-15,  5.8D-16,  3.6D-15, r^2= 1.3D+01
   Bfn.  Coefficient  Atom+Function         Bfn.  Coefficient  Atom+Function  
  ----- ------------  ---------------      ----- ------------  ---------------
   265      0.140726  34 C  s               209      0.140726  27 C  s         
   257     -0.130228  33 C  s               217     -0.130228  28 C  s         
   417      0.126696  53 C  s                81      0.126696  11 C  s         

 Vector   43  Occ=2.000000D+00  E=-8.874389D-01  Symmetry=hg
              MO Center=  4.0D-14,  5.9D-15, -5.2D-14, r^2= 1.3D+01
   Bfn.  Coefficient  Atom+Function         Bfn.  Coefficient  Atom+Function  
  ----- ------------  ---------------      ----- ------------  ---------------
   369      0.129953  47 C  s               145      0.129953  19 C  s         
   201      0.127036  26 C  s                65      0.127036   9 C  s         
   169     -0.125404  22 C  s                57     -0.125404   8 C  s         
   377     -0.120642  48 C  s               137     -0.120642  18 C  s         

 Vector   44  Occ=2.000000D+00  E=-8.874389D-01  Symmetry=hg
              MO Center= -6.3D-16,  1.3D-15, -1.1D-14, r^2= 1.3D+01
   Bfn.  Coefficient  Atom+Function         Bfn.  Coefficient  Atom+Function  
  ----- ------------  ---------------      ----- ------------  ---------------
   121      0.130583  16 C  s               241      0.130583  31 C  s         
   329      0.123852  42 C  s               457      0.123852  58 C  s         
   273     -0.120195  35 C  s               233     -0.120195  30 C  s         

 Vector   45  Occ=2.000000D+00  E=-8.367051D-01  Symmetry=ag
              MO Center=  8.1D-15, -9.9D-17,  9.4D-15, r^2= 1.3D+01
   Bfn.  Coefficient  Atom+Function         Bfn.  Coefficient  Atom+Function  
  ----- ------------  ---------------      ----- ------------  ---------------
    67      0.089831   9 C  py              203     -0.089831  26 C  py        
   147      0.089831  19 C  py              371     -0.089831  47 C  py        
   274      0.089602  35 C  px              234     -0.089602  30 C  px        
   450     -0.089602  57 C  px              338      0.089602  43 C  px        
     2     -0.084750   1 C  px              298      0.084750  38 C  px        

 Vector   46  Occ=2.000000D+00  E=-7.910820D-01  Symmetry=gg
              MO Center= -1.3D-15,  1.8D-14,  2.6D-14, r^2= 1.3D+01
   Bfn.  Coefficient  Atom+Function         Bfn.  Coefficient  Atom+Function  
  ----- ------------  ---------------      ----- ------------  ---------------
   290      0.141611  37 C  px               10     -0.141611   2 C  px        
   411     -0.128733  52 C  py               91      0.128733  12 C  py        
     3     -0.127879   1 C  py              299      0.127879  38 C  py        

 Vector   47  Occ=2.000000D+00  E=-7.910820D-01  Symmetry=gg
              MO Center= -3.2D-15,  7.8D-16, -1.8D-15, r^2= 1.3D+01
   Bfn.  Coefficient  Atom+Function         Bfn.  Coefficient  Atom+Function  
  ----- ------------  ---------------      ----- ------------  ---------------
   148      0.130988  19 C  pz              372     -0.130988  47 C  pz        
   453     -0.129732  57 C  s               341     -0.129732  43 C  s         
   306     -0.121115  39 C  px               34      0.121115   5 C  px        
   245     -0.119443  31 C  s               125     -0.119443  16 C  s         

 Vector   48  Occ=2.000000D+00  E=-7.910820D-01  Symmetry=gg
              MO Center= -3.7D-16,  1.7D-16,  3.3D-16, r^2= 1.3D+01
   Bfn.  Coefficient  Atom+Function         Bfn.  Coefficient  Atom+Function  
  ----- ------------  ---------------      ----- ------------  ---------------
   346     -0.121479  44 C  px              442      0.121479  56 C  px        
   421      0.115731  53 C  s                85      0.115731  11 C  s         

 Vector   49  Occ=2.000000D+00  E=-7.910820D-01  Symmetry=gg
              MO Center= -5.2D-14, -5.8D-14, -7.9D-14, r^2= 1.3D+01
   Bfn.  Coefficient  Atom+Function         Bfn.  Coefficient  Atom+Function  
  ----- ------------  ---------------      ----- ------------  ---------------
     5      0.138940   1 C  s               301      0.138940  38 C  s         
   213      0.137015  27 C  s               269      0.137015  34 C  s         
    69      0.136666   9 C  s               205      0.136666  26 C  s         
   373      0.133589  47 C  s               149      0.133589  19 C  s         
   349      0.133240  44 C  s               445      0.133240  56 C  s         

 Vector   50  Occ=2.000000D+00  E=-7.678543D-01  Symmetry=hu
              MO Center= -2.3D-14,  6.1D-15,  4.6D-15, r^2= 1.3D+01
   Bfn.  Coefficient  Atom+Function         Bfn.  Coefficient  Atom+Function  
  ----- ------------  ---------------      ----- ------------  ---------------
   393      0.134619  50 C  s               161     -0.134619  21 C  s         
   337     -0.122531  43 C  s               449      0.122531  57 C  s         

 Vector   51  Occ=2.000000D+00  E=-7.678543D-01  Symmetry=hu
              MO Center= -6.7D-16,  2.2D-14,  6.8D-15, r^2= 1.3D+01
   Bfn.  Coefficient  Atom+Function         Bfn.  Coefficient  Atom+Function  
  ----- ------------  ---------------      ----- ------------  ---------------
   329      0.129520  42 C  s               457     -0.129520  58 C  s         
    33     -0.123275   5 C  s               305      0.123275  39 C  s         
   241     -0.123138  31 C  s               121      0.123138  16 C  s         
     3     -0.116894   1 C  py              299     -0.116894  38 C  py        

 Vector   52  Occ=2.000000D+00  E=-7.678543D-01  Symmetry=hu
              MO Center=  5.7D-15, -6.7D-16,  5.7D-15, r^2= 1.3D+01
   Bfn.  Coefficient  Atom+Function         Bfn.  Coefficient  Atom+Function  
  ----- ------------  ---------------      ----- ------------  ---------------
    89     -0.154091  12 C  s               409      0.154091  52 C  s         

 Vector   53  Occ=2.000000D+00  E=-7.678543D-01  Symmetry=hu
              MO Center= -1.0D-14, -7.2D-15, -4.9D-15, r^2= 1.3D+01
   Bfn.  Coefficient  Atom+Function         Bfn.  Coefficient  Atom+Function  
  ----- ------------  ---------------      ----- ------------  ---------------
   313     -0.143615  40 C  s                25      0.143615   4 C  s         

 Vector   54  Occ=2.000000D+00  E=-7.678543D-01  Symmetry=hu
              MO Center=  1.3D-14, -5.7D-15,  1.4D-15, r^2= 1.3D+01
   Bfn.  Coefficient  Atom+Function         Bfn.  Coefficient  Atom+Function  
  ----- ------------  ---------------      ----- ------------  ---------------
   441      0.134417  56 C  s               345     -0.134417  44 C  s         
   265     -0.130642  34 C  s               209      0.130642  27 C  s         
     1      0.121162   1 C  s               297     -0.121162  38 C  s         

 Vector   55  Occ=2.000000D+00  E=-7.382851D-01  Symmetry=t1u
              MO Center=  1.2D-16,  7.2D-16, -2.8D-17, r^2= 1.3D+01
   Bfn.  Coefficient  Atom+Function         Bfn.  Coefficient  Atom+Function  
  ----- ------------  ---------------      ----- ------------  ---------------
   212      0.128776  27 C  pz              268      0.128776  34 C  pz        
    52      0.125504   7 C  pz              180      0.125504  23 C  pz        
   348     -0.124007  44 C  pz              444     -0.124007  56 C  pz        
    42      0.119520   6 C  px              186      0.119520  24 C  px        
   132     -0.118931  17 C  pz              388     -0.118931  49 C  pz        

 Vector   56  Occ=2.000000D+00  E=-7.382851D-01  Symmetry=t1u
              MO Center= -6.5D-15, -1.9D-16,  3.9D-16, r^2= 1.3D+01
   Bfn.  Coefficient  Atom+Function         Bfn.  Coefficient  Atom+Function  
  ----- ------------  ---------------      ----- ------------  ---------------
   140      0.129803  18 C  pz              380      0.129803  48 C  pz        
    60      0.128860   8 C  pz              172      0.128860  22 C  pz        
   203     -0.117068  26 C  py               67     -0.117068   9 C  py        

 Vector   57  Occ=2.000000D+00  E=-7.382851D-01  Symmetry=t1u
              MO Center= -1.0D-14,  4.5D-14, -1.9D-14, r^2= 1.3D+01
   Bfn.  Coefficient  Atom+Function         Bfn.  Coefficient  Atom+Function  
  ----- ------------  ---------------      ----- ------------  ---------------
   357      0.103796  45 C  s               477     -0.103796  60 C  s         
   261      0.103384  33 C  s               221     -0.103384  28 C  s         
    53      0.102275   7 C  s               181     -0.102275  23 C  s         
   133     -0.101567  17 C  s               389      0.101567  49 C  s         
    35      0.099524   5 C  py              307      0.099524  39 C  py        

 Vector   58  Occ=2.000000D+00  E=-6.990943D-01  Symmetry=t2u
              MO Center= -1.4D-14, -5.3D-14, -5.6D-14, r^2= 1.3D+01
   Bfn.  Coefficient  Atom+Function         Bfn.  Coefficient  Atom+Function  
  ----- ------------  ---------------      ----- ------------  ---------------
    91      0.118421  12 C  py              299      0.118421  38 C  py        
   411      0.118421  52 C  py                3      0.118421   1 C  py        
   242      0.110123  31 C  px              122      0.110123  16 C  px        
   212     -0.108072  27 C  pz              268     -0.108072  34 C  pz        

 Vector   59  Occ=2.000000D+00  E=-6.990943D-01  Symmetry=t2u
              MO Center= -1.2D-14, -7.1D-16,  4.5D-15, r^2= 1.3D+01
   Bfn.  Coefficient  Atom+Function         Bfn.  Coefficient  Atom+Function  
  ----- ------------  ---------------      ----- ------------  ---------------
   427      0.102215  54 C  py              115      0.102215  15 C  py        
   274     -0.101538  35 C  px              234     -0.101538  30 C  px        
   139     -0.100005  18 C  py              379     -0.100005  48 C  py        
   186      0.098347  24 C  px               42      0.098347   6 C  px        
   435     -0.096298  55 C  py              107     -0.096298  14 C  py        

 Vector   60  Occ=2.000000D+00  E=-6.990943D-01  Symmetry=t2u
              MO Center=  5.9D-14, -8.4D-14,  4.2D-14, r^2= 1.3D+01
   Bfn.  Coefficient  Atom+Function         Bfn.  Coefficient  Atom+Function  
  ----- ------------  ---------------      ----- ------------  ---------------
   306      0.109745  39 C  px               34      0.109745   5 C  px        
   180     -0.103861  23 C  pz               52     -0.103861   7 C  pz        
   388     -0.100471  49 C  pz              132     -0.100471  17 C  pz        
   363      0.100444  46 C  py              155      0.100444  20 C  py        
   283     -0.099528  36 C  py               19     -0.099528   3 C  py        

 Vector   61  Occ=2.000000D+00  E=-6.798965D-01  Symmetry=ag
              MO Center= -1.7D-15,  1.6D-14,  2.1D-14, r^2= 1.4D+01
   Bfn.  Coefficient  Atom+Function         Bfn.  Coefficient  Atom+Function  
  ----- ------------  ---------------      ----- ------------  ---------------
   211      0.074656  27 C  py              267     -0.074656  34 C  py        
   443     -0.074656  56 C  py              347      0.074656  44 C  py        
   114      0.073120  15 C  px              426     -0.073120  54 C  px        
   434     -0.073120  55 C  px              106      0.073120  14 C  px        
   300     -0.070358  38 C  pz                4      0.070358   1 C  pz        

 Vector   62  Occ=2.000000D+00  E=-6.715107D-01  Symmetry=gu
              MO Center= -5.0D-16,  2.7D-14, -8.5D-15, r^2= 1.3D+01
   Bfn.  Coefficient  Atom+Function         Bfn.  Coefficient  Atom+Function  
  ----- ------------  ---------------      ----- ------------  ---------------
   299      0.173083  38 C  py                3      0.173083   1 C  py        

 Vector   63  Occ=2.000000D+00  E=-6.715107D-01  Symmetry=gu
              MO Center=  7.9D-15, -9.3D-15, -2.0D-15, r^2= 1.3D+01
   Bfn.  Coefficient  Atom+Function         Bfn.  Coefficient  Atom+Function  
[...]
   269     -1.199020  34 C  s               213      1.199020  27 C  s         
   197     -1.120710  25 C  s                77      1.120710  10 C  s         
   397     -1.110412  50 C  s               165      1.110412  21 C  s         
   229      1.104676  29 C  s               253     -1.104676  32 C  s         

 Vector  183  Occ=0.000000D+00  E= 4.181026D-01  Symmetry=t2u
              MO Center=  4.3D-14,  4.6D-14,  4.3D-15, r^2= 2.0D+01
   Bfn.  Coefficient  Atom+Function         Bfn.  Coefficient  Atom+Function  
  ----- ------------  ---------------      ----- ------------  ---------------
   317     -1.226875  40 C  s                29      1.226875   4 C  s         
   189      1.158668  24 C  s                45     -1.158668   6 C  s         
   325     -1.132078  41 C  s               469      1.132078  59 C  s         
    13      1.102501   2 C  s               293     -1.102501  37 C  s         
   301     -1.043214  38 C  s                 5      1.043214   1 C  s         

 Vector  184  Occ=0.000000D+00  E= 4.181026D-01  Symmetry=t2u
              MO Center=  7.1D-14, -1.5D-13,  1.4D-13, r^2= 2.0D+01
   Bfn.  Coefficient  Atom+Function         Bfn.  Coefficient  Atom+Function  
  ----- ------------  ---------------      ----- ------------  ---------------
   117      1.195172  15 C  s               429     -1.195172  54 C  s         
   413     -1.183781  52 C  s                93      1.183781  12 C  s         
   333      1.105111  42 C  s               461     -1.105111  58 C  s         
   477     -1.093719  60 C  s               357      1.093719  45 C  s         
   389     -1.021476  49 C  s               133      1.021476  17 C  s         

 Vector  185  Occ=0.000000D+00  E= 4.246062D-01  Symmetry=t1u
              MO Center=  4.2D-14,  8.8D-14, -5.3D-14, r^2= 1.9D+01
   Bfn.  Coefficient  Atom+Function         Bfn.  Coefficient  Atom+Function  
  ----- ------------  ---------------      ----- ------------  ---------------
   261      1.407363  33 C  s               221     -1.407363  28 C  s         
   133     -1.404956  17 C  s               389      1.404956  49 C  s         
    37      1.209850   5 C  s               309     -1.209850  39 C  s         
   173     -1.206010  22 C  s                61      1.206010   8 C  s         
     5      1.197391   1 C  s               301     -1.197391  38 C  s         

 Vector  186  Occ=0.000000D+00  E= 4.246062D-01  Symmetry=t1u
              MO Center= -4.9D-14,  9.2D-14,  1.3D-14, r^2= 1.9D+01
   Bfn.  Coefficient  Atom+Function         Bfn.  Coefficient  Atom+Function  
  ----- ------------  ---------------      ----- ------------  ---------------
   245      1.370941  31 C  s               125     -1.370941  16 C  s         
   149      1.363707  19 C  s               373     -1.363707  47 C  s         
   325     -1.338030  41 C  s               469      1.338030  59 C  s         
   293      1.287971  37 C  s                13     -1.287971   2 C  s         
    69      1.276201   9 C  s               205     -1.276201  26 C  s         

 Vector  187  Occ=0.000000D+00  E= 4.246062D-01  Symmetry=t1u
              MO Center= -1.5D-13,  1.7D-13, -1.7D-13, r^2= 1.9D+01
   Bfn.  Coefficient  Atom+Function         Bfn.  Coefficient  Atom+Function  
  ----- ------------  ---------------      ----- ------------  ---------------
    21      1.286488   3 C  s               285     -1.286488  36 C  s         
    77     -1.286100  10 C  s               197      1.286100  25 C  s         
   445     -1.233971  56 C  s               349      1.233971  44 C  s         
   341      1.231961  43 C  s               453     -1.231961  57 C  s         
   213     -1.200657  27 C  s               269      1.200657  34 C  s         

 Vector  188  Occ=0.000000D+00  E= 4.818201D-01  Symmetry=ag
              MO Center= -5.6D-15, -3.9D-15,  3.4D-15, r^2= 2.0D+01
   Bfn.  Coefficient  Atom+Function         Bfn.  Coefficient  Atom+Function  
  ----- ------------  ---------------      ----- ------------  ---------------
   151     -0.156789  19 C  py              375      0.156789  47 C  py        
    71     -0.156789   9 C  py              207      0.156789  26 C  py        
   454      0.156086  57 C  px              342     -0.156086  43 C  px        
   238      0.156086  30 C  px              278     -0.156086  35 C  px        

 Vector  189  Occ=0.000000D+00  E= 4.830315D-01  Symmetry=hg
              MO Center=  2.7D-14, -8.3D-14,  4.6D-13, r^2= 1.8D+01
   Bfn.  Coefficient  Atom+Function         Bfn.  Coefficient  Atom+Function  
  ----- ------------  ---------------      ----- ------------  ---------------
    37      0.401322   5 C  s               309      0.401322  39 C  s         
   181     -0.378307  23 C  s                53     -0.378307   7 C  s         
   301      0.350462  38 C  s                 5      0.350462   1 C  s         
    61     -0.345755   8 C  s               173     -0.345755  22 C  s         
   197     -0.285375  25 C  s                77     -0.285375  10 C  s         

 Vector  190  Occ=0.000000D+00  E= 4.830315D-01  Symmetry=hg
              MO Center=  5.3D-14,  5.6D-14, -1.8D-14, r^2= 1.8D+01
   Bfn.  Coefficient  Atom+Function         Bfn.  Coefficient  Atom+Function  
  ----- ------------  ---------------      ----- ------------  ---------------
   157      0.405297  20 C  s               365      0.405297  46 C  s         
    93     -0.342145  12 C  s               413     -0.342145  52 C  s         
   261     -0.340877  33 C  s               221     -0.340877  28 C  s         
   125     -0.340247  16 C  s               245     -0.340247  31 C  s         
    29      0.318969   4 C  s               317      0.318969  40 C  s         

 Vector  191  Occ=0.000000D+00  E= 4.830315D-01  Symmetry=hg
              MO Center= -4.6D-15, -1.3D-13,  9.2D-14, r^2= 1.8D+01
   Bfn.  Coefficient  Atom+Function         Bfn.  Coefficient  Atom+Function  
  ----- ------------  ---------------      ----- ------------  ---------------
   293      0.399488  37 C  s                13      0.399488   2 C  s         
   389     -0.343299  49 C  s               133     -0.343299  17 C  s         
   461     -0.328417  58 C  s               333     -0.328417  42 C  s         
   349     -0.321495  44 C  s               445     -0.321495  56 C  s         
    69      0.313055   9 C  s               205      0.313055  26 C  s         

 Vector  192  Occ=0.000000D+00  E= 4.830315D-01  Symmetry=hg
              MO Center= -1.3D-13, -1.4D-14, -4.2D-14, r^2= 1.8D+01
   Bfn.  Coefficient  Atom+Function         Bfn.  Coefficient  Atom+Function  
  ----- ------------  ---------------      ----- ------------  ---------------
   237      0.375751  30 C  s               277      0.375751  35 C  s         
   429     -0.351209  54 C  s               117     -0.351209  15 C  s         
   437     -0.339232  55 C  s               109     -0.339232  14 C  s         
   405     -0.329008  51 C  s               101     -0.329008  13 C  s         
   373     -0.312735  47 C  s               149     -0.312735  19 C  s         

 Vector  193  Occ=0.000000D+00  E= 4.830315D-01  Symmetry=hg
              MO Center=  7.4D-14, -1.3D-13, -6.7D-14, r^2= 1.8D+01
   Bfn.  Coefficient  Atom+Function         Bfn.  Coefficient  Atom+Function  
  ----- ------------  ---------------      ----- ------------  ---------------
   469      0.389979  59 C  s               325      0.389979  41 C  s         
   421      0.353487  53 C  s                85      0.353487  11 C  s         
   229     -0.350050  29 C  s               253     -0.350050  32 C  s         
   165     -0.330426  21 C  s               397     -0.330426  50 C  s         
   141     -0.310160  18 C  s               381     -0.310160  48 C  s         

 Vector  194  Occ=0.000000D+00  E= 4.873157D-01  Symmetry=hu
              MO Center=  1.8D-14, -1.4D-14, -6.8D-14, r^2= 1.7D+01
   Bfn.  Coefficient  Atom+Function         Bfn.  Coefficient  Atom+Function  
  ----- ------------  ---------------      ----- ------------  ---------------
   415      1.845939  52 C  py               95      1.845939  12 C  py        
   205     -1.779282  26 C  s                69      1.779282   9 C  s         
   221     -1.649913  28 C  s               261      1.649913  33 C  s         
   149      1.599611  19 C  s               373     -1.599611  47 C  s         
   303      1.380487  38 C  py                7      1.380487   1 C  py        

 Vector  195  Occ=0.000000D+00  E= 4.873157D-01  Symmetry=hu
              MO Center= -5.1D-14, -1.8D-14, -2.7D-14, r^2= 1.7D+01
   Bfn.  Coefficient  Atom+Function         Bfn.  Coefficient  Atom+Function  
  ----- ------------  ---------------      ----- ------------  ---------------
   429      1.800428  54 C  s               117     -1.800428  15 C  s         
   285     -1.568327  36 C  s                21      1.568327   3 C  s         
   400     -1.449126  50 C  pz              168     -1.449126  21 C  pz        
   173     -1.446754  22 C  s                61      1.446754   8 C  s         
   213      1.351155  27 C  s               269     -1.351155  34 C  s         

 Vector  196  Occ=0.000000D+00  E= 4.873157D-01  Symmetry=hu
              MO Center=  2.7D-13, -4.5D-13, -7.3D-14, r^2= 1.7D+01
   Bfn.  Coefficient  Atom+Function         Bfn.  Coefficient  Atom+Function  
  ----- ------------  ---------------      ----- ------------  ---------------
   109      1.747942  14 C  s               437     -1.747942  55 C  s         
    29     -1.572010   4 C  s               317      1.572010  40 C  s         
   445     -1.430779  56 C  s               349      1.430779  44 C  s         
    48      1.341745   6 C  pz              192      1.341745  24 C  pz        
   157     -1.319318  20 C  s               365      1.319318  46 C  s         

 Vector  197  Occ=0.000000D+00  E= 4.873157D-01  Symmetry=hu
              MO Center=  1.2D-13,  6.5D-14, -1.7D-13, r^2= 1.7D+01
   Bfn.  Coefficient  Atom+Function         Bfn.  Coefficient  Atom+Function  
  ----- ------------  ---------------      ----- ------------  ---------------
   189      1.644371  24 C  s                45     -1.644371   6 C  s         
   325      1.413206  41 C  s               469     -1.413206  59 C  s         
   133      1.402775  17 C  s               389     -1.402775  49 C  s         
   310      1.389497  39 C  px               38      1.389497   5 C  px        
   214     -1.366951  27 C  px              270     -1.366951  34 C  px        

 Vector  198  Occ=0.000000D+00  E= 4.873157D-01  Symmetry=hu
              MO Center=  7.8D-14, -1.4D-13, -6.8D-14, r^2= 1.7D+01
   Bfn.  Coefficient  Atom+Function         Bfn.  Coefficient  Atom+Function  
  ----- ------------  ---------------      ----- ------------  ---------------
   397     -1.671543  50 C  s               165      1.671543  21 C  s         
   181      1.576109  23 C  s                53     -1.576109   7 C  s         
   350     -1.500439  44 C  px              446     -1.500439  56 C  px        
    93      1.416272  12 C  s               413     -1.416272  52 C  s         
    14      1.392636   2 C  px              294      1.392636  37 C  px        

 Vector  199  Occ=0.000000D+00  E= 5.108897D-01  Symmetry=hg
              MO Center= -1.2D-13, -5.1D-14,  2.1D-14, r^2= 2.2D+01
   Bfn.  Coefficient  Atom+Function         Bfn.  Coefficient  Atom+Function  
  ----- ------------  ---------------      ----- ------------  ---------------
   237      0.990142  30 C  s               277      0.990142  35 C  s         
   477      0.894684  60 C  s               357      0.894684  45 C  s         
   341      0.866655  43 C  s               453      0.866655  57 C  s         
   261      0.773473  33 C  s               221      0.773473  28 C  s         
   213     -0.738631  27 C  s               269     -0.738631  34 C  s         


------------------------------------------------------------
EAF file 0: "./c60.aoints.0" size=184549376 bytes
------------------------------------------------------------
               write      read    awrite     aread      wait
               -----      ----    ------     -----      ----
     calls:      352        17         0      5967      5967
   data(b): 1.85e+08  8.91e+06  0.00e+00  3.13e+09
   time(s): 2.19e-01  7.02e-03  0.00e+00  1.58e+00  3.18e-03
rate(mb/s): 8.44e+02  1.27e+03  0.00e+00* 1.97e+03*
------------------------------------------------------------
* = Effective rate.  Full wait time used for read and write.


 center of mass
 --------------
 x =   0.00000000 y =   0.00000000 z =   0.00000000

 moments of inertia (a.u.)
 ------------------
       21417.006886203708           0.000000000000           0.000000000005
           0.000000000000       21417.006886203693           0.000000000001
           0.000000000005           0.000000000001       21417.006886203715

  Mulliken analysis of the total density
  --------------------------------------

    Atom       Charge   Shell Charges
 -----------   ------   -------------------------------------------------------
    1 C    4     4.00   1.13  2.57 -0.31  0.61
    2 C    4     4.00   1.13  2.57 -0.31  0.61
    3 C    4     4.00   1.13  2.57 -0.31  0.61
    4 C    4     4.00   1.13  2.57 -0.31  0.61
    5 C    4     4.00   1.13  2.57 -0.31  0.61
    6 C    4     4.00   1.13  2.57 -0.31  0.61
    7 C    4     4.00   1.13  2.57 -0.31  0.61
    8 C    4     4.00   1.13  2.57 -0.31  0.61
    9 C    4     4.00   1.13  2.57 -0.31  0.61
   10 C    4     4.00   1.13  2.57 -0.31  0.61
   11 C    4     4.00   1.13  2.57 -0.31  0.61
   12 C    4     4.00   1.13  2.57 -0.31  0.61
   13 C    4     4.00   1.13  2.57 -0.31  0.61
   14 C    4     4.00   1.13  2.57 -0.31  0.61
   15 C    4     4.00   1.13  2.57 -0.31  0.61
   16 C    4     4.00   1.13  2.57 -0.31  0.61
   17 C    4     4.00   1.13  2.57 -0.31  0.61
   18 C    4     4.00   1.13  2.57 -0.31  0.61
   19 C    4     4.00   1.13  2.57 -0.31  0.61
   20 C    4     4.00   1.13  2.57 -0.31  0.61
   21 C    4     4.00   1.13  2.57 -0.31  0.61
   22 C    4     4.00   1.13  2.57 -0.31  0.61
   23 C    4     4.00   1.13  2.57 -0.31  0.61
   24 C    4     4.00   1.13  2.57 -0.31  0.61
   25 C    4     4.00   1.13  2.57 -0.31  0.61
   26 C    4     4.00   1.13  2.57 -0.31  0.61
   27 C    4     4.00   1.13  2.57 -0.31  0.61
   28 C    4     4.00   1.13  2.57 -0.31  0.61
   29 C    4     4.00   1.13  2.57 -0.31  0.61
   30 C    4     4.00   1.13  2.57 -0.31  0.61
   31 C    4     4.00   1.13  2.57 -0.31  0.61
   32 C    4     4.00   1.13  2.57 -0.31  0.61
   33 C    4     4.00   1.13  2.57 -0.31  0.61
   34 C    4     4.00   1.13  2.57 -0.31  0.61
   35 C    4     4.00   1.13  2.57 -0.31  0.61
   36 C    4     4.00   1.13  2.57 -0.31  0.61
   37 C    4     4.00   1.13  2.57 -0.31  0.61
   38 C    4     4.00   1.13  2.57 -0.31  0.61
   39 C    4     4.00   1.13  2.57 -0.31  0.61
   40 C    4     4.00   1.13  2.57 -0.31  0.61
   41 C    4     4.00   1.13  2.57 -0.31  0.61
   42 C    4     4.00   1.13  2.57 -0.31  0.61
   43 C    4     4.00   1.13  2.57 -0.31  0.61
   44 C    4     4.00   1.13  2.57 -0.31  0.61
   45 C    4     4.00   1.13  2.57 -0.31  0.61
   46 C    4     4.00   1.13  2.57 -0.31  0.61
   47 C    4     4.00   1.13  2.57 -0.31  0.61
   48 C    4     4.00   1.13  2.57 -0.31  0.61
   49 C    4     4.00   1.13  2.57 -0.31  0.61
   50 C    4     4.00   1.13  2.57 -0.31  0.61
   51 C    4     4.00   1.13  2.57 -0.31  0.61
   52 C    4     4.00   1.13  2.57 -0.31  0.61
   53 C    4     4.00   1.13  2.57 -0.31  0.61
   54 C    4     4.00   1.13  2.57 -0.31  0.61
   55 C    4     4.00   1.13  2.57 -0.31  0.61
   56 C    4     4.00   1.13  2.57 -0.31  0.61
   57 C    4     4.00   1.13  2.57 -0.31  0.61
   58 C    4     4.00   1.13  2.57 -0.31  0.61
   59 C    4     4.00   1.13  2.57 -0.31  0.61
   60 C    4     4.00   1.13  2.57 -0.31  0.61

       Multipole analysis of the density wrt the origin
       ------------------------------------------------

     L   x y z        total         open         nuclear
     -   - - -        -----         ----         -------
     0   0 0 0      0.000000      0.000000    240.000000

     1   1 0 0      0.000000      0.000000      0.000000
     1   0 1 0      0.000000      0.000000      0.000000
     1   0 0 1      0.000000      0.000000      0.000000

     2   2 0 0   -268.728022      0.000000   3569.501148
     2   1 1 0      0.000000      0.000000      0.000000
     2   1 0 1      0.000000      0.000000      0.000000
     2   0 2 0   -268.728022      0.000000   3569.501148
     2   0 1 1      0.000000      0.000000      0.000000
     2   0 0 2   -268.728022      0.000000   3569.501148


 Parallel integral file used    1396 records with       0 large values


 Task  times  cpu:       64.0s     wall:       66.7s
 Summary of allocated global arrays
-----------------------------------
  No active global arrays



                         GA Statistics for process    0
                         ------------------------------

       create   destroy   get      put      acc     scatter   gather  read&inc
calls:  484      484     8.33e+04 2.79e+04 2.06e+06    0        0     1.94e+04 
number of processes/call 1.16e+00 1.10e+00 1.00e+00 0.00e+00 0.00e+00
bytes total:             5.77e+08 1.56e+08 1.08e+09 0.00e+00 0.00e+00 1.55e+05
bytes remote:            3.10e+08 5.61e+07 7.97e+08 0.00e+00 0.00e+00 0.00e+00
Max memory consumed for GA by this process: 6347776 bytes
MA_summarize_allocated_blocks: starting scan ...
MA_summarize_allocated_blocks: scan completed: 0 heap blocks, 0 stack blocks
MA usage statistics:

	allocation statistics:
					      heap	     stack
					      ----	     -----
	current number of blocks	         0	         0
	maximum number of blocks	        40	        14
	current total bytes		         0	         0
	maximum total bytes		    381800	  22521752
	maximum total K-bytes		       382	     22522
	maximum total M-bytes		         1	        23


                                NWChem Input Module
                                -------------------





                                     CITATION
                                     --------
                Please cite the following reference when publishing
                           results obtained with NWChem:

                 M. Valiev, E.J. Bylaska, N. Govind, K. Kowalski,
              T.P. Straatsma, H.J.J. van Dam, D. Wang, J. Nieplocha,
                        E. Apra, T.L. Windus, W.A. de Jong
                 "NWChem: a comprehensive and scalable open-source
                  solution for large scale molecular simulations"
                      Comput. Phys. Commun. 181, 1477 (2010)
                           doi:10.1016/j.cpc.2010.04.018

                              AUTHORS & CONTRIBUTORS
                              ----------------------
      E. J. Bylaska, W. A. de Jong, N. Govind, K. Kowalski, T. P. Straatsma,
     M. Valiev, H. J. J. Van Dam, D. Wang, E. Apra, T. L. Windus, J. Hammond,
     J. Autschbach, P. Nichols, S. Hirata, M. T. Hackler, Y. Zhao, P.-D. Fan,
      R. J. Harrison, M. Dupuis, D. M. A. Smith, J. Nieplocha, V. Tipparaju,
          M. Krishnan, A. Vazquez-Mayagoitia, L. Jensen, M. Swart, Q. Wu,
          T. Van Voorhis, A. A. Auer, M. Nooijen, L. D. Crosby, E. Brown,
             G. Cisneros, G. I. Fann, H. Fruchtl, J. Garza, K. Hirao,
        R. Kendall, J. A. Nichols, K. Tsemekhman, K. Wolinski, J. Anchell,
       D. Bernholdt, P. Borowski, T. Clark, D. Clerc, H. Dachsel, M. Deegan,
        K. Dyall, D. Elwood, E. Glendening, M. Gutowski, A. Hess, J. Jaffe,
        B. Johnson, J. Ju, R. Kobayashi, R. Kutteh, Z. Lin, R. Littlefield,
    X. Long, B. Meng, T. Nakajima, S. Niu, L. Pollack, M. Rosing, G. Sandrone,
       M. Stave, H. Taylor, G. Thomas, J. H. van Lenthe, A. Wong, Z. Zhang.

 Total times  cpu:       64.0s     wall:       66.8s
