 argument  1 = fukui.nw
                                         
                                         


              Northwest Computational Chemistry Package (NWChem) 6.0
              ------------------------------------------------------


                    Environmental Molecular Sciences Laboratory
                       Pacific Northwest National Laboratory
                                Richland, WA 99352

                              Copyright (c) 1994-2010
                       Pacific Northwest National Laboratory
                            Battelle Memorial Institute

             NWChem is an open-source computational chemistry package
                        distributed under the terms of the
                      Educational Community License (ECL) 2.0
             A copy of the license is included with this distribution
                              in the LICENSE.TXT file

                                  ACKNOWLEDGMENT
                                  --------------

            This software and its documentation were developed at the
            EMSL at Pacific Northwest National Laboratory, a multiprogram
            national laboratory, operated for the U.S. Department of Energy
            by Battelle under Contract Number DE-AC05-76RL01830. Support
            for this work was provided by the Department of Energy Office
            of Biological and Environmental Research, Office of Basic
            Energy Sciences, and the Office of Advanced Scientific Computing.


           Job information
           ---------------

    hostname      = cyclops
    program       = /home/mw529/code/NWChem/nwchem-6.0/bin/LINUX64/nwchem
    date          = Fri May 13 17:54:33 2011

    compiled      = Fri_May_13_09:22:53_2011
    source        = /home/mw529/code/NWChem/nwchem-6.0
    nwchem branch = 6.0
    input         = fukui.nw
    prefix        = john_fukui.
    data base     = ./john_fukui.db
    status        = startup
    nproc         =        1
    time left     =     -1s



           Memory information
           ------------------

    heap     =   13107201 doubles =    100.0 Mbytes
    stack    =   13107201 doubles =    100.0 Mbytes
    global   =   26214400 doubles =    200.0 Mbytes (distinct from heap & stack)
    total    =   52428802 doubles =    400.0 Mbytes
    verify   = yes
    hardfail = no 


           Directory information
           ---------------------

  0 permanent = .
  0 scratch   = .




                                NWChem Input Module
                                -------------------


                             John's example for Fukui
                             ------------------------

 Scaling coordinates for geometry "geometry" by  1.889725989
 (inverse scale =  0.529177249)



                             Geometry "geometry" -> ""
                             -------------------------

 Output coordinates in angstroms (scale by  1.889725989 to convert to a.u.)

  No.       Tag          Charge          X              Y              Z
 ---- ---------------- ---------- -------------- -------------- --------------
    1 C                    6.0000    -2.78740000     1.00930000     0.03500000
    2 C                    6.0000    -3.37650000    -0.26050000     0.04900000
    3 C                    6.0000    -2.55600000    -1.39830000     0.03010000
    4 C                    6.0000    -1.14940000    -1.30680000    -0.00980000
    5 C                    6.0000    -0.52930000    -0.00610000    -0.02200000
    6 C                    6.0000    -1.38970000     1.12470000     0.01190000
    7 O                    8.0000    -0.58170000    -2.56950000    -0.07910000
    8 C                    6.0000     0.80560000    -2.82550000    -0.03850000
    9 C                    6.0000     0.99190000     0.21190000    -0.13240000
   10 C                    6.0000     1.67520000     1.49830000     0.39960000
   11 N                    7.0000     3.10630000     1.28490000     0.21750000
   12 C                    6.0000     1.34930000     2.83040000    -0.30120000
   13 H                    1.0000    -3.40840000     1.89290000     0.04190000
   14 H                    1.0000    -4.45190000    -0.35650000     0.07420000
   15 H                    1.0000    -2.99840000    -2.38340000     0.04620000
   16 H                    1.0000    -0.92830000     2.10110000     0.01960000
   17 H                    1.0000     0.97970000    -3.89910000    -0.11060000
   18 H                    1.0000     1.29310000    -2.32200000    -0.87330000
   19 H                    1.0000     1.21690000    -2.45350000     0.89990000
   20 H                    1.0000     1.51300000    -0.58110000     0.40380000
   21 H                    1.0000     1.28660000     0.19490000    -1.18170000
   22 H                    1.0000     1.44990000     1.61840000     1.45930000
   23 H                    1.0000     3.61250000     2.09420000     0.54760000
   24 H                    1.0000     3.39510000     0.47110000     0.74130000
   25 H                    1.0000     1.89990000     3.63880000     0.17990000
   26 H                    1.0000     1.63750000     2.76940000    -1.35060000
   27 H                    1.0000     0.27960000     3.02700000    -0.22950000

      Atomic Mass 
      ----------- 

      C                 12.000000
      O                 15.994910
      N                 14.003070
      H                  1.007825


 Effective nuclear repulsion energy (a.u.)     696.3904688786

            Nuclear Dipole moment (a.u.) 
            ----------------------------
        X                 Y               Z
 ---------------- ---------------- ----------------
   -33.8837318382    -0.9167060771     3.1896684961


            XYZ format geometry
            -------------------
    27
 geometry
 C                    -2.78740000     1.00930000     0.03500000
 C                    -3.37650000    -0.26050000     0.04900000
 C                    -2.55600000    -1.39830000     0.03010000
 C                    -1.14940000    -1.30680000    -0.00980000
 C                    -0.52930000    -0.00610000    -0.02200000
 C                    -1.38970000     1.12470000     0.01190000
 O                    -0.58170000    -2.56950000    -0.07910000
 C                     0.80560000    -2.82550000    -0.03850000
 C                     0.99190000     0.21190000    -0.13240000
 C                     1.67520000     1.49830000     0.39960000
 N                     3.10630000     1.28490000     0.21750000
 C                     1.34930000     2.83040000    -0.30120000
 H                    -3.40840000     1.89290000     0.04190000
 H                    -4.45190000    -0.35650000     0.07420000
 H                    -2.99840000    -2.38340000     0.04620000
 H                    -0.92830000     2.10110000     0.01960000
 H                     0.97970000    -3.89910000    -0.11060000
 H                     1.29310000    -2.32200000    -0.87330000
 H                     1.21690000    -2.45350000     0.89990000
 H                     1.51300000    -0.58110000     0.40380000
 H                     1.28660000     0.19490000    -1.18170000
 H                     1.44990000     1.61840000     1.45930000
 H                     3.61250000     2.09420000     0.54760000
 H                     3.39510000     0.47110000     0.74130000
 H                     1.89990000     3.63880000     0.17990000
 H                     1.63750000     2.76940000    -1.35060000
 H                     0.27960000     3.02700000    -0.22950000

 ==============================================================================
                                internuclear distances
 ------------------------------------------------------------------------------
       center one      |      center two      | atomic units |  angstroms
 ------------------------------------------------------------------------------
    2 C                |   1 C                |     2.64536  |     1.39987
    3 C                |   2 C                |     2.65112  |     1.40291
    4 C                |   3 C                |     2.66477  |     1.41014
    5 C                |   4 C                |     2.72310  |     1.44100
    6 C                |   1 C                |     2.65062  |     1.40265
    6 C                |   5 C                |     2.68590  |     1.42132
    7 O                |   4 C                |     2.61950  |     1.38618
    8 C                |   7 O                |     2.66698  |     1.41131
    9 C                |   5 C                |     2.91150  |     1.54070
   10 C                |   9 C                |     2.93045  |     1.55072
   11 N                |  10 C                |     2.75586  |     1.45834
   12 C                |  10 C                |     2.91031  |     1.54007
   13 H                |   1 C                |     2.04094  |     1.08002
   14 H                |   2 C                |     2.04085  |     1.07997
   15 H                |   3 C                |     2.04090  |     1.08000
   16 H                |   6 C                |     2.04082  |     1.07996
   17 H                |   8 C                |     2.05982  |     1.09001
   18 H                |   8 C                |     2.05977  |     1.08998
   19 H                |   8 C                |     2.05984  |     1.09002
   20 H                |   9 C                |     2.05963  |     1.08991
   21 H                |   9 C                |     2.05986  |     1.09003
   22 H                |  10 C                |     2.05984  |     1.09002
   23 H                |  11 N                |     1.90869  |     1.01004
   24 H                |  11 N                |     1.90857  |     1.00997
   25 H                |  12 C                |     2.05983  |     1.09001
   26 H                |  12 C                |     2.05973  |     1.08996
   27 H                |  12 C                |     2.05976  |     1.08998
 ------------------------------------------------------------------------------
                         number of included internuclear distances:         27
 ==============================================================================



 ==============================================================================
                                 internuclear angles
 ------------------------------------------------------------------------------
        center 1       |       center 2       |       center 3       |  degrees
 ------------------------------------------------------------------------------
    2 C                |   1 C                |   6 C                |   119.61
    2 C                |   1 C                |  13 H                |   120.01
    6 C                |   1 C                |  13 H                |   120.38
    1 C                |   2 C                |   3 C                |   119.30
    1 C                |   2 C                |  14 H                |   119.99
    3 C                |   2 C                |  14 H                |   120.70
    2 C                |   3 C                |   4 C                |   122.08
    2 C                |   3 C                |  15 H                |   120.00
    4 C                |   3 C                |  15 H                |   117.92
    3 C                |   4 C                |   5 C                |   119.21
    3 C                |   4 C                |   7 O                |   110.54
    5 C                |   4 C                |   7 O                |   130.21
    4 C                |   5 C                |   6 C                |   117.22
    4 C                |   5 C                |   9 C                |   123.59
    6 C                |   5 C                |   9 C                |   119.13
    1 C                |   6 C                |   5 C                |   122.56
    1 C                |   6 C                |  16 H                |   120.00
    5 C                |   6 C                |  16 H                |   117.44
    4 C                |   7 O                |   8 C                |   124.50
    7 O                |   8 C                |  17 H                |   109.50
    7 O                |   8 C                |  18 H                |   109.50
    7 O                |   8 C                |  19 H                |   109.50
   17 H                |   8 C                |  18 H                |   109.44
   17 H                |   8 C                |  19 H                |   109.44
   18 H                |   8 C                |  19 H                |   109.45
    5 C                |   9 C                |  10 C                |   121.86
    5 C                |   9 C                |  20 H                |   109.50
    5 C                |   9 C                |  21 H                |   109.49
   10 C                |   9 C                |  20 H                |   102.95
   10 C                |   9 C                |  21 H                |   102.95
   20 H                |   9 C                |  21 H                |   109.45
    9 C                |  10 C                |  11 N                |   105.56
    9 C                |  10 C                |  12 C                |   117.92
    9 C                |  10 C                |  22 H                |   109.50
   11 N                |  10 C                |  12 C                |   106.11
   11 N                |  10 C                |  22 H                |   109.90
   12 C                |  10 C                |  22 H                |   107.66
   10 C                |  11 N                |  23 H                |   109.50
   10 C                |  11 N                |  24 H                |   109.50
   23 H                |  11 N                |  24 H                |   109.44
   10 C                |  12 C                |  25 H                |   109.50
   10 C                |  12 C                |  26 H                |   109.50
   10 C                |  12 C                |  27 H                |   109.50
   25 H                |  12 C                |  26 H                |   109.44
   25 H                |  12 C                |  27 H                |   109.45
   26 H                |  12 C                |  27 H                |   109.45
 ------------------------------------------------------------------------------
                            number of included internuclear angles:         46
 ==============================================================================



  library name resolved from: .nwchemrc
  library file name is: </usr/local/shared/redhat-5.4/x86_64/NWChem/6.0/data/libraries/>
  
                      Basis "ao basis" -> "" (cartesian)
                      -----
  H (Hydrogen)
  ------------
            Exponent  Coefficients 
       -------------- ---------------------------------------------------------
  1 S  1.87311370E+01  0.033495
  1 S  2.82539370E+00  0.234727
  1 S  6.40121700E-01  0.813757

  2 S  1.61277800E-01  1.000000

  3 P  1.10000000E+00  1.000000

  O (Oxygen)
  ----------
            Exponent  Coefficients 
       -------------- ---------------------------------------------------------
  1 S  5.48467170E+03  0.001831
  1 S  8.25234950E+02  0.013950
  1 S  1.88046960E+02  0.068445
  1 S  5.29645000E+01  0.232714
  1 S  1.68975700E+01  0.470193
  1 S  5.79963530E+00  0.358521

  2 S  1.55396160E+01 -0.110778
  2 S  3.59993360E+00 -0.148026
  2 S  1.01376180E+00  1.130767

  3 P  1.55396160E+01  0.070874
  3 P  3.59993360E+00  0.339753
  3 P  1.01376180E+00  0.727159

  4 S  2.70005800E-01  1.000000

  5 P  2.70005800E-01  1.000000

  6 D  8.00000000E-01  1.000000

  C (Carbon)
  ----------
            Exponent  Coefficients 
       -------------- ---------------------------------------------------------
  1 S  3.04752490E+03  0.001835
  1 S  4.57369510E+02  0.014037
  1 S  1.03948690E+02  0.068843
  1 S  2.92101550E+01  0.232184
  1 S  9.28666300E+00  0.467941
  1 S  3.16392700E+00  0.362312

  2 S  7.86827240E+00 -0.119332
  2 S  1.88128850E+00 -0.160854
  2 S  5.44249300E-01  1.143456

  3 P  7.86827240E+00  0.068999
  3 P  1.88128850E+00  0.316424
  3 P  5.44249300E-01  0.744308

  4 S  1.68714400E-01  1.000000

  5 P  1.68714400E-01  1.000000

  6 D  8.00000000E-01  1.000000

  N (Nitrogen)
  ------------
            Exponent  Coefficients 
       -------------- ---------------------------------------------------------
  1 S  4.17351100E+03  0.001835
  1 S  6.27457900E+02  0.013995
  1 S  1.42902100E+02  0.068587
  1 S  4.02343300E+01  0.232241
  1 S  1.28202100E+01  0.469070
  1 S  4.39043700E+00  0.360455

  2 S  1.16263580E+01 -0.114961
  2 S  2.71628000E+00 -0.169118
  2 S  7.72218000E-01  1.145852

  3 P  1.16263580E+01  0.067580
  3 P  2.71628000E+00  0.323907
  3 P  7.72218000E-01  0.740895

  4 S  2.12031300E-01  1.000000

  5 P  2.12031300E-01  1.000000

  6 D  8.00000000E-01  1.000000



 Summary of "ao basis" -> "" (cartesian)
 ------------------------------------------------------------------------------
       Tag                 Description            Shells   Functions and Types
 ---------------- ------------------------------  ------  ---------------------
 H                          6-31g**                  3        5   2s1p
 O                          6-31g**                  6       15   3s2p1d
 C                          6-31g**                  6       15   3s2p1d
 N                          6-31g**                  6       15   3s2p1d



                                 NWChem DFT Module
                                 -----------------


                             John's example for Fukui


  Caching 1-el integrals 

            General Information
            -------------------
          SCF calculation type: DFT
          Wavefunction type:  closed shell.
          No. of atoms     :    27
          No. of electrons :    90
           Alpha electrons :    45
            Beta electrons :    45
          Charge           :     0
          Spin multiplicity:     1
          Use of symmetry is: off; symmetry adaption is: off
          Maximum number of iterations:  30
          AO basis - number of functions:   255
                     number of shells:   117
          Convergence on energy requested: 1.00D-06
          Convergence on density requested: 1.00D-05
          Convergence on gradient requested: 5.00D-04

              XC Information
              --------------
                         B3LYP Method XC Potential
                     Hartree-Fock (Exact) Exchange  0.200          
                        Slater Exchange Functional  0.800 local    
                    Becke 1988 Exchange Functional  0.720 non-local
              Lee-Yang-Parr Correlation Functional  0.810          
                  VWN I RPA Correlation Functional  0.190 local    

             Grid Information
             ----------------
          Grid used for XC integration:  medium    
          Radial quadrature: Mura-Knowles        
          Angular quadrature: Lebedev. 
          Tag              B.-S. Rad. Rad. Pts. Rad. Cut. Ang. Pts.
          ---              ---------- --------- --------- ---------
          C                   0.70       49          14.0       434
          O                   0.60       49          13.0       434
          N                   0.65       49          14.0       434
          H                   0.35       45          14.0       434
          Grid pruning is: on 
          Number of quadrature shells:  1263
          Spatial weights used:  Erf1

          Convergence Information
          -----------------------
          Convergence aids based upon iterative change in 
          total energy or number of iterations. 
          Levelshifting, if invoked, occurs when the 
          HOMO/LUMO gap drops below (HL_TOL): 1.00D-02
          DIIS, if invoked, will attempt to extrapolate 
          using up to (NFOCK): 10 stored Fock matrices.

                    Damping( 0%)  Levelshifting(0.5)       DIIS
                  --------------- ------------------- ---------------
          dE  on:    start            ASAP                start   
          dE off:    2 iters         30 iters            30 iters 


      Screening Tolerance Information
      -------------------------------
          Density screening/tol_rho: 1.00D-10
          AO Gaussian exp screening on grid/accAOfunc:  14
          CD Gaussian exp screening on grid/accCDfunc:  20
          XC Gaussian exp screening on grid/accXCfunc:  20
          Schwarz screening/accCoul: 1.00D-08


      Superposition of Atomic Density Guess
      -------------------------------------

 Sum of atomic energies:        -513.12412005

      Non-variational initial energy
      ------------------------------

 Total energy =    -521.182610
 1-e energy   =   -2075.059717
 2-e energy   =     857.486638
 HOMO         =      -0.230225
 LUMO         =       0.011530

   Time after variat. SCF:      8.9
   Time prior to 1st pass:      8.9

 Integral file          = ./john_fukui.aoints.0
 Record size in doubles =  65536        No. of integs per rec  =  43688
 Max. records in memory =      0        Max. records in file   =  28026
 No. of bits per label  =      8        No. of bits per value  =     64


 #quartets = 1.067D+07 #integrals = 1.756D+08 #direct =  0.0% #cached =100.0%


 Grid_pts file          = ./john_fukui.gridpts.0
 Record size in doubles =  12289        No. of grid_pts per rec  =   3070
 Max. records in memory =    198        Max. recs in file   =    129078


           Memory utilization after 1st SCF pass: 
           Heap Space remaining (MW):       10.61            10612590
          Stack Space remaining (MW):       13.10            13104951

   convergence    iter        energy       DeltaE   RMS-Dens  Diis-err    time
 ---------------- ----- ----------------- --------- --------- ---------  ------
 d= 0,ls=0.0,diis     1   -519.8956660183 -1.22D+03  5.62D-03  1.58D+00    77.4
 d= 0,ls=0.0,diis     2   -519.9626205286 -6.70D-02  3.89D-03  7.89D-01   102.1
 d= 0,ls=0.0,diis     3   -520.0070499498 -4.44D-02  2.03D-03  3.61D-01   126.7
 d= 0,ls=0.0,diis     4   -520.0479451323 -4.09D-02  5.29D-04  2.50D-02   151.4
 d= 0,ls=0.0,diis     5   -520.0512254523 -3.28D-03  1.19D-04  1.38D-03   175.5
 d= 0,ls=0.0,diis     6   -520.0513707451 -1.45D-04  4.38D-05  1.37D-04   199.8
 d= 0,ls=0.0,diis     7   -520.0513852310 -1.45D-05  1.27D-05  1.57D-05   224.1
 d= 0,ls=0.0,diis     8   -520.0513868944 -1.66D-06  3.20D-06  1.22D-06   248.7
 d= 0,ls=0.0,diis     9   -520.0513870313 -1.37D-07  9.65D-07  4.50D-08   273.0


         Total DFT energy =     -520.051387031316
      One electron energy =    -2085.144477967679
           Coulomb energy =      944.117695138407
    Exchange-Corr. energy =      -75.415073080615
 Nuclear repulsion energy =      696.390468878571

 Numeric. integr. density =       89.999983517320

     Total iterative time =    264.1s



                       DFT Final Molecular Orbital Analysis
                       ------------------------------------

 Vector   12  Occ=2.000000D+00  E=-1.017317D+01
              MO Center=  1.3D+00,  2.8D+00, -3.0D-01, r^2= 2.8D-02
   Bfn.  Coefficient  Atom+Function         Bfn.  Coefficient  Atom+Function  
  ----- ------------  ---------------      ----- ------------  ---------------
   166      0.992973  12 C  s         

 Vector   13  Occ=2.000000D+00  E=-1.049326D+00
              MO Center= -4.8D-01, -2.4D+00, -6.1D-02, r^2= 7.0D-01
   Bfn.  Coefficient  Atom+Function         Bfn.  Coefficient  Atom+Function  
  ----- ------------  ---------------      ----- ------------  ---------------
    96      0.481823   7 O  s                92      0.432714   7 O  s         
    91     -0.200892   7 O  s         

 Vector   14  Occ=2.000000D+00  E=-8.912179D-01
              MO Center=  2.6D+00,  1.3D+00,  3.4D-01, r^2= 1.4D+00
   Bfn.  Coefficient  Atom+Function         Bfn.  Coefficient  Atom+Function  
  ----- ------------  ---------------      ----- ------------  ---------------
   152      0.345994  11 N  s               156      0.344134  11 N  s         
   137      0.207887  10 C  s               151     -0.169218  11 N  s         

 Vector   15  Occ=2.000000D+00  E=-8.374244D-01
              MO Center= -1.7D+00, -1.7D-01,  1.3D-02, r^2= 3.2D+00
   Bfn.  Coefficient  Atom+Function         Bfn.  Coefficient  Atom+Function  
  ----- ------------  ---------------      ----- ------------  ---------------
    62     -0.188816   5 C  s                77     -0.178556   6 C  s         
     2     -0.168309   1 C  s                17     -0.167411   2 C  s         
    32     -0.167220   3 C  s                47     -0.165758   4 C  s         

 Vector   16  Occ=2.000000D+00  E=-7.685775D-01
              MO Center= -4.1D-02,  2.2D-01,  2.4D-02, r^2= 6.1D+00
   Bfn.  Coefficient  Atom+Function         Bfn.  Coefficient  Atom+Function  
  ----- ------------  ---------------      ----- ------------  ---------------
   122      0.218618   9 C  s               126      0.176472   9 C  s         
    62      0.172890   5 C  s               156     -0.168546  11 N  s         
    17     -0.153684   2 C  s         

 Vector   17  Occ=2.000000D+00  E=-7.494487D-01
              MO Center= -1.2D+00, -1.0D+00, -9.5D-03, r^2= 5.4D+00
   Bfn.  Coefficient  Atom+Function         Bfn.  Coefficient  Atom+Function  
  ----- ------------  ---------------      ----- ------------  ---------------
   107      0.220736   8 C  s                47     -0.215916   4 C  s         
     2      0.208593   1 C  s                93      0.166025   7 O  px        
   111      0.164984   8 C  s                 6      0.155297   1 C  s         
    51     -0.153039   4 C  s         

 Vector   18  Occ=2.000000D+00  E=-7.236692D-01
              MO Center=  7.3D-01,  1.6D+00, -2.6D-02, r^2= 6.1D+00
   Bfn.  Coefficient  Atom+Function         Bfn.  Coefficient  Atom+Function  
  ----- ------------  ---------------      ----- ------------  ---------------
   167     -0.274837  12 C  s               171     -0.237469  12 C  s         
   156      0.168544  11 N  s         

 Vector   19  Occ=2.000000D+00  E=-6.995806D-01
              MO Center= -5.5D-01, -2.3D-01, -3.2D-02, r^2= 7.3D+00
   Bfn.  Coefficient  Atom+Function         Bfn.  Coefficient  Atom+Function  
  ----- ------------  ---------------      ----- ------------  ---------------
    77      0.187303   6 C  s               107     -0.173359   8 C  s         
   122     -0.165987   9 C  s                32     -0.158973   3 C  s         
   111     -0.150592   8 C  s         

 Vector   20  Occ=2.000000D+00  E=-6.694666D-01
              MO Center= -7.1D-02, -3.7D-01, -3.5D-02, r^2= 7.6D+00
   Bfn.  Coefficient  Atom+Function         Bfn.  Coefficient  Atom+Function  
  ----- ------------  ---------------      ----- ------------  ---------------
   107      0.197433   8 C  s               111      0.181102   8 C  s         
   122     -0.172108   9 C  s               126     -0.159384   9 C  s         
    96     -0.150575   7 O  s         

 Vector   21  Occ=2.000000D+00  E=-5.990565D-01
              MO Center= -1.0D+00,  1.9D-01,  3.2D-02, r^2= 6.7D+00
   Bfn.  Coefficient  Atom+Function         Bfn.  Coefficient  Atom+Function  
  ----- ------------  ---------------      ----- ------------  ---------------
    77     -0.177137   6 C  s                32     -0.172376   3 C  s         
    48      0.172029   4 C  px        

 Vector   22  Occ=2.000000D+00  E=-5.845127D-01
              MO Center= -1.0D+00, -4.4D-01,  4.0D-02, r^2= 7.2D+00
   Bfn.  Coefficient  Atom+Function         Bfn.  Coefficient  Atom+Function  
  ----- ------------  ---------------      ----- ------------  ---------------
    47     -0.181841   4 C  s                 2     -0.170899   1 C  s         
    33     -0.166527   3 C  px               78      0.160065   6 C  px        

 Vector   23  Occ=2.000000D+00  E=-5.652617D-01
              MO Center=  6.2D-01,  7.1D-01,  1.1D-01, r^2= 6.7D+00
   Bfn.  Coefficient  Atom+Function         Bfn.  Coefficient  Atom+Function  
  ----- ------------  ---------------      ----- ------------  ---------------
   141      0.219812  10 C  s               137      0.214657  10 C  s         

 Vector   24  Occ=2.000000D+00  E=-5.169668D-01
              MO Center= -7.6D-01, -6.5D-01,  9.2D-03, r^2= 7.5D+00
   Bfn.  Coefficient  Atom+Function         Bfn.  Coefficient  Atom+Function  
  ----- ------------  ---------------      ----- ------------  ---------------
    94     -0.226907   7 O  py              108     -0.191762   8 C  px        
    18      0.168081   2 C  px               49      0.159662   4 C  py        
    93      0.159153   7 O  px        

 Vector   25  Occ=2.000000D+00  E=-4.922484D-01
              MO Center=  2.0D+00,  1.1D+00,  2.1D-01, r^2= 5.7D+00
   Bfn.  Coefficient  Atom+Function         Bfn.  Coefficient  Atom+Function  
  ----- ------------  ---------------      ----- ------------  ---------------
   154      0.356559  11 N  py              236     -0.197371  24 H  s         
   158      0.162396  11 N  py              231      0.161721  23 H  s         

 Vector   26  Occ=2.000000D+00  E=-4.813509D-01
              MO Center=  9.3D-02,  4.6D-01,  1.0D-01, r^2= 8.1D+00
   Bfn.  Coefficient  Atom+Function         Bfn.  Coefficient  Atom+Function  
  ----- ------------  ---------------      ----- ------------  ---------------
   140     -0.198366  10 C  pz        

 Vector   27  Occ=2.000000D+00  E=-4.763616D-01
              MO Center= -4.4D-01, -1.2D+00,  8.9D-03, r^2= 7.6D+00
   Bfn.  Coefficient  Atom+Function         Bfn.  Coefficient  Atom+Function  
  ----- ------------  ---------------      ----- ------------  ---------------
   109      0.249906   8 C  py                3      0.176673   1 C  px        
    19     -0.166594   2 C  py               93      0.165084   7 O  px        
   201     -0.156465  17 H  s                33     -0.155331   3 C  px        

 Vector   28  Occ=2.000000D+00  E=-4.646074D-01
              MO Center=  2.2D-01, -2.0D+00,  1.2D-02, r^2= 4.2D+00
   Bfn.  Coefficient  Atom+Function         Bfn.  Coefficient  Atom+Function  
  ----- ------------  ---------------      ----- ------------  ---------------
   110      0.347165   8 C  pz               95      0.281004   7 O  pz        
   211      0.174590  19 H  s                99      0.171630   7 O  pz        
   206     -0.153959  18 H  s         

 Vector   29  Occ=2.000000D+00  E=-4.600581D-01
              MO Center= -5.7D-01,  2.4D-01,  8.7D-02, r^2= 9.7D+00
   Bfn.  Coefficient  Atom+Function         Bfn.  Coefficient  Atom+Function  
  ----- ------------  ---------------      ----- ------------  ---------------
     4      0.206803   1 C  py               18     -0.188279   2 C  px        
   153     -0.164701  11 N  px        

 Vector   30  Occ=2.000000D+00  E=-4.405555D-01
              MO Center=  2.2D-01,  9.6D-01, -2.6D-02, r^2= 8.1D+00
   Bfn.  Coefficient  Atom+Function         Bfn.  Coefficient  Atom+Function  
  ----- ------------  ---------------      ----- ------------  ---------------
   168      0.193205  12 C  px               79     -0.184030   6 C  py        
    34     -0.158918   3 C  py               66      0.157954   5 C  s         

 Vector   31  Occ=2.000000D+00  E=-4.251167D-01
              MO Center= -2.8D-01, -6.8D-01,  1.3D-02, r^2= 8.7D+00
   Bfn.  Coefficient  Atom+Function         Bfn.  Coefficient  Atom+Function  
  ----- ------------  ---------------      ----- ------------  ---------------
   109     -0.256151   8 C  py               79      0.166677   6 C  py        
    64     -0.152978   5 C  py        

 Vector   32  Occ=2.000000D+00  E=-4.130829D-01
              MO Center= -5.4D-01, -5.4D-01,  1.6D-02, r^2= 7.3D+00
   Bfn.  Coefficient  Atom+Function         Bfn.  Coefficient  Atom+Function  
  ----- ------------  ---------------      ----- ------------  ---------------
    48     -0.235340   4 C  px               33      0.232091   3 C  px        
    78      0.209250   6 C  px                3     -0.186536   1 C  px        
   109      0.185181   8 C  py        

 Vector   33  Occ=2.000000D+00  E=-4.001328D-01
              MO Center=  1.1D+00,  1.3D+00, -3.0D-01, r^2= 5.0D+00
   Bfn.  Coefficient  Atom+Function         Bfn.  Coefficient  Atom+Function  
  ----- ------------  ---------------      ----- ------------  ---------------
   125     -0.279916   9 C  pz              170      0.263036  12 C  pz        
   221      0.171094  21 H  s               246     -0.159996  26 H  s         

 Vector   34  Occ=2.000000D+00  E=-3.889784D-01
              MO Center= -9.5D-01,  3.2D-01,  5.6D-02, r^2= 8.1D+00
   Bfn.  Coefficient  Atom+Function         Bfn.  Coefficient  Atom+Function  
  ----- ------------  ---------------      ----- ------------  ---------------
    18      0.273853   2 C  px               63      0.225003   5 C  px        
   153     -0.203377  11 N  px              123     -0.195388   9 C  px        
   138      0.176410  10 C  px              187     -0.174517  14 H  s         
    34      0.174182   3 C  py              186     -0.169336  14 H  s         
    79      0.163067   6 C  py        

 Vector   35  Occ=2.000000D+00  E=-3.734769D-01
              MO Center= -1.4D-01,  1.2D+00, -8.6D-02, r^2= 9.1D+00
   Bfn.  Coefficient  Atom+Function         Bfn.  Coefficient  Atom+Function  
  ----- ------------  ---------------      ----- ------------  ---------------
   168      0.277674  12 C  px               34      0.198527   3 C  py        
   251     -0.197735  27 H  s               252     -0.188420  27 H  s         
     4      0.175567   1 C  py               19     -0.166923   2 C  py        
   153      0.162047  11 N  px              192     -0.150985  15 H  s         

 Vector   36  Occ=2.000000D+00  E=-3.658831D-01
              MO Center= -5.8D-01, -5.1D-01, -1.9D-02, r^2= 6.9D+00
   Bfn.  Coefficient  Atom+Function         Bfn.  Coefficient  Atom+Function  
  ----- ------------  ---------------      ----- ------------  ---------------
    50     -0.248630   4 C  pz               95     -0.191091   7 O  pz        
   110      0.175997   8 C  pz               35     -0.175822   3 C  pz        
    65     -0.156743   5 C  pz              170     -0.154919  12 C  pz        

 Vector   37  Occ=2.000000D+00  E=-3.524144D-01
              MO Center= -7.3D-01,  8.7D-01, -1.3D-02, r^2= 7.7D+00
   Bfn.  Coefficient  Atom+Function         Bfn.  Coefficient  Atom+Function  
  ----- ------------  ---------------      ----- ------------  ---------------
     4     -0.204933   1 C  py               19      0.202342   2 C  py        
   182     -0.178578  13 H  s                79      0.164814   6 C  py        
    63      0.160898   5 C  px              181     -0.160667  13 H  s         
    34     -0.152957   3 C  py        

 Vector   38  Occ=2.000000D+00  E=-3.468019D-01
              MO Center=  8.6D-01,  5.0D-01,  2.1D-02, r^2= 7.4D+00
   Bfn.  Coefficient  Atom+Function         Bfn.  Coefficient  Atom+Function  
  ----- ------------  ---------------      ----- ------------  ---------------
   139     -0.258788  10 C  py              169      0.251597  12 C  py        
    94      0.199651   7 O  py              140      0.166804  10 C  pz        
   170     -0.162079  12 C  pz               93      0.158257   7 O  px        
   124      0.153527   9 C  py        

 Vector   39  Occ=2.000000D+00  E=-3.426221D-01
              MO Center=  2.2D-01,  2.6D-01, -4.6D-02, r^2= 8.3D+00
   Bfn.  Coefficient  Atom+Function         Bfn.  Coefficient  Atom+Function  
  ----- ------------  ---------------      ----- ------------  ---------------
   140      0.184917  10 C  pz              125     -0.167653   9 C  pz        
    93     -0.166583   7 O  px        

 Vector   40  Occ=2.000000D+00  E=-3.260756D-01
              MO Center= -3.8D-01,  4.8D-01, -3.6D-03, r^2= 6.7D+00
   Bfn.  Coefficient  Atom+Function         Bfn.  Coefficient  Atom+Function  
  ----- ------------  ---------------      ----- ------------  ---------------
    78     -0.236510   6 C  px              123     -0.234014   9 C  px        
    63      0.224740   5 C  px                3      0.217376   1 C  px        

 Vector   41  Occ=2.000000D+00  E=-3.086002D-01
              MO Center= -9.4D-01, -8.5D-01,  1.3D-02, r^2= 6.3D+00
   Bfn.  Coefficient  Atom+Function         Bfn.  Coefficient  Atom+Function  
  ----- ------------  ---------------      ----- ------------  ---------------
    95     -0.294019   7 O  pz               99     -0.215871   7 O  pz        
     5      0.209027   1 C  pz               20      0.171139   2 C  pz        
    80      0.168504   6 C  pz               94     -0.159948   7 O  py        
   212      0.155544  19 H  s         

 Vector   42  Occ=2.000000D+00  E=-3.032827D-01
              MO Center= -6.3D-01, -9.3D-01, -3.4D-02, r^2= 6.6D+00
   Bfn.  Coefficient  Atom+Function         Bfn.  Coefficient  Atom+Function  
  ----- ------------  ---------------      ----- ------------  ---------------
    94      0.241979   7 O  py               95     -0.210893   7 O  pz        
    93      0.190159   7 O  px               98      0.185124   7 O  py        
    64      0.170768   5 C  py               49     -0.156762   4 C  py        
    99     -0.155437   7 O  pz                5      0.154284   1 C  pz        

 Vector   43  Occ=2.000000D+00  E=-2.350262D-01
              MO Center= -8.9D-01,  2.0D-01,  4.1D-02, r^2= 6.8D+00
   Bfn.  Coefficient  Atom+Function         Bfn.  Coefficient  Atom+Function  
  ----- ------------  ---------------      ----- ------------  ---------------
    80     -0.270715   6 C  pz               35      0.260263   3 C  pz        
    20      0.248635   2 C  pz               65     -0.241454   5 C  pz        
   155      0.217391  11 N  pz               84     -0.205117   6 C  pz        
    39      0.189977   3 C  pz               24      0.179551   2 C  pz        
   159      0.171498  11 N  pz              156     -0.165954  11 N  s         

 Vector   44  Occ=2.000000D+00  E=-2.323169D-01
              MO Center=  1.9D+00,  1.0D+00,  1.3D-01, r^2= 5.9D+00
   Bfn.  Coefficient  Atom+Function         Bfn.  Coefficient  Atom+Function  
  ----- ------------  ---------------      ----- ------------  ---------------
   155     -0.471063  11 N  pz              159     -0.386378  11 N  pz        
   156      0.260854  11 N  s               227      0.163819  22 H  s         

 Vector   45  Occ=2.000000D+00  E=-2.073910D-01
              MO Center= -1.4D+00, -7.7D-01, -1.3D-02, r^2= 4.2D+00
   Bfn.  Coefficient  Atom+Function         Bfn.  Coefficient  Atom+Function  
  ----- ------------  ---------------      ----- ------------  ---------------
    95      0.345793   7 O  pz                5      0.286984   1 C  pz        
    99      0.275850   7 O  pz               50     -0.273258   4 C  pz        
     9      0.220982   1 C  pz               65     -0.217727   5 C  pz        
    35     -0.202218   3 C  pz               69     -0.182372   5 C  pz        
    54     -0.169680   4 C  pz               39     -0.156588   3 C  pz        

 Vector   46  Occ=0.000000D+00  E= 4.778831D-03
              MO Center= -1.9D+00, -1.0D-01,  3.9D-03, r^2= 3.8D+00
   Bfn.  Coefficient  Atom+Function         Bfn.  Coefficient  Atom+Function  
  ----- ------------  ---------------      ----- ------------  ---------------
    39      0.418006   3 C  pz               84      0.417083   6 C  pz        
    24     -0.387692   2 C  pz               69     -0.368959   5 C  pz        
    80      0.321005   6 C  pz               35      0.316355   3 C  pz        
    65     -0.315505   5 C  pz               20     -0.297213   2 C  pz        
   222     -0.216441  21 H  s         

 Vector   47  Occ=0.000000D+00  E= 1.288662D-02
              MO Center= -1.7D+00, -2.6D-01,  3.2D-02, r^2= 4.3D+00
   Bfn.  Coefficient  Atom+Function         Bfn.  Coefficient  Atom+Function  
  ----- ------------  ---------------      ----- ------------  ---------------
     9     -0.467511   1 C  pz               54     -0.425200   4 C  pz        
    50     -0.393220   4 C  pz                5     -0.344096   1 C  pz        
    24      0.264014   2 C  pz               84      0.232658   6 C  pz        
   217     -0.225184  20 H  s               212     -0.204513  19 H  s         
    20      0.200384   2 C  pz               65      0.186147   5 C  pz        

 Vector   48  Occ=0.000000D+00  E= 7.253521D-02
              MO Center=  2.3D+00,  7.3D-01,  5.9D-01, r^2= 6.4D+00
   Bfn.  Coefficient  Atom+Function         Bfn.  Coefficient  Atom+Function  
  ----- ------------  ---------------      ----- ------------  ---------------
   156     -1.048459  11 N  s               237      0.859700  24 H  s         
   111     -0.678511   8 C  s               232      0.644259  23 H  s         
   217      0.638567  20 H  s               126     -0.628888   9 C  s         
   141     -0.577992  10 C  s               171     -0.577343  12 C  s         
   227      0.520174  22 H  s               212      0.502493  19 H  s         

 Vector   49  Occ=0.000000D+00  E= 9.296738D-02
              MO Center= -6.1D-01, -2.6D-01, -2.2D-02, r^2= 1.1D+01
   Bfn.  Coefficient  Atom+Function         Bfn.  Coefficient  Atom+Function  
  ----- ------------  ---------------      ----- ------------  ---------------
   111      0.660334   8 C  s               126      0.627105   9 C  s         
    96      0.601664   7 O  s                 6     -0.580185   1 C  s         
   171     -0.578617  12 C  s               212     -0.561289  19 H  s         
   197      0.557604  16 H  s               187      0.553692  14 H  s         
   112      0.550213   8 C  px              207     -0.538887  18 H  s         

 Vector   50  Occ=0.000000D+00  E= 1.076509D-01
              MO Center=  8.0D-01, -3.3D-01,  2.7D-01, r^2= 1.4D+01
   Bfn.  Coefficient  Atom+Function         Bfn.  Coefficient  Atom+Function  
  ----- ------------  ---------------      ----- ------------  ---------------
   111     -1.397711   8 C  s               232     -0.839054  23 H  s         
   156      0.747037  11 N  s               212      0.720378  19 H  s         
   202      0.619701  17 H  s                21     -0.598184   2 C  s         
   187      0.519463  14 H  s               192      0.518960  15 H  s         
   207      0.467704  18 H  s               182      0.414564  13 H  s         

 Vector   51  Occ=0.000000D+00  E= 1.192373D-01
              MO Center=  6.7D-01,  1.0D-01, -4.5D-02, r^2= 1.2D+01
   Bfn.  Coefficient  Atom+Function         Bfn.  Coefficient  Atom+Function  
  ----- ------------  ---------------      ----- ------------  ---------------
   171      1.033314  12 C  s                96      0.773137   7 O  s         
   242     -0.656024  25 H  s               112      0.650561   8 C  px        
   182     -0.572250  13 H  s               237      0.564964  24 H  s         
   207     -0.563669  18 H  s               217      0.479072  20 H  s         
   222     -0.425367  21 H  s               247     -0.420410  26 H  s         

 Vector   52  Occ=0.000000D+00  E= 1.331627D-01
              MO Center= -1.3D-01, -1.6D-01, -4.2D-01, r^2= 9.8D+00
   Bfn.  Coefficient  Atom+Function         Bfn.  Coefficient  Atom+Function  
  ----- ------------  ---------------      ----- ------------  ---------------
   222      0.974297  21 H  s               247      0.622423  26 H  s         
    96      0.572672   7 O  s               129      0.561017   9 C  pz        
   182     -0.537236  13 H  s               126     -0.478623   9 C  s         
   207      0.470592  18 H  s               202     -0.395815  17 H  s         
   112      0.386776   8 C  px              171     -0.363352  12 C  s         

 Vector   53  Occ=0.000000D+00  E= 1.366456D-01
              MO Center=  9.6D-01,  4.1D-01,  1.1D-01, r^2= 1.3D+01
   Bfn.  Coefficient  Atom+Function         Bfn.  Coefficient  Atom+Function  
  ----- ------------  ---------------      ----- ------------  ---------------
   242     -0.928777  25 H  s               202     -0.848321  17 H  s         
   111      0.717827   8 C  s               172      0.649793  12 C  px        
   252      0.617523  27 H  s               237      0.608943  24 H  s         
    96     -0.593206   7 O  s                81     -0.465989   6 C  s         
   197      0.439432  16 H  s                 6     -0.433115   1 C  s         

 Vector   54  Occ=0.000000D+00  E= 1.401972D-01
              MO Center=  1.1D+00,  4.8D-01, -7.8D-02, r^2= 1.2D+01
   Bfn.  Coefficient  Atom+Function         Bfn.  Coefficient  Atom+Function  
  ----- ------------  ---------------      ----- ------------  ---------------
   171      1.078693  12 C  s               156     -0.938468  11 N  s         
   207      0.862630  18 H  s               111     -0.779593   8 C  s         
   247     -0.772759  26 H  s               141      0.647192  10 C  s         
   232      0.643882  23 H  s               242     -0.536657  25 H  s         
   114      0.512186   8 C  pz              227     -0.504057  22 H  s         

 Vector   55  Occ=0.000000D+00  E= 1.493359D-01
              MO Center= -9.7D-01, -1.0D+00, -8.6D-02, r^2= 1.4D+01
   Bfn.  Coefficient  Atom+Function         Bfn.  Coefficient  Atom+Function  
  ----- ------------  ---------------      ----- ------------  ---------------
   202     -1.134815  17 H  s               111      1.086754   8 C  s         
    21     -0.873308   2 C  s               187      0.851982  14 H  s         
   192      0.786583  15 H  s               252     -0.658604  27 H  s         
   141     -0.616436  10 C  s               171      0.583874  12 C  s         
    36     -0.535188   3 C  s               197     -0.528758  16 H  s         

 Vector   56  Occ=0.000000D+00  E= 1.609609D-01
              MO Center=  5.2D-01,  5.3D-01,  4.9D-01, r^2= 1.0D+01
   Bfn.  Coefficient  Atom+Function         Bfn.  Coefficient  Atom+Function  
  ----- ------------  ---------------      ----- ------------  ---------------
   227     -1.376227  22 H  s               141      1.062202  10 C  s         
   144      0.677491  10 C  pz              247      0.674405  26 H  s         
   202     -0.632196  17 H  s               171     -0.607736  12 C  s         
   232      0.516154  23 H  s               113     -0.480540   8 C  py        
   212      0.395477  19 H  s                24      0.280719   2 C  pz        

 Vector   57  Occ=0.000000D+00  E= 1.677470D-01
              MO Center=  7.8D-01, -7.0D-01, -1.2D-01, r^2= 1.2D+01
   Bfn.  Coefficient  Atom+Function         Bfn.  Coefficient  Atom+Function  
  ----- ------------  ---------------      ----- ------------  ---------------
   247      0.874875  26 H  s               202      0.867621  17 H  s         
   113      0.829267   8 C  py              207     -0.757894  18 H  s         
   192      0.737659  15 H  s               111      0.620729   8 C  s         
   227     -0.618627  22 H  s                36     -0.591889   3 C  s         
   212     -0.553637  19 H  s               237      0.547425  24 H  s         

 Vector   58  Occ=0.000000D+00  E= 1.773569D-01
              MO Center= -1.7D+00, -3.5D-02, -1.1D-01, r^2= 1.3D+01
   Bfn.  Coefficient  Atom+Function         Bfn.  Coefficient  Atom+Function  
  ----- ------------  ---------------      ----- ------------  ---------------
   182     -1.234259  13 H  s                 6      1.224883   1 C  s         
   192      1.212719  15 H  s                36     -1.162484   3 C  s         
   126      0.634860   9 C  s                38      0.615509   3 C  py        
   247     -0.552341  26 H  s               207      0.535193  18 H  s         
   252      0.477411  27 H  s                 8      0.461174   1 C  py        

 Vector   59  Occ=0.000000D+00  E= 1.804026D-01
              MO Center=  1.9D+00,  8.1D-01,  3.6D-01, r^2= 9.1D+00
   Bfn.  Coefficient  Atom+Function         Bfn.  Coefficient  Atom+Function  
  ----- ------------  ---------------      ----- ------------  ---------------
   171      1.132253  12 C  s               212      0.936033  19 H  s         
   242     -0.928967  25 H  s               141     -0.925533  10 C  s         
   237     -0.876643  24 H  s               232      0.680475  23 H  s         
   174      0.601639  12 C  pz              114     -0.577434   8 C  pz        
   158     -0.539404  11 N  py              111     -0.501225   8 C  s         

 Vector   60  Occ=0.000000D+00  E= 1.830103D-01
              MO Center=  5.0D-02,  2.2D-01,  3.0D-01, r^2= 9.7D+00
   Bfn.  Coefficient  Atom+Function         Bfn.  Coefficient  Atom+Function  
  ----- ------------  ---------------      ----- ------------  ---------------
   227     -1.030552  22 H  s               141      0.974131  10 C  s         
   212      0.697855  19 H  s               174     -0.631755  12 C  pz        
   207     -0.620831  18 H  s               144      0.584530  10 C  pz        
   114     -0.582938   8 C  pz              242      0.516254  25 H  s         
   182      0.502146  13 H  s               126      0.494588   9 C  s         

 Vector   61  Occ=0.000000D+00  E= 1.906825D-01
              MO Center= -1.2D+00,  4.4D-01, -2.3D-01, r^2= 1.3D+01
   Bfn.  Coefficient  Atom+Function         Bfn.  Coefficient  Atom+Function  
  ----- ------------  ---------------      ----- ------------  ---------------
   187     -1.330281  14 H  s                22     -0.970215   2 C  px        
   171      0.927565  12 C  s               222      0.864027  21 H  s         
   182      0.813041  13 H  s               247     -0.716687  26 H  s         
    81     -0.692417   6 C  s                51     -0.674324   4 C  s         
    21      0.665873   2 C  s               192      0.665580  15 H  s         

 Vector   62  Occ=0.000000D+00  E= 1.960733D-01
              MO Center= -1.2D+00,  4.1D-01, -2.2D-01, r^2= 1.4D+01
   Bfn.  Coefficient  Atom+Function         Bfn.  Coefficient  Atom+Function  
  ----- ------------  ---------------      ----- ------------  ---------------
   187     -1.255458  14 H  s                22     -0.978954   2 C  px        
   182      0.973444  13 H  s               126      0.939029   9 C  s         
   192      0.916592  15 H  s               247      0.798722  26 H  s         
    38      0.699037   3 C  py              222     -0.697609  21 H  s         
   171     -0.657206  12 C  s               207      0.628586  18 H  s         

 Vector   63  Occ=0.000000D+00  E= 2.220061D-01
              MO Center=  1.0D+00,  6.2D-01,  1.1D-01, r^2= 8.4D+00
   Bfn.  Coefficient  Atom+Function         Bfn.  Coefficient  Atom+Function  
  ----- ------------  ---------------      ----- ------------  ---------------
   141      1.311621  10 C  s                51     -0.987104   4 C  s         
   171     -0.918792  12 C  s               217     -0.885676  20 H  s         
   212      0.766257  19 H  s               156     -0.700856  11 N  s         
   242      0.694215  25 H  s               142      0.657498  10 C  px        
   157      0.654891  11 N  px              222      0.598150  21 H  s         

 Vector   64  Occ=0.000000D+00  E= 2.366081D-01
              MO Center=  8.7D-01,  6.0D-01, -1.1D-02, r^2= 8.3D+00
   Bfn.  Coefficient  Atom+Function         Bfn.  Coefficient  Atom+Function  
  ----- ------------  ---------------      ----- ------------  ---------------
   126      1.708103   9 C  s               141     -1.183224  10 C  s         
   142      1.075476  10 C  px              173     -0.889764  12 C  py        
   128      0.767148   9 C  py              144      0.756709  10 C  pz        
   207      0.640613  18 H  s               242      0.630480  25 H  s         
   192     -0.559799  15 H  s               222     -0.551040  21 H  s         

 Vector   65  Occ=0.000000D+00  E= 2.373913D-01
              MO Center=  3.7D-01,  1.2D-02,  1.0D-01, r^2= 8.7D+00
   Bfn.  Coefficient  Atom+Function         Bfn.  Coefficient  Atom+Function  
  ----- ------------  ---------------      ----- ------------  ---------------
    66     -0.789265   5 C  s               142     -0.715431  10 C  px        
   252     -0.621750  27 H  s               157     -0.618615  11 N  px        
   192     -0.612713  15 H  s               171      0.600845  12 C  s         
    53      0.560899   4 C  py              112     -0.550147   8 C  px        
   232      0.522992  23 H  s                37     -0.488354   3 C  px        

 Vector   66  Occ=0.000000D+00  E= 2.539204D-01
              MO Center=  5.0D-01,  3.6D-01,  6.1D-02, r^2= 8.5D+00
   Bfn.  Coefficient  Atom+Function         Bfn.  Coefficient  Atom+Function  
  ----- ------------  ---------------      ----- ------------  ---------------
     6      1.064680   1 C  s                66     -1.011359   5 C  s         
   217     -0.968357  20 H  s               143     -0.946752  10 C  py        
    21     -0.784006   2 C  s               141     -0.783655  10 C  s         
   173     -0.770075  12 C  py              126      0.736249   9 C  s         
    82      0.700586   6 C  px               22     -0.653692   2 C  px        

 Vector   67  Occ=0.000000D+00  E= 2.578913D-01
              MO Center=  2.5D-01,  7.7D-01,  7.7D-02, r^2= 7.4D+00
   Bfn.  Coefficient  Atom+Function         Bfn.  Coefficient  Atom+Function  
  ----- ------------  ---------------      ----- ------------  ---------------
    21      1.220119   2 C  s                66      1.118962   5 C  s         
   126     -1.017060   9 C  s               143     -0.965245  10 C  py        
   171      0.856263  12 C  s               129     -0.829239   9 C  pz        
    51     -0.828830   4 C  s                81     -0.807546   6 C  s         
   197      0.803516  16 H  s                 8      0.758837   1 C  py        

 Vector   68  Occ=0.000000D+00  E= 2.823991D-01
              MO Center=  7.5D-01,  2.2D-01,  1.1D-01, r^2= 7.7D+00
   Bfn.  Coefficient  Atom+Function         Bfn.  Coefficient  Atom+Function  
  ----- ------------  ---------------      ----- ------------  ---------------
   217      1.408454  20 H  s               127     -1.370855   9 C  px        
    81      1.049758   6 C  s               143     -1.032220  10 C  py        
   141      0.946869  10 C  s                66     -0.899816   5 C  s         
    21     -0.819870   2 C  s                36      0.772349   3 C  s         
   129     -0.738156   9 C  pz              142      0.729169  10 C  px        

 Vector   69  Occ=0.000000D+00  E= 3.102960D-01
              MO Center= -1.8D+00, -1.3D-01,  2.7D-02, r^2= 8.0D+00
   Bfn.  Coefficient  Atom+Function         Bfn.  Coefficient  Atom+Function  
  ----- ------------  ---------------      ----- ------------  ---------------
    36      2.218816   3 C  s                 6     -1.723037   1 C  s         
    23      1.400311   2 C  py               52      1.316126   4 C  px        
   141     -1.024174  10 C  s                51     -0.978829   4 C  s         
     8      0.842664   1 C  py               37      0.780548   3 C  px        
   126      0.777279   9 C  s               252      0.719007  27 H  s         

 Vector   70  Occ=0.000000D+00  E= 3.292952D-01
              MO Center= -1.2D+00,  3.3D-01, -9.1D-03, r^2= 8.9D+00
   Bfn.  Coefficient  Atom+Function         Bfn.  Coefficient  Atom+Function  
  ----- ------------  ---------------      ----- ------------  ---------------
    21     -2.106748   2 C  s                81      1.658482   6 C  s         
    66      1.521105   5 C  s                67      1.341793   5 C  px        
   127      1.323011   9 C  px              126     -1.319389   9 C  s         
     8     -1.220164   1 C  py              252      1.033002  27 H  s         
    37     -0.995600   3 C  px               52     -0.946478   4 C  px        

 Vector   71  Occ=0.000000D+00  E= 3.524445D-01
              MO Center= -1.3D+00,  1.4D-01, -7.5D-03, r^2= 6.4D+00
   Bfn.  Coefficient  Atom+Function         Bfn.  Coefficient  Atom+Function  
  ----- ------------  ---------------      ----- ------------  ---------------
    51     -2.798757   4 C  s                 6      1.755847   1 C  s         
    82      1.656382   6 C  px               37      1.595630   3 C  px        
    68     -1.522988   5 C  py               81      1.327838   6 C  s         
    23     -1.120417   2 C  py               66     -1.056685   5 C  s         
   128      0.831219   9 C  py              141     -0.819926  10 C  s         

 Vector   72  Occ=0.000000D+00  E= 3.684339D-01
              MO Center= -8.3D-01,  6.5D-01,  1.0D-02, r^2= 7.6D+00
   Bfn.  Coefficient  Atom+Function         Bfn.  Coefficient  Atom+Function  
  ----- ------------  ---------------      ----- ------------  ---------------
   197      1.791313  16 H  s                 7     -1.513266   1 C  px        
   252     -1.392108  27 H  s                53     -1.242522   4 C  py        
    82     -1.163744   6 C  px               83     -1.130309   6 C  py        
    81      1.074107   6 C  s                68     -1.011444   5 C  py        
    66      0.983126   5 C  s               143      0.899340  10 C  py        

 Vector   73  Occ=0.000000D+00  E= 3.803329D-01
              MO Center= -5.3D-01,  6.3D-01, -1.2D-02, r^2= 8.7D+00
   Bfn.  Coefficient  Atom+Function         Bfn.  Coefficient  Atom+Function  
  ----- ------------  ---------------      ----- ------------  ---------------
   197      2.117565  16 H  s               252     -1.715506  27 H  s         
    36      1.544926   3 C  s                81     -1.351054   6 C  s         
    83     -1.340579   6 C  py               67      1.109466   5 C  px        
    66     -1.051672   5 C  s                22     -0.934388   2 C  px        
   172     -0.904303  12 C  px               23      0.840337   2 C  py        

 Vector   74  Occ=0.000000D+00  E= 4.717679D-01
              MO Center= -3.5D-01, -6.0D-01, -4.0D-02, r^2= 8.5D+00
   Bfn.  Coefficient  Atom+Function         Bfn.  Coefficient  Atom+Function  
  ----- ------------  ---------------      ----- ------------  ---------------
    23     -1.272424   2 C  py               81     -1.129126   6 C  s         
    66      1.121446   5 C  s                52      1.096874   4 C  px        
     6      1.066972   1 C  s                67     -1.064212   5 C  px        
    21     -1.034265   2 C  s                83      1.031815   6 C  py        
     8     -1.014648   1 C  py               96     -0.829198   7 O  s         

 Vector   75  Occ=0.000000D+00  E= 4.902010D-01
              MO Center=  8.2D-02,  4.4D-01, -1.7D-01, r^2= 7.3D+00
   Bfn.  Coefficient  Atom+Function         Bfn.  Coefficient  Atom+Function  
  ----- ------------  ---------------      ----- ------------  ---------------
    53      2.713453   4 C  py               67      2.333966   5 C  px        
    21      2.027677   2 C  s                66     -2.021286   5 C  s         
   126     -1.770115   9 C  s                38     -1.758558   3 C  py        
     6     -1.555482   1 C  s                83     -1.421490   6 C  py        
    51      1.414191   4 C  s                68      1.413010   5 C  py        

 Vector   76  Occ=0.000000D+00  E= 5.151770D-01
              MO Center= -3.6D-01,  1.2D-01,  2.4D-01, r^2= 8.2D+00
   Bfn.  Coefficient  Atom+Function         Bfn.  Coefficient  Atom+Function  
  ----- ------------  ---------------      ----- ------------  ---------------
    66      1.533682   5 C  s                21     -1.302162   2 C  s         
    67     -1.299593   5 C  px                8     -1.284398   1 C  py        
     6      1.162113   1 C  s                81     -1.148817   6 C  s         
    51     -1.119146   4 C  s                53     -1.069891   4 C  py        
    36      1.067833   3 C  s                37      1.056784   3 C  px        


------------------------------------------------------------
EAF file 0: "./john_fukui.aoints.0" size=2107637760 bytes
------------------------------------------------------------
               write      read    awrite     aread      wait
               -----      ----    ------     -----      ----
     calls:     4020        17         0     68323     68323
   data(b): 2.11e+09  8.91e+06  0.00e+00  3.58e+10
   time(s): 3.41e+00  6.11e-03  0.00e+00  1.26e+01  3.51e-02
rate(mb/s): 6.17e+02  1.46e+03  0.00e+00* 2.83e+03*
------------------------------------------------------------
* = Effective rate.  Full wait time used for read and write.


    Atom       Condensed Fukui 
 -----------   ----------------
    1 C    6     0.0083
    2 C    6     0.2191
    3 C    6     0.2498
    4 C    6     0.0070
    5 C    6     0.2147
    6 C    6     0.2584
    7 O    8     0.0003
    8 C    6     0.0003
    9 C    6     0.0094
   10 C    6     0.0036
   11 N    7     0.0001
   12 C    6     0.0003
   13 H    1     0.0000
   14 H    1     0.0014
   15 H    1     0.0015
   16 H    1     0.0017
   17 H    1     0.0000
   18 H    1     0.0001
   19 H    1     0.0001
   20 H    1     0.0013
   21 H    1     0.0195
   22 H    1     0.0011
   23 H    1     0.0000
   24 H    1     0.0000
   25 H    1     0.0005
   26 H    1     0.0005
   27 H    1     0.0008

    Atom       Condensed Fukui 
 -----------   ----------------
    1 C    6     0.2284
    2 C    6     0.0353
    3 C    6     0.1130
    4 C    6     0.1801
    5 C    6     0.1325
    6 C    6     0.0286
    7 O    8     0.2215
    8 C    6     0.0048
    9 C    6     0.0065
   10 C    6     0.0029
   11 N    7     0.0004
   12 C    6     0.0001
   13 H    1     0.0008
   14 H    1     0.0001
   15 H    1     0.0003
   16 H    1     0.0001
   17 H    1     0.0000
   18 H    1     0.0133
   19 H    1     0.0172
   20 H    1     0.0016
   21 H    1     0.0104
   22 H    1     0.0017
   23 H    1     0.0002
   24 H    1     0.0000
   25 H    1     0.0000
   26 H    1     0.0001
   27 H    1     0.0001

    Atom       Condensed Fukui 
 -----------   ----------------
    1 C    6     0.0000
    2 C    6     0.0000
    3 C    6     0.0000
    4 C    6     0.0000
    5 C    6     0.0000
    6 C    6     0.0000
    7 O    8     0.0000
    8 C    6     0.0000
    9 C    6     0.0000
   10 C    6     0.0000
   11 N    7     0.0000
   12 C    6     0.0000
   13 H    1     0.0000
   14 H    1     0.0000
   15 H    1     0.0000
   16 H    1     0.0000
   17 H    1     0.0000
   18 H    1     0.0000
   19 H    1     0.0000
   20 H    1     0.0000
   21 H    1     0.0000
   22 H    1     0.0000
   23 H    1     0.0000
   24 H    1     0.0000
   25 H    1     0.0000
   26 H    1     0.0000
   27 H    1     0.0000

    Atom       Condensed Fukui 
 -----------   ----------------
    1 C    6     0.1184
    2 C    6     0.1272
    3 C    6     0.1814
    4 C    6     0.0935
    5 C    6     0.1736
    6 C    6     0.1435
    7 O    8     0.1109
    8 C    6     0.0025
    9 C    6     0.0079
   10 C    6     0.0033
   11 N    7     0.0002
   12 C    6     0.0002
   13 H    1     0.0004
   14 H    1     0.0008
   15 H    1     0.0009
   16 H    1     0.0009
   17 H    1     0.0000
   18 H    1     0.0067
   19 H    1     0.0087
   20 H    1     0.0014
   21 H    1     0.0149
   22 H    1     0.0014
   23 H    1     0.0001
   24 H    1     0.0000
   25 H    1     0.0003
   26 H    1     0.0003
   27 H    1     0.0004

    Atom       Condensed Fukui 
 -----------   ----------------
    1 C    6    -0.1100
    2 C    6     0.0919
    3 C    6     0.0684
    4 C    6    -0.0865
    5 C    6     0.0411
    6 C    6     0.1149
    7 O    8    -0.1106
    8 C    6    -0.0022
    9 C    6     0.0014
   10 C    6     0.0004
   11 N    7    -0.0001
   12 C    6     0.0001
   13 H    1    -0.0004
   14 H    1     0.0007
   15 H    1     0.0006
   16 H    1     0.0008
   17 H    1    -0.0000
   18 H    1    -0.0066
   19 H    1    -0.0085
   20 H    1    -0.0002
   21 H    1     0.0046
   22 H    1    -0.0003
   23 H    1    -0.0001
   24 H    1     0.0000
   25 H    1     0.0003
   26 H    1     0.0002
   27 H    1     0.0003

    Atom       Condensed Fukui 
 -----------   ----------------
    1 C    6     0.1184
    2 C    6     0.1272
    3 C    6     0.1814
    4 C    6     0.0935
    5 C    6     0.1736
    6 C    6     0.1435
    7 O    8     0.1109
    8 C    6     0.0025
    9 C    6     0.0079
   10 C    6     0.0033
   11 N    7     0.0002
   12 C    6     0.0002
   13 H    1     0.0004
   14 H    1     0.0008
   15 H    1     0.0009
   16 H    1     0.0009
   17 H    1     0.0000
   18 H    1     0.0067
   19 H    1     0.0087
   20 H    1     0.0014
   21 H    1     0.0149
   22 H    1     0.0014
   23 H    1     0.0001
   24 H    1     0.0000
   25 H    1     0.0003
   26 H    1     0.0003
   27 H    1     0.0004

    Atom       Condensed Fukui 
 -----------   ----------------
    1 C    6     0.1100
    2 C    6    -0.0919
    3 C    6    -0.0684
    4 C    6     0.0865
    5 C    6    -0.0411
    6 C    6    -0.1149
    7 O    8     0.1106
    8 C    6     0.0022
    9 C    6    -0.0014
   10 C    6    -0.0004
   11 N    7     0.0001
   12 C    6    -0.0001
   13 H    1     0.0004
   14 H    1    -0.0007
   15 H    1    -0.0006
   16 H    1    -0.0008
   17 H    1     0.0000
   18 H    1     0.0066
   19 H    1     0.0085
   20 H    1     0.0002
   21 H    1    -0.0046
   22 H    1     0.0003
   23 H    1     0.0001
   24 H    1    -0.0000
   25 H    1    -0.0003
   26 H    1    -0.0002
   27 H    1    -0.0003

 center of mass
 --------------
 x =  -0.48723472 y =  -0.07690843 z =   0.03106253

 moments of inertia (a.u.)
 ------------------
        1824.318307681744        -578.580887913626         -39.710240896194
        -578.580887913626        2323.549375004770         -18.304258047217
         -39.710240896194         -18.304258047217        4061.313011703188

     Multipole analysis of the density
     ---------------------------------

     L   x y z        total         alpha         beta         nuclear
     -   - - -        -----         -----         ----         -------
     0   0 0 0     -0.000000    -45.000000    -45.000000     90.000000

     1   1 0 0      0.646629     17.265181     17.265181    -33.883732
     1   0 1 0      0.133956      0.525331      0.525331     -0.916706
     1   0 0 1      0.471645     -1.359012     -1.359012      3.189668

     2   2 0 0    -51.041206   -678.346438   -678.346438   1305.651669
     2   1 1 0     -2.023323   -159.335175   -159.335175    316.647026
     2   1 0 1      3.348543    -10.279838    -10.279838     23.908218
     2   0 2 0    -50.509313   -539.959867   -539.959867   1029.410420
     2   0 1 1      0.857295     -3.913807     -3.913807      8.684910
     2   0 0 2    -55.897902    -45.931508    -45.931508     35.965113


 Parallel integral file used    4020 records with       0 large values


 Task  times  cpu:      395.8s     wall:      414.4s
 Summary of allocated global arrays
-----------------------------------
  No active global arrays



                         GA Statistics for process    0
                         ------------------------------

       create   destroy   get      put      acc     scatter   gather  read&inc
calls:  156      156     1.09e+06 1.80e+04 7.90e+05    0        0     4666     
number of processes/call 1.00e+00 1.00e+00 1.00e+00 0.00e+00 0.00e+00
bytes total:             1.03e+09 8.46e+07 6.20e+08 0.00e+00 0.00e+00 3.73e+04
bytes remote:            0.00e+00 0.00e+00 0.00e+00 0.00e+00 0.00e+00 0.00e+00
Max memory consumed for GA by this process: 21328200 bytes
MA_summarize_allocated_blocks: starting scan ...
MA_summarize_allocated_blocks: scan completed: 0 heap blocks, 0 stack blocks
MA usage statistics:

	allocation statistics:
					      heap	     stack
					      ----	     -----
	current number of blocks	         0	         0
	maximum number of blocks	        22	        48
	current total bytes		         0	         0
	maximum total bytes		  19956888	  22527168
	maximum total K-bytes		     19957	     22528
	maximum total M-bytes		        20	        23


                                NWChem Input Module
                                -------------------





                                     CITATION
                                     --------
                Please cite the following reference when publishing
                           results obtained with NWChem:

                 M. Valiev, E.J. Bylaska, N. Govind, K. Kowalski,
              T.P. Straatsma, H.J.J. van Dam, D. Wang, J. Nieplocha,
                        E. Apra, T.L. Windus, W.A. de Jong
                 "NWChem: a comprehensive and scalable open-source
                  solution for large scale molecular simulations"
                      Comput. Phys. Commun. 181, 1477 (2010)
                           doi:10.1016/j.cpc.2010.04.018

                              AUTHORS & CONTRIBUTORS
                              ----------------------
      E. J. Bylaska, W. A. de Jong, N. Govind, K. Kowalski, T. P. Straatsma,
     M. Valiev, H. J. J. van Dam, D. Wang, E. Apra, T. L. Windus, J. Hammond,
     J. Autschbach, P. Nichols, S. Hirata, M. T. Hackler, Y. Zhao, P.-D. Fan,
      R. J. Harrison, M. Dupuis, D. M. A. Smith, K. Glaesemann, J. Nieplocha,
      V. Tipparaju, M. Krishnan, A. Vazquez-Mayagoitia, L. Jensen, M. Swart,
      Q. Wu, T. Van Voorhis, A. A. Auer, M. Nooijen, L. D. Crosby, E. Brown,
             G. Cisneros, G. I. Fann, H. Fruchtl, J. Garza, K. Hirao,
        R. Kendall, J. A. Nichols, K. Tsemekhman, K. Wolinski, J. Anchell,
       D. Bernholdt, P. Borowski, T. Clark, D. Clerc, H. Dachsel, M. Deegan,
        K. Dyall, D. Elwood, E. Glendening, M. Gutowski, A. Hess, J. Jaffe,
        B. Johnson, J. Ju, R. Kobayashi, R. Kutteh, Z. Lin, R. Littlefield,
    X. Long, B. Meng, T. Nakajima, S. Niu, L. Pollack, M. Rosing, G. Sandrone,
       M. Stave, H. Taylor, G. Thomas, J. H. van Lenthe, A. Wong, Z. Zhang.

 Total times  cpu:      395.8s     wall:      414.5s
