 argument  1 = He_b2plyp_cc-vqz.nw



============================== echo of input deck ==============================
#
# These are the comparison numbers directly from Stefan Grimme:
#
#here it is (noFC, spherical basis, for total energies add col_1+0.27*col_2):
#      B2-LYP                unscaled RI-PT2
# He  -2.8937015127         -0.0399725506

echo

start He_b2plyp_cc-vqz

memory total 1000 mb

geometry
 He     0.0 0.0 0.0
end

basis "ao basis" spherical
  * library cc-pvqz
end

mp2
  freeze 0
  scratchdisk 4096
end

dft
  xc HFexch 0.53 becke88 0.47 lyp 0.73 mp2 0.27
  dftmp2 semidirect
  convergence energy 1e-8
  iterations 100
end

task dft energy

dft
  xc HFexch 0.53 becke88 0.47 lyp 0.73 mp2 0.27
  dftmp2 direct
  direct
  convergence energy 1e-8
  iterations 100
end

task dft energy

# This won't reproduce Turbomole exactly because it's not the same basis
# but it should come darn close to the complete DFT result
basis "cc-pVQZ-RI" spherical
#BASIS SET: (5s,4p,3d,2f)
He    S
     29.251976741            1.0000000
He    S
      6.3479959175           1.0000000
He    S
      3.0141166013           1.0000000
He    S
      0.83396087296          1.0000000
He    S
      0.47964730615          1.0000000
He    P
      8.6905135631           1.0000000
He    P
      2.5796767548           1.0000000
He    P
      1.1943303704           1.0000000
He    P
      0.71278867940          1.0000000
He    D
      7.2944834617           1.0000000
He    D
      4.3632208275           1.0000000
He    D
      1.7345900404           1.0000000
He    F
      4.3507069127           1.0000000
He    F
      2.7082979618           1.0000000
end

set "ri-mp2 basis" "cc-pVQZ-RI"

dft
  xc HFexch 0.53 becke88 0.47 lyp 0.73 mp2 0.27
  dftmp2 ri
  convergence energy 1e-8
  iterations 100
end

task dft energy
================================================================================


                                         
                                         


              Northwest Computational Chemistry Package (NWChem) 6.0
              ------------------------------------------------------


                    Environmental Molecular Sciences Laboratory
                       Pacific Northwest National Laboratory
                                Richland, WA 99352

                              Copyright (c) 1994-2010
                       Pacific Northwest National Laboratory
                            Battelle Memorial Institute

             NWChem is an open-source computational chemistry package
                        distributed under the terms of the
                      Educational Community License (ECL) 2.0
             A copy of the license is included with this distribution
                              in the LICENSE.TXT file

                                  ACKNOWLEDGMENT
                                  --------------

            This software and its documentation were developed at the
            EMSL at Pacific Northwest National Laboratory, a multiprogram
            national laboratory, operated for the U.S. Department of Energy
            by Battelle under Contract Number DE-AC05-76RL01830. Support
            for this work was provided by the Department of Energy Office
            of Biological and Environmental Research, Office of Basic
            Energy Sciences, and the Office of Advanced Scientific Computing.


           Job information
           ---------------

    hostname      = arcen
    program       = /home/d3y133/nwchem-releases/nwchem-6.0-gfortran/bin/LINUX64/nwchem
    date          = Fri Aug  6 15:50:16 2010

    compiled      = Fri_Aug_06_13:42:42_2010
    source        = /home/d3y133/nwchem-releases/nwchem-6.0-gfortran
    nwchem branch = 6.0
    input         = He_b2plyp_cc-vqz.nw
    prefix        = He_b2plyp_cc-vqz.
    data base     = ./He_b2plyp_cc-vqz.db
    status        = startup
    nproc         =        4
    time left     =     -1s



           Memory information
           ------------------

    heap     =   32768001 doubles =    250.0 Mbytes
    stack    =   32768001 doubles =    250.0 Mbytes
    global   =   65536000 doubles =    500.0 Mbytes (distinct from heap & stack)
    total    =  131072002 doubles =   1000.0 Mbytes
    verify   = yes
    hardfail = no 


           Directory information
           ---------------------

  0 permanent = .
  0 scratch   = .




                                NWChem Input Module
                                -------------------



 Scaling coordinates for geometry "geometry" by  1.889725989
 (inverse scale =  0.529177249)



                             Geometry "geometry" -> ""
                             -------------------------

 Output coordinates in angstroms (scale by  1.889725989 to convert to a.u.)

  No.       Tag          Charge          X              Y              Z
 ---- ---------------- ---------- -------------- -------------- --------------
    1 He                   2.0000     0.00000000     0.00000000     0.00000000

      Atomic Mass 
      ----------- 

      He                 4.002600


 Effective nuclear repulsion energy (a.u.)       0.0000000000

            Nuclear Dipole moment (a.u.) 
            ----------------------------
        X                 Y               Z
 ---------------- ---------------- ----------------
     0.0000000000     0.0000000000     0.0000000000


            XYZ format geometry
            -------------------
     1
 geometry
 He                    0.00000000     0.00000000     0.00000000

  library name resolved from: .nwchemrc
  library file name is: </home/d3y133/nwchem-releases/nwchem-6.0-gfortran/QA/../src/basis/libraries/>
  


 Summary of "ao basis" -> "" (spherical)
 ------------------------------------------------------------------------------
       Tag                 Description            Shells   Functions and Types
 ---------------- ------------------------------  ------  ---------------------
 *                          cc-pvqz                   on all atoms 



                                 NWChem DFT Module
                                 -----------------


                      Basis "ao basis" -> "ao basis" (spherical)
                      -----
  He (Helium)
  -----------
            Exponent  Coefficients 
       -------------- ---------------------------------------------------------
  1 S  5.28500000E+02  0.000940
  1 S  7.93100000E+01  0.007214
  1 S  1.80500000E+01  0.035975
  1 S  5.08500000E+00  0.127782

  2 S  1.60900000E+00  1.000000

  3 S  5.36300000E-01  1.000000

  4 S  1.83300000E-01  1.000000

  5 P  5.99400000E+00  1.000000

  6 P  1.74500000E+00  1.000000

  7 P  5.60000000E-01  1.000000

  8 D  4.29900000E+00  1.000000

  9 D  1.22300000E+00  1.000000

 10 F  2.68000000E+00  1.000000



 Summary of "ao basis" -> "ao basis" (spherical)
 ------------------------------------------------------------------------------
       Tag                 Description            Shells   Functions and Types
 ---------------- ------------------------------  ------  ---------------------
 He                         cc-pvqz                 10       30   4s3p2d1f


  Caching 1-el integrals 
  itol2e modified to match energy
  convergence criterion.
  tol_rho modified to match energy
  convergence criterion.

            General Information
            -------------------
          SCF calculation type: DFT
          Wavefunction type:  closed shell.
          No. of atoms     :     1
          No. of electrons :     2
           Alpha electrons :     1
            Beta electrons :     1
          Charge           :     0
          Spin multiplicity:     1
          Use of symmetry is: off; symmetry adaption is: off
          Maximum number of iterations: 100
          AO basis - number of functions:    30
                     number of shells:    10
          Convergence on energy requested: 1.00D-08
          Convergence on density requested: 1.00D-05
          Convergence on gradient requested: 5.00D-04

              XC Information
              --------------
                     Hartree-Fock (Exact) Exchange  0.530          
                    Becke 1988 Exchange Functional  0.470          
              Lee-Yang-Parr Correlation Functional  0.730          

             Grid Information
             ----------------
          Grid used for XC integration:  medium    
          Radial quadrature: Mura-Knowles        
          Angular quadrature: Lebedev. 
          Tag              B.-S. Rad. Rad. Pts. Rad. Cut. Ang. Pts.
          ---              ---------- --------- --------- ---------
          He                  0.35       49           4.0       434
          Grid pruning is: on 
          Number of quadrature shells:    49
          Spatial weights used:  Erf1

          Convergence Information
          -----------------------
          Convergence aids based upon iterative change in 
          total energy or number of iterations. 
          Levelshifting, if invoked, occurs when the 
          HOMO/LUMO gap drops below (HL_TOL): 1.00D-02
          DIIS, if invoked, will attempt to extrapolate 
          using up to (NFOCK): 10 stored Fock matrices.

                    Damping( 0%)  Levelshifting(0.5)       DIIS
                  --------------- ------------------- ---------------
          dE  on:    start            ASAP                start   
          dE off:    2 iters        100 iters           100 iters 


      Screening Tolerance Information
      -------------------------------
          Density screening/tol_rho: 1.00D-11
          AO Gaussian exp screening on grid/accAOfunc:  18
          CD Gaussian exp screening on grid/accCDfunc:  20
          XC Gaussian exp screening on grid/accXCfunc:  20
          Schwarz screening/accCoul: 1.00D-09


      Superposition of Atomic Density Guess
      -------------------------------------

 Sum of atomic energies:          -2.86151418

      Non-variational initial energy
      ------------------------------

 Total energy =      -2.861514
 1-e energy   =      -3.887331
 2-e energy   =       1.025816
 HOMO         =      -0.917849
 LUMO         =       0.496529

   Time after variat. SCF:      0.0
   Time prior to 1st pass:      0.0

 #quartets = 1.540D+03 #integrals = 1.511D+04 #direct =  0.0% #cached =100.0%


 Integral file          = ./He_b2plyp_cc-vqz.aoints.0
 Record size in doubles =  65536        No. of integs per rec  =  43688
 Max. records in memory =      2        Max. records in file   =  26331
 No. of bits per label  =      8        No. of bits per value  =     64


File balance: exchanges=     0  moved=     0  time=   0.0


 Grid_pts file          = ./He_b2plyp_cc-vqz.gridpts.0
 Record size in doubles =  12289        No. of grid_pts per rec  =   3070
 Max. records in memory =      3        Max. recs in file   =    140426


           Memory utilization after 1st SCF pass: 
           Heap Space remaining (MW):       32.60            32598730
          Stack Space remaining (MW):       32.77            32767752

   convergence    iter        energy       DeltaE   RMS-Dens  Diis-err    time
 ---------------- ----- ----------------- --------- --------- ---------  ------
 d= 0,ls=0.0,diis     1     -2.8933143907 -2.89D+00  1.31D-03  9.22D-03     0.1
 d= 0,ls=0.0,diis     2     -2.8936988123 -3.84D-04  1.49D-04  3.53D-05     0.1
 d= 0,ls=0.0,diis     3     -2.8937015181 -2.71D-06  7.33D-06  3.94D-08     0.2
 d= 0,ls=0.0,diis     4     -2.8937015226 -4.47D-09  1.27D-08  1.99D-12     0.2


         Total DFT energy =       -2.893701522570
      One electron energy =       -3.882803987935
           Coulomb energy =        2.043369749506
    Exchange-Corr. energy =       -1.054267284142
 Nuclear repulsion energy =        0.000000000000

 Numeric. integr. density =        1.999999953047

     Total iterative time =      0.1s



                       DFT Final Molecular Orbital Analysis
                       ------------------------------------

 Vector    1  Occ=2.000000D+00  E=-7.678053D-01
              MO Center=  1.3D-17,  6.0D-19, -1.1D-17, r^2= 3.4D-01
   Bfn.  Coefficient  Atom+Function         Bfn.  Coefficient  Atom+Function  
  ----- ------------  ---------------      ----- ------------  ---------------
     3     -0.435628  1 He s                  2     -0.309512  1 He s          
     4     -0.256357  1 He s                  1     -0.163343  1 He s          

 Vector    2  Occ=0.000000D+00  E= 4.114852D-01
              MO Center=  2.0D-17, -4.3D-18,  8.1D-19, r^2= 1.8D+00
   Bfn.  Coefficient  Atom+Function         Bfn.  Coefficient  Atom+Function  
  ----- ------------  ---------------      ----- ------------  ---------------
     4      1.669910  1 He s                  3     -1.306012  1 He s          

 Vector    3  Occ=0.000000D+00  E= 9.614474D-01
              MO Center=  6.1D-17,  1.2D-17, -5.7D-17, r^2= 6.8D-01
   Bfn.  Coefficient  Atom+Function         Bfn.  Coefficient  Atom+Function  
  ----- ------------  ---------------      ----- ------------  ---------------
    13      0.746101  1 He pz                11     -0.665187  1 He px         
    12      0.448531  1 He py         

 Vector    4  Occ=0.000000D+00  E= 9.614474D-01
              MO Center=  1.3D-17, -2.8D-17,  4.8D-17, r^2= 6.8D-01
   Bfn.  Coefficient  Atom+Function         Bfn.  Coefficient  Atom+Function  
  ----- ------------  ---------------      ----- ------------  ---------------
    12      0.976927  1 He py                13     -0.481517  1 He pz         

 Vector    5  Occ=0.000000D+00  E= 9.614474D-01
              MO Center=  2.0D-17,  1.6D-17,  6.7D-17, r^2= 6.8D-01
   Bfn.  Coefficient  Atom+Function         Bfn.  Coefficient  Atom+Function  
  ----- ------------  ---------------      ----- ------------  ---------------
    11     -0.862421  1 He px                13     -0.641713  1 He pz         
    12     -0.211554  1 He py         

 Vector    6  Occ=0.000000D+00  E= 2.587113D+00
              MO Center= -7.5D-17,  2.1D-16, -6.4D-17, r^2= 7.6D-01
   Bfn.  Coefficient  Atom+Function         Bfn.  Coefficient  Atom+Function  
  ----- ------------  ---------------      ----- ------------  ---------------
     3     -2.669620  1 He s                  2      1.776737  1 He s          
     4      1.138512  1 He s          

 Vector    7  Occ=0.000000D+00  E= 3.695851D+00
              MO Center=  6.3D-17, -8.0D-17,  1.0D-16, r^2= 4.2D-01
   Bfn.  Coefficient  Atom+Function         Bfn.  Coefficient  Atom+Function  
  ----- ------------  ---------------      ----- ------------  ---------------
    19      0.818764  1 He d -2              20     -0.422000  1 He d -1       
    22      0.382227  1 He d  1              23     -0.313394  1 He d  2       

 Vector    8  Occ=0.000000D+00  E= 3.695851D+00
              MO Center= -2.4D-16, -8.0D-17,  1.2D-17, r^2= 4.2D-01
   Bfn.  Coefficient  Atom+Function         Bfn.  Coefficient  Atom+Function  
  ----- ------------  ---------------      ----- ------------  ---------------
    20     -0.680251  1 He d -1              22      0.548847  1 He d  1       
    19     -0.468904  1 He d -2              23      0.346591  1 He d  2       

 Vector    9  Occ=0.000000D+00  E= 3.695851D+00
              MO Center= -1.5D-16,  5.5D-17,  2.0D-17, r^2= 4.2D-01
   Bfn.  Coefficient  Atom+Function         Bfn.  Coefficient  Atom+Function  
  ----- ------------  ---------------      ----- ------------  ---------------
    22      0.776019  1 He d  1              20      0.580446  1 He d -1       
    23     -0.356385  1 He d  2              19     -0.193733  1 He d -2       

 Vector   10  Occ=0.000000D+00  E= 3.695851D+00
              MO Center=  2.9D-17, -1.8D-16,  6.3D-17, r^2= 4.2D-01
   Bfn.  Coefficient  Atom+Function         Bfn.  Coefficient  Atom+Function  
  ----- ------------  ---------------      ----- ------------  ---------------
    21      0.847980  1 He d  0              23      0.534135  1 He d  2       
    20      0.242490  1 He d -1       

 Vector   11  Occ=0.000000D+00  E= 3.695851D+00
              MO Center= -1.5D-16,  9.1D-19, -2.2D-17, r^2= 4.2D-01
   Bfn.  Coefficient  Atom+Function         Bfn.  Coefficient  Atom+Function  
  ----- ------------  ---------------      ----- ------------  ---------------
    23     -0.689046  1 He d  2              21      0.608660  1 He d  0       
    19     -0.395875  1 He d -2              20     -0.262473  1 He d -1       
    22     -0.185947  1 He d  1       


 Parallel integral file used       4 records with       0 large values

                   NWChem MP2 Semi-direct Energy/Gradient Module
                   ---------------------------------------------


  Basis functions       =     30
  Molecular orbitals    =     30
  Frozen core           =      0
  Frozen virtuals       =      0
  Active alpha occupied =      1
  Active beta occupied  =      1
  Active alpha virtual  =     29
  Active beta virtual   =     29
  Use MO symmetry       = F
  Use skeleton AO sym   = F

  AO/Fock/Back tols     =   1.0D-09  1.0D-09  1.0D-09

 GA uses MA = F    GA memory limited = T

 Available: 
  local mem=  6.55D+07
 global mem=  6.55D+07
 local disk=  5.37D+08
   1 passes of   1:         707528                       1908                      4271.

 Semi-direct pass number   1 of   1  for RHF alpha+beta  at        0.4s
Node 0 wrote      0.0 Mb in      0.0 s     Agg I/O rate:     0.0 Mb/s
 Done moints_semi at        0.4s
 Done maket at        0.4s
 Done multipass loop at        0.4s


          -------------------------------------------
          DFT energy                  -2.893701522570
          Unscaled MP2 energy         -0.039977160386
          Total DFT+MP2 energy        -2.904495355874
          -------------------------------------------

 -----------------------
 Performance information
 -----------------------

 Timer overhead =  5.00D-07 seconds/call

               Nr. of calls         CPU time (s)                 Wall time (s)                GFlops
             ---------------    -------------------     ------------------------------   -------------------
Name         Min   Avg   Max    Min     Avg     Max     Min     Avg     Max   Mx/calls   Min     Max     Sum
mp2: moin     1     1     1   3.40E-2 3.60E-2 3.80E-2  3.77E-2 3.78E-2 3.79E-2 3.79E-2   0.0     0.0     0.0   
mp2: make     1     1     1   3.00E-3 3.00E-3 3.00E-3  2.85E-3 2.85E-3 2.85E-3 2.85E-3   0.0     0.0     0.0   
mp2: tota     1     1     1   8.40E-2 8.67E-2 9.10E-2  9.02E-2 9.02E-2 9.02E-2 9.02E-2   0.0     0.0     0.0   

 The average no. of pstat calls per process was 3.00D+00
 with a timing overhead of 1.50D-06s


 Task  times  cpu:        0.3s     wall:        0.4s


                                NWChem Input Module
                                -------------------



                                 NWChem DFT Module
                                 -----------------


  Caching 1-el integrals 

            General Information
            -------------------
          SCF calculation type: DFT
          Wavefunction type:  closed shell.
          No. of atoms     :     1
          No. of electrons :     2
           Alpha electrons :     1
            Beta electrons :     1
          Charge           :     0
          Spin multiplicity:     1
          Use of symmetry is: off; symmetry adaption is: off
          Maximum number of iterations: 100
          This is a Direct SCF calculation.
          AO basis - number of functions:    30
                     number of shells:    10
          Convergence on energy requested: 1.00D-08
          Convergence on density requested: 1.00D-05
          Convergence on gradient requested: 5.00D-04

              XC Information
              --------------
                     Hartree-Fock (Exact) Exchange  0.530          
                    Becke 1988 Exchange Functional  0.470          
              Lee-Yang-Parr Correlation Functional  0.730          

             Grid Information
             ----------------
          Grid used for XC integration:  medium    
          Radial quadrature: Mura-Knowles        
          Angular quadrature: Lebedev. 
          Tag              B.-S. Rad. Rad. Pts. Rad. Cut. Ang. Pts.
          ---              ---------- --------- --------- ---------
          He                  0.35       49           4.0       434
          Grid pruning is: on 
          Number of quadrature shells:    49
          Spatial weights used:  Erf1

          Convergence Information
          -----------------------
          Convergence aids based upon iterative change in 
          total energy or number of iterations. 
          Levelshifting, if invoked, occurs when the 
          HOMO/LUMO gap drops below (HL_TOL): 1.00D-02
          DIIS, if invoked, will attempt to extrapolate 
          using up to (NFOCK): 10 stored Fock matrices.

                    Damping( 0%)  Levelshifting(0.5)       DIIS
                  --------------- ------------------- ---------------
          dE  on:    start            ASAP                start   
          dE off:    2 iters        100 iters           100 iters 


      Screening Tolerance Information
      -------------------------------
          Density screening/tol_rho: 1.00D-11
          AO Gaussian exp screening on grid/accAOfunc:  18
          CD Gaussian exp screening on grid/accCDfunc:  20
          XC Gaussian exp screening on grid/accXCfunc:  20
          Schwarz screening/accCoul: 1.00D-09


 Loading old vectors from job with title :



   Time after variat. SCF:      0.3
   Time prior to 1st pass:      0.3

 Grid_pts file          = ./He_b2plyp_cc-vqz.gridpts.0
 Record size in doubles =  12289        No. of grid_pts per rec  =   3070
 Max. records in memory =      3        Max. recs in file   =    140426


           Memory utilization after 1st SCF pass: 
           Heap Space remaining (MW):       32.73            32729814
          Stack Space remaining (MW):       32.77            32767752

   convergence    iter        energy       DeltaE   RMS-Dens  Diis-err    time
 ---------------- ----- ----------------- --------- --------- ---------  ------
 d= 0,ls=0.0,diis     1     -2.8937015226 -2.89D+00  5.11D-10  3.70D-16     0.3
  Singularity in Pulay matrix. Error and Fock matrices removed. 
 d= 0,ls=0.0,diis     2     -2.8937015226 -8.88D-16  4.21D-11  7.53D-18     0.4


         Total DFT energy =       -2.893701522570
      One electron energy =       -3.882803789450
           Coulomb energy =        2.043369345996
    Exchange-Corr. energy =       -1.054267079117
 Nuclear repulsion energy =        0.000000000000

 Numeric. integr. density =        1.999999953047

     Total iterative time =      0.1s



                       DFT Final Molecular Orbital Analysis
                       ------------------------------------

 Vector    1  Occ=2.000000D+00  E=-7.678053D-01
              MO Center=  7.4D-17, -4.1D-18, -3.2D-17, r^2= 3.4D-01
   Bfn.  Coefficient  Atom+Function         Bfn.  Coefficient  Atom+Function  
  ----- ------------  ---------------      ----- ------------  ---------------
     3      0.435628  1 He s                  2      0.309512  1 He s          
     4      0.256357  1 He s                  1      0.163343  1 He s          

 Vector    2  Occ=0.000000D+00  E= 4.114853D-01
              MO Center= -4.5D-17,  8.0D-17,  1.1D-16, r^2= 1.8D+00
   Bfn.  Coefficient  Atom+Function         Bfn.  Coefficient  Atom+Function  
  ----- ------------  ---------------      ----- ------------  ---------------
     4      1.669910  1 He s                  3     -1.306012  1 He s          

 Vector    3  Occ=0.000000D+00  E= 9.614473D-01
              MO Center= -5.7D-17, -1.1D-16,  6.4D-17, r^2= 6.8D-01
   Bfn.  Coefficient  Atom+Function         Bfn.  Coefficient  Atom+Function  
  ----- ------------  ---------------      ----- ------------  ---------------
    12      0.839012  1 He py                13     -0.702537  1 He pz         

 Vector    4  Occ=0.000000D+00  E= 9.614473D-01
              MO Center=  1.1D-16, -5.6D-18, -2.2D-17, r^2= 6.8D-01
   Bfn.  Coefficient  Atom+Function         Bfn.  Coefficient  Atom+Function  
  ----- ------------  ---------------      ----- ------------  ---------------
    11      1.087308  1 He px                 8     -0.160731  1 He px         

 Vector    5  Occ=0.000000D+00  E= 9.614473D-01
              MO Center= -1.9D-18, -8.2D-17, -1.7D-16, r^2= 6.8D-01
   Bfn.  Coefficient  Atom+Function         Bfn.  Coefficient  Atom+Function  
  ----- ------------  ---------------      ----- ------------  ---------------
    13      0.830781  1 He pz                12      0.703465  1 He py         

 Vector    6  Occ=0.000000D+00  E= 2.587113D+00
              MO Center=  1.0D-17,  7.7D-18, -1.3D-17, r^2= 7.6D-01
   Bfn.  Coefficient  Atom+Function         Bfn.  Coefficient  Atom+Function  
  ----- ------------  ---------------      ----- ------------  ---------------
     3     -2.669620  1 He s                  2      1.776737  1 He s          
     4      1.138512  1 He s          

 Vector    7  Occ=0.000000D+00  E= 3.695851D+00
              MO Center=  3.1D-17,  9.4D-17,  4.3D-17, r^2= 4.2D-01
   Bfn.  Coefficient  Atom+Function         Bfn.  Coefficient  Atom+Function  
  ----- ------------  ---------------      ----- ------------  ---------------
    20     -0.753715  1 He d -1              22     -0.603210  1 He d  1       
    19     -0.342412  1 He d -2              21     -0.236759  1 He d  0       

 Vector    8  Occ=0.000000D+00  E= 3.695851D+00
              MO Center=  3.5D-17,  7.5D-17, -9.2D-17, r^2= 4.2D-01
   Bfn.  Coefficient  Atom+Function         Bfn.  Coefficient  Atom+Function  
  ----- ------------  ---------------      ----- ------------  ---------------
    20      0.695368  1 He d -1              22     -0.598215  1 He d  1       
    19     -0.506170  1 He d -2       

 Vector    9  Occ=0.000000D+00  E= 3.695851D+00
              MO Center=  6.5D-17, -5.8D-17,  9.1D-18, r^2= 4.2D-01
   Bfn.  Coefficient  Atom+Function         Bfn.  Coefficient  Atom+Function  
  ----- ------------  ---------------      ----- ------------  ---------------
    19      0.688536  1 He d -2              23      0.587869  1 He d  2       
    22     -0.480362  1 He d  1              21      0.234395  1 He d  0       

 Vector   10  Occ=0.000000D+00  E= 3.695851D+00
              MO Center= -5.9D-17, -3.1D-17, -2.9D-17, r^2= 4.2D-01
   Bfn.  Coefficient  Atom+Function         Bfn.  Coefficient  Atom+Function  
  ----- ------------  ---------------      ----- ------------  ---------------
    23      0.791293  1 He d  2              19     -0.499354  1 He d -2       
    22      0.376958  1 He d  1              21      0.260061  1 He d  0       

 Vector   11  Occ=0.000000D+00  E= 3.695851D+00
              MO Center=  7.1D-17,  3.6D-17,  3.7D-17, r^2= 4.2D-01
   Bfn.  Coefficient  Atom+Function         Bfn.  Coefficient  Atom+Function  
  ----- ------------  ---------------      ----- ------------  ---------------
    21      0.961569  1 He d  0              23     -0.357597  1 He d  2       
    20     -0.183116  1 He d -1       

                          Direct MP2
                          ----------
          Basis functions:                       30
          Shells:                                10
          Block length:                          32
          Active occupied range:           1 -    1
          Active virtual range:            2 -   30
          MO coefficients read from:  ./He_b2plyp_cc-vqz.movecs
          Operator matrices in core:              1
          AO passes required:                     1
          Use AO Integral blocking
          Twofold algorithm used

     Pass:    1     Index range:    1  -    1     Time:      0.02


          -------------------------------------------
          DFT energy                  -2.893701522570
          Unscaled MP2 energy         -0.039977160232
          Total DFT+MP2 energy        -2.904495355833
          -------------------------------------------


          Total MP2 time:           0.04

 Task  times  cpu:        0.1s     wall:        0.1s


                                NWChem Input Module
                                -------------------


  library name resolved from: .nwchemrc
  library file name is: </home/d3y133/nwchem-releases/nwchem-6.0-gfortran/QA/../src/basis/libraries/>
  
                      Basis "cc-pVQZ-RI" -> "" (spherical)
                      -----
  He (Helium)
  -----------
            Exponent  Coefficients 
       -------------- ---------------------------------------------------------
  1 S  2.92519767E+01  1.000000

  2 S  6.34799592E+00  1.000000

  3 S  3.01411660E+00  1.000000

  4 S  8.33960873E-01  1.000000

  5 S  4.79647306E-01  1.000000

  6 P  8.69051356E+00  1.000000

  7 P  2.57967675E+00  1.000000

  8 P  1.19433037E+00  1.000000

  9 P  7.12788679E-01  1.000000

 10 D  7.29448346E+00  1.000000

 11 D  4.36322083E+00  1.000000

 12 D  1.73459004E+00  1.000000

 13 F  4.35070691E+00  1.000000

 14 F  2.70829796E+00  1.000000



 Summary of "cc-pVQZ-RI" -> "" (spherical)
 ------------------------------------------------------------------------------
       Tag                 Description            Shells   Functions and Types
 ---------------- ------------------------------  ------  ---------------------
 He                      user specified             14       46   5s4p3d2f



                                 NWChem DFT Module
                                 -----------------


  Caching 1-el integrals 

            General Information
            -------------------
          SCF calculation type: DFT
          Wavefunction type:  closed shell.
          No. of atoms     :     1
          No. of electrons :     2
           Alpha electrons :     1
            Beta electrons :     1
          Charge           :     0
          Spin multiplicity:     1
          Use of symmetry is: off; symmetry adaption is: off
          Maximum number of iterations: 100
          This is a Direct SCF calculation.
          AO basis - number of functions:    30
                     number of shells:    10
          Convergence on energy requested: 1.00D-08
          Convergence on density requested: 1.00D-05
          Convergence on gradient requested: 5.00D-04

              XC Information
              --------------
                     Hartree-Fock (Exact) Exchange  0.530          
                    Becke 1988 Exchange Functional  0.470          
              Lee-Yang-Parr Correlation Functional  0.730          

             Grid Information
             ----------------
          Grid used for XC integration:  medium    
          Radial quadrature: Mura-Knowles        
          Angular quadrature: Lebedev. 
          Tag              B.-S. Rad. Rad. Pts. Rad. Cut. Ang. Pts.
          ---              ---------- --------- --------- ---------
          He                  0.35       49           4.0       434
          Grid pruning is: on 
          Number of quadrature shells:    49
          Spatial weights used:  Erf1

          Convergence Information
          -----------------------
          Convergence aids based upon iterative change in 
          total energy or number of iterations. 
          Levelshifting, if invoked, occurs when the 
          HOMO/LUMO gap drops below (HL_TOL): 1.00D-02
          DIIS, if invoked, will attempt to extrapolate 
          using up to (NFOCK): 10 stored Fock matrices.

                    Damping( 0%)  Levelshifting(0.5)       DIIS
                  --------------- ------------------- ---------------
          dE  on:    start            ASAP                start   
          dE off:    2 iters        100 iters           100 iters 


      Screening Tolerance Information
      -------------------------------
          Density screening/tol_rho: 1.00D-11
          AO Gaussian exp screening on grid/accAOfunc:  18
          CD Gaussian exp screening on grid/accCDfunc:  20
          XC Gaussian exp screening on grid/accXCfunc:  20
          Schwarz screening/accCoul: 1.00D-09


 Loading old vectors from job with title :



   Time after variat. SCF:      0.4
   Time prior to 1st pass:      0.4

 Grid_pts file          = ./He_b2plyp_cc-vqz.gridpts.0
 Record size in doubles =  12289        No. of grid_pts per rec  =   3070
 Max. records in memory =      3        Max. recs in file   =    140426


           Memory utilization after 1st SCF pass: 
           Heap Space remaining (MW):       32.73            32729814
          Stack Space remaining (MW):       32.77            32767752

   convergence    iter        energy       DeltaE   RMS-Dens  Diis-err    time
 ---------------- ----- ----------------- --------- --------- ---------  ------
 d= 0,ls=0.0,diis     1     -2.8937015226 -2.89D+00  5.42D-12  2.04D-20     0.5
  Singularity in Pulay matrix. Error and Fock matrices removed. 
 d= 0,ls=0.0,diis     2     -2.8937015226  1.78D-15  4.16D-13  7.64D-22     0.5


         Total DFT energy =       -2.893701522570
      One electron energy =       -3.882803789563
           Coulomb energy =        2.043369346259
    Exchange-Corr. energy =       -1.054267079267
 Nuclear repulsion energy =        0.000000000000

 Numeric. integr. density =        1.999999953047

     Total iterative time =      0.1s



                       DFT Final Molecular Orbital Analysis
                       ------------------------------------

 Vector    1  Occ=2.000000D+00  E=-7.678053D-01
              MO Center= -2.2D-16,  2.2D-17,  1.4D-17, r^2= 3.4D-01
   Bfn.  Coefficient  Atom+Function         Bfn.  Coefficient  Atom+Function  
  ----- ------------  ---------------      ----- ------------  ---------------
     3     -0.435628  1 He s                  2     -0.309512  1 He s          
     4     -0.256357  1 He s                  1     -0.163343  1 He s          

 Vector    2  Occ=0.000000D+00  E= 4.114853D-01
              MO Center= -2.3D-17, -1.8D-17, -7.5D-17, r^2= 1.8D+00
   Bfn.  Coefficient  Atom+Function         Bfn.  Coefficient  Atom+Function  
  ----- ------------  ---------------      ----- ------------  ---------------
     4     -1.669910  1 He s                  3      1.306012  1 He s          

 Vector    3  Occ=0.000000D+00  E= 9.614473D-01
              MO Center= -5.7D-18,  3.7D-17,  6.7D-17, r^2= 6.8D-01
   Bfn.  Coefficient  Atom+Function         Bfn.  Coefficient  Atom+Function  
  ----- ------------  ---------------      ----- ------------  ---------------
    12      0.860271  1 He py                13      0.674807  1 He pz         

 Vector    4  Occ=0.000000D+00  E= 9.614473D-01
              MO Center= -2.0D-17, -1.9D-17,  1.7D-17, r^2= 6.8D-01
   Bfn.  Coefficient  Atom+Function         Bfn.  Coefficient  Atom+Function  
  ----- ------------  ---------------      ----- ------------  ---------------
    13     -0.860694  1 He pz                12      0.677342  1 He py         

 Vector    5  Occ=0.000000D+00  E= 9.614473D-01
              MO Center=  1.9D-16, -1.0D-17,  4.2D-18, r^2= 6.8D-01
   Bfn.  Coefficient  Atom+Function         Bfn.  Coefficient  Atom+Function  
  ----- ------------  ---------------      ----- ------------  ---------------
    11     -1.093022  1 He px                 8      0.161576  1 He px         

 Vector    6  Occ=0.000000D+00  E= 2.587113D+00
              MO Center=  7.1D-18, -1.5D-17, -6.0D-18, r^2= 7.6D-01
   Bfn.  Coefficient  Atom+Function         Bfn.  Coefficient  Atom+Function  
  ----- ------------  ---------------      ----- ------------  ---------------
     3     -2.669620  1 He s                  2      1.776737  1 He s          
     4      1.138512  1 He s          

 Vector    7  Occ=0.000000D+00  E= 3.695851D+00
              MO Center= -5.4D-17,  3.1D-17, -3.3D-17, r^2= 4.2D-01
   Bfn.  Coefficient  Atom+Function         Bfn.  Coefficient  Atom+Function  
  ----- ------------  ---------------      ----- ------------  ---------------
    19     -0.926781  1 He d -2              23     -0.433164  1 He d  2       
    21      0.194922  1 He d  0       

 Vector    8  Occ=0.000000D+00  E= 3.695851D+00
              MO Center=  2.3D-17, -1.1D-16,  6.9D-17, r^2= 4.2D-01
   Bfn.  Coefficient  Atom+Function         Bfn.  Coefficient  Atom+Function  
  ----- ------------  ---------------      ----- ------------  ---------------
    20      0.974129  1 He d -1              19      0.257108  1 He d -2       
    22      0.219938  1 He d  1              23     -0.181580  1 He d  2       

 Vector    9  Occ=0.000000D+00  E= 3.695851D+00
              MO Center= -1.1D-17,  1.9D-17, -3.7D-17, r^2= 4.2D-01
   Bfn.  Coefficient  Atom+Function         Bfn.  Coefficient  Atom+Function  
  ----- ------------  ---------------      ----- ------------  ---------------
    23     -0.832679  1 He d  2              22      0.395579  1 He d  1       
    19      0.355226  1 He d -2              20     -0.347409  1 He d -1       

 Vector   10  Occ=0.000000D+00  E= 3.695851D+00
              MO Center=  1.6D-16,  1.4D-17, -1.0D-16, r^2= 4.2D-01
   Bfn.  Coefficient  Atom+Function         Bfn.  Coefficient  Atom+Function  
  ----- ------------  ---------------      ----- ------------  ---------------
    22      0.920236  1 He d  1              23      0.426561  1 He d  2       
    21      0.190425  1 He d  0              19     -0.173730  1 He d -2       

 Vector   11  Occ=0.000000D+00  E= 3.695851D+00
              MO Center= -3.4D-17,  7.7D-17, -1.0D-17, r^2= 4.2D-01
   Bfn.  Coefficient  Atom+Function         Bfn.  Coefficient  Atom+Function  
  ----- ------------  ---------------      ----- ------------  ---------------
    21      1.006677  1 He d  0              22     -0.231827  1 He d  1       
    19      0.155051  1 He d -2       

                               NWChem RI-MP2 Module
                               --------------------



 Corr_Mk_Ref: MO vectors './He_b2plyp_cc-vqz.movecs' don't exist or aren't converged.
 DFT Reference Information:
            File: './He_b2plyp_cc-vqz.movecs'
           Title: ''
    Size (AOxMO):     30 x     30
       Total Occ:               2.00
 RI-MP2 Calculation Information:
          Nr. of AO basis functions:         30
     Nr. of fitting basis functions:         46
               Nr. of MO spin cases:          1
        Nr. of MOs to be correlated:         30
     Nr. of occupied MOs correlated:          1
      Nr. of virtual MOs correlated:         29

          RI integral approximation: 'V'
    Threshold for Schwarz screening:  1.000E-09
 Smallest eigenvalue retained in fit  1.000E-08
     Base file name for MO integrals 'mo3cint'
    Type of storage for MO integrals 'EAF library'

 Transformation block size    1, requiring     1 integral passes.
 XForm_3cInts: Completed     1:    1 pass.             @Fri Aug  6 15:50:17 2010
 Energy evaluation using block sizes     1    1
 RIMP2_V_E2: Approx. ints. done (    1:    1,    1:    1) @Fri Aug  6 15:50:17 2010
 RIMP2_V_E2: Copy to B done (    1:    1,    1:    1)  @Fri Aug  6 15:50:17 2010
 RIMP2_V_E2: Denominators done (    1:    1,    1:    1) @Fri Aug  6 15:50:17 2010
 RIMP2_V_E2: Completed block (    1:    1,    1:    1) @Fri Aug  6 15:50:17 2010


          -------------------------------------------
          DFT energy                  -2.893701522570
          Unscaled MP2 energy         -0.039972551959
          Total DFT+MP2 energy        -2.904494111599
          -------------------------------------------

 -----------------------
 Performance information
 -----------------------

 Timer overhead =  6.00D-07 seconds/call

               Nr. of calls         CPU time (s)                 Wall time (s)                GFlops
             ---------------    -------------------     ------------------------------   -------------------
Name         Min   Avg   Max    Min     Avg     Max     Min     Avg     Max   Mx/calls   Min     Max     Sum
Overall       1     1     1   0.11    0.11    0.12     0.12    0.12    0.12    0.12      0.0     0.0     0.0   
3c integr     1     1     1   3.00E-3 4.75E-3 6.00E-3  6.29E-3 6.29E-3 6.29E-3 6.29E-3   0.0     0.0     0.0   
Energy        1     1     1   1.00E-3 1.00E-3 1.00E-3  9.69E-4 9.70E-4 9.70E-4 9.70E-4   0.0     0.0     0.0   
3c integr     1     1     1   3.00E-3 4.00E-3 6.00E-3  2.77E-3 3.85E-3 5.78E-3 5.78E-3   0.0     0.0     0.0   
First 2/3     3     3     3    0.0     0.0     0.0     2.50E-5 3.42E-5 4.67E-5 1.56E-5   0.0     0.0     0.0   
Final 1/3     1     1     1    0.0     0.0     0.0     7.20E-5 7.20E-5 7.20E-5 7.20E-5   0.0     0.0     0.0   
Write 3c      1     1     1    0.0     0.0     0.0     4.79E-5 5.32E-5 5.79E-5 5.79E-5   0.0     0.0     0.0   
Read 3c i     1     1     1    0.0     0.0     0.0     8.82E-6 1.10E-5 1.22E-5 1.22E-5   0.0     0.0     0.0   
Fitting b     1     1     1   2.00E-3 2.00E-3 2.00E-3  2.59E-3 2.59E-3 2.59E-3 2.59E-3   0.0     0.0     0.0   
Schwarz i     1     1     1   3.00E-3 4.50E-3 5.00E-3  5.23E-3 5.25E-3 5.27E-3 5.27E-3   0.0     0.0     0.0   
Form 4ci      1     1     1    0.0     0.0     0.0     5.79E-5 5.82E-5 5.89E-5 5.89E-5   0.0     0.0     0.0   
Form A &      1     1     1    0.0     0.0     0.0     1.91E-5 1.98E-5 2.00E-5 2.00E-5   0.0     0.0     0.0   
Denominat     1     1     1    0.0     0.0     0.0     4.05E-6 4.29E-6 5.01E-6 5.01E-6   0.0     0.0     0.0   
Pair Ener     1     1     1    0.0     0.0     0.0     5.01E-6 5.54E-6 7.15E-6 7.15E-6   0.0     0.0     0.0   

 The average no. of pstat calls per process was 1.60D+01
 with a timing overhead of 9.60D-06s


 Task  times  cpu:        0.1s     wall:        0.1s
 Summary of allocated global arrays
-----------------------------------
  No active global arrays



                         GA Statistics for process    0
                         ------------------------------

       create   destroy   get      put      acc     scatter   gather  read&inc
calls:  261      261     1772     1019      567        0        0      179     
number of processes/call 1.04e+00 1.09e+00 1.00e+00 0.00e+00 0.00e+00
bytes total:             2.96e+06 1.09e+06 5.53e+05 0.00e+00 0.00e+00 1.43e+03
bytes remote:            1.49e+05 1.25e+05 1.34e+03 0.00e+00 0.00e+00 0.00e+00
Max memory consumed for GA by this process: 259200 bytes
MA_summarize_allocated_blocks: starting scan ...
MA_summarize_allocated_blocks: scan completed: 0 heap blocks, 0 stack blocks
MA usage statistics:

	allocation statistics:
					      heap	     stack
					      ----	     -----
	current number of blocks	         0	         0
	maximum number of blocks	        23	        49
	current total bytes		         0	         0
	maximum total bytes		   1354168	  22510552
	maximum total K-bytes		      1355	     22511
	maximum total M-bytes		         2	        23


                                NWChem Input Module
                                -------------------





                                     CITATION
                                     --------
                Please cite the following reference when publishing
                           results obtained with NWChem:

                 M. Valiev, E.J. Bylaska, N. Govind, K. Kowalski,
              T.P. Straatsma, H.J.J. van Dam, D. Wang, J. Nieplocha,
                        E. Apra, T.L. Windus, W.A. de Jong
                 "NWChem: a comprehensive and scalable open-source
                  solution for large scale molecular simulations"
                      Comput. Phys. Commun. 181, 1477 (2010)
                           doi:10.1016/j.cpc.2010.04.018

                              AUTHORS & CONTRIBUTORS
                              ----------------------
      E. J. Bylaska, W. A. de Jong, N. Govind, K. Kowalski, T. P. Straatsma,
     M. Valiev, H. J. J. Van Dam, D. Wang, E. Apra, T. L. Windus, J. Hammond,
     J. Autschbach, P. Nichols, S. Hirata, M. T. Hackler, Y. Zhao, P.-D. Fan,
      R. J. Harrison, M. Dupuis, D. M. A. Smith, J. Nieplocha, V. Tipparaju,
          M. Krishnan, A. Vazquez-Mayagoitia, L. Jensen, M. Swart, Q. Wu,
          T. Van Voorhis, A. A. Auer, M. Nooijen, L. D. Crosby, E. Brown,
             G. Cisneros, G. I. Fann, H. Fruchtl, J. Garza, K. Hirao,
        R. Kendall, J. A. Nichols, K. Tsemekhman, K. Wolinski, J. Anchell,
       D. Bernholdt, P. Borowski, T. Clark, D. Clerc, H. Dachsel, M. Deegan,
        K. Dyall, D. Elwood, E. Glendening, M. Gutowski, A. Hess, J. Jaffe,
        B. Johnson, J. Ju, R. Kobayashi, R. Kutteh, Z. Lin, R. Littlefield,
    X. Long, B. Meng, T. Nakajima, S. Niu, L. Pollack, M. Rosing, G. Sandrone,
       M. Stave, H. Taylor, G. Thomas, J. H. van Lenthe, A. Wong, Z. Zhang.

 Total times  cpu:        0.5s     wall:        0.7s
  #avail    536870912.000000     
