 argument  1 = hess_c6h6.nw



============================== echo of input deck ==============================
echo
start  c6h6
memory 300 MB
title "benzene in sto-3g"
geometry autoz units au
   C       1.853049   1.853049    .000000
   C      -2.531312    .678263    .000000
   C        .678263  -2.531312    .000000
   C      -1.853049  -1.853049    .000000
   C       2.531312   -.678263    .000000
   C       -.678263   2.531312    .000000
   H       3.299553   3.299553    .000000
   H      -4.507274   1.207720    .000000
   H       1.207720  -4.507274    .000000
   H      -3.299553  -3.299553    .000000
   H       4.507274  -1.207720    .000000
   H      -1.207720   4.507274    .000000
end
basis
  H library sto-3g
  C library sto-3g
end
task  scf freq
================================================================================


                                         
                                         


              Northwest Computational Chemistry Package (NWChem) 6.0
              ------------------------------------------------------


                    Environmental Molecular Sciences Laboratory
                       Pacific Northwest National Laboratory
                                Richland, WA 99352

                              Copyright (c) 1994-2010
                       Pacific Northwest National Laboratory
                            Battelle Memorial Institute

             NWChem is an open-source computational chemistry package
                        distributed under the terms of the
                      Educational Community License (ECL) 2.0
             A copy of the license is included with this distribution
                              in the LICENSE.TXT file

                                  ACKNOWLEDGMENT
                                  --------------

            This software and its documentation were developed at the
            EMSL at Pacific Northwest National Laboratory, a multiprogram
            national laboratory, operated for the U.S. Department of Energy
            by Battelle under Contract Number DE-AC05-76RL01830. Support
            for this work was provided by the Department of Energy Office
            of Biological and Environmental Research, Office of Basic
            Energy Sciences, and the Office of Advanced Scientific Computing.


           Job information
           ---------------

    hostname      = arcen
    program       = /home/d3y133/nwchem-releases/nwchem-6.0-gfortran/bin/LINUX64/nwchem
    date          = Thu Aug 12 08:37:26 2010

    compiled      = Wed_Aug_11_17:10:46_2010
    source        = /home/d3y133/nwchem-releases/nwchem-6.0-gfortran
    nwchem branch = 6.0
    input         = hess_c6h6.nw
    prefix        = c6h6.
    data base     = ./c6h6.db
    status        = startup
    nproc         =        4
    time left     =     -1s



           Memory information
           ------------------

    heap     =    9830401 doubles =     75.0 Mbytes
    stack    =    9830401 doubles =     75.0 Mbytes
    global   =   19660800 doubles =    150.0 Mbytes (distinct from heap & stack)
    total    =   39321602 doubles =    300.0 Mbytes
    verify   = yes
    hardfail = no 


           Directory information
           ---------------------

  0 permanent = .
  0 scratch   = .




                                NWChem Input Module
                                -------------------


                                 benzene in sto-3g
                                 -----------------
 D6H symmetry detected

          ------
          auto-z
          ------


                             Geometry "geometry" -> ""
                             -------------------------

 Output coordinates in a.u. (scale by  1.000000000 to convert to a.u.)

  No.       Tag          Charge          X              Y              Z
 ---- ---------------- ---------- -------------- -------------- --------------
    1 C                    6.0000     1.85304900     1.85304900     0.00000000
    2 C                    6.0000    -2.53131200     0.67826301     0.00000000
    3 C                    6.0000     0.67826301    -2.53131200     0.00000000
    4 C                    6.0000    -1.85304900    -1.85304900     0.00000000
    5 C                    6.0000     2.53131200    -0.67826301     0.00000000
    6 C                    6.0000    -0.67826301     2.53131200     0.00000000
    7 H                    1.0000     3.29955333     3.29955333     0.00000000
    8 H                    1.0000    -4.50727367     1.20772034     0.00000000
    9 H                    1.0000     1.20772034    -4.50727367     0.00000000
   10 H                    1.0000    -3.29955333    -3.29955333     0.00000000
   11 H                    1.0000     4.50727367    -1.20772034     0.00000000
   12 H                    1.0000    -1.20772034     4.50727367     0.00000000

      Atomic Mass 
      ----------- 

      C                 12.000000
      H                  1.007825


 Effective nuclear repulsion energy (a.u.)     204.5394281386

            Nuclear Dipole moment (a.u.) 
            ----------------------------
        X                 Y               Z
 ---------------- ---------------- ----------------
     0.0000000000     0.0000000000     0.0000000000

      Symmetry information
      --------------------

 Group name             D6h       
 Group number             30
 Group order              24
 No. of unique centers     2

      Symmetry unique atoms

     1    7



                                Z-matrix (autoz)
                                -------- 

 Units are Angstrom for bonds and degrees for angles

      Type          Name      I     J     K     L     M      Value
      ----------- --------  ----- ----- ----- ----- ----- ----------
    1 Stretch                  1     5                       1.38677
    2 Stretch                  1     6                       1.38677
    3 Stretch                  1     7                       1.08252
    4 Stretch                  2     4                       1.38677
    5 Stretch                  2     6                       1.38677
    6 Stretch                  2     8                       1.08252
    7 Stretch                  3     4                       1.38677
    8 Stretch                  3     5                       1.38677
    9 Stretch                  3     9                       1.08252
   10 Stretch                  4    10                       1.08252
   11 Stretch                  5    11                       1.08252
   12 Stretch                  6    12                       1.08252
   13 Bend                     1     5     3               120.00000
   14 Bend                     1     5    11               120.00000
   15 Bend                     1     6     2               120.00000
   16 Bend                     1     6    12               120.00000
   17 Bend                     2     4     3               120.00000
   18 Bend                     2     4    10               120.00000
   19 Bend                     2     6    12               120.00000
   20 Bend                     3     4    10               120.00000
   21 Bend                     3     5    11               120.00000
   22 Bend                     4     2     6               120.00000
   23 Bend                     4     2     8               120.00000
   24 Bend                     4     3     5               120.00000
   25 Bend                     4     3     9               120.00000
   26 Bend                     5     1     6               120.00000
   27 Bend                     5     1     7               120.00000
   28 Bend                     5     3     9               120.00000
   29 Bend                     6     1     7               120.00000
   30 Bend                     6     2     8               120.00000
   31 Torsion                  1     5     3     4           0.00000
   32 Torsion                  1     5     3     9         180.00000
   33 Torsion                  1     6     2     4           0.00000
   34 Torsion                  1     6     2     8         180.00000
   35 Torsion                  2     4     3     5           0.00000
   36 Torsion                  2     4     3     9         180.00000
   37 Torsion                  2     6     1     5           0.00000
   38 Torsion                  2     6     1     7         180.00000
   39 Torsion                  3     4     2     6           0.00000
   40 Torsion                  3     4     2     8         180.00000
   41 Torsion                  3     5     1     6           0.00000
   42 Torsion                  3     5     1     7         180.00000
   43 Torsion                  4     2     6    12         180.00000
   44 Torsion                  4     3     5    11         180.00000
   45 Torsion                  5     1     6    12         180.00000
   46 Torsion                  5     3     4    10         180.00000
   47 Torsion                  6     1     5    11         180.00000
   48 Torsion                  6     2     4    10         180.00000
   49 Torsion                  7     1     5    11           0.00000
   50 Torsion                  7     1     6    12           0.00000
   51 Torsion                  8     2     4    10           0.00000
   52 Torsion                  8     2     6    12           0.00000
   53 Torsion                  9     3     4    10           0.00000
   54 Torsion                  9     3     5    11           0.00000


            XYZ format geometry
            -------------------
    12
 geometry
 C                     0.98059137     0.98059137     0.00000000
 C                    -1.33951272     0.35892135     0.00000000
 C                     0.35892135    -1.33951272     0.00000000
 C                    -0.98059137    -0.98059137     0.00000000
 C                     1.33951272    -0.35892135     0.00000000
 C                    -0.35892135     1.33951272     0.00000000
 H                     1.74604855     1.74604855     0.00000000
 H                    -2.38514668     0.63909813     0.00000000
 H                     0.63909813    -2.38514668     0.00000000
 H                    -1.74604855    -1.74604855     0.00000000
 H                     2.38514668    -0.63909813     0.00000000
 H                    -0.63909813     2.38514668     0.00000000

 ==============================================================================
                                internuclear distances
 ------------------------------------------------------------------------------
       center one      |      center two      | atomic units |       a.u.
 ------------------------------------------------------------------------------
    4 C                |   2 C                |     2.62061  |     2.62061
    4 C                |   3 C                |     2.62061  |     2.62061
    5 C                |   1 C                |     2.62061  |     2.62061
    5 C                |   3 C                |     2.62061  |     2.62061
    6 C                |   1 C                |     2.62061  |     2.62061
    6 C                |   2 C                |     2.62061  |     2.62061
    7 H                |   1 C                |     2.04567  |     2.04567
    8 H                |   2 C                |     2.04567  |     2.04567
    9 H                |   3 C                |     2.04567  |     2.04567
   10 H                |   4 C                |     2.04567  |     2.04567
   11 H                |   5 C                |     2.04567  |     2.04567
   12 H                |   6 C                |     2.04567  |     2.04567
 ------------------------------------------------------------------------------
                         number of included internuclear distances:         12
 ==============================================================================



 ==============================================================================
                                 internuclear angles
 ------------------------------------------------------------------------------
        center 1       |       center 2       |       center 3       |  degrees
 ------------------------------------------------------------------------------
    5 C                |   1 C                |   6 C                |   120.00
    5 C                |   1 C                |   7 H                |   120.00
    6 C                |   1 C                |   7 H                |   120.00
    4 C                |   2 C                |   6 C                |   120.00
    4 C                |   2 C                |   8 H                |   120.00
    6 C                |   2 C                |   8 H                |   120.00
    4 C                |   3 C                |   5 C                |   120.00
    4 C                |   3 C                |   9 H                |   120.00
    5 C                |   3 C                |   9 H                |   120.00
    2 C                |   4 C                |   3 C                |   120.00
    2 C                |   4 C                |  10 H                |   120.00
    3 C                |   4 C                |  10 H                |   120.00
    1 C                |   5 C                |   3 C                |   120.00
    1 C                |   5 C                |  11 H                |   120.00
    3 C                |   5 C                |  11 H                |   120.00
    1 C                |   6 C                |   2 C                |   120.00
    1 C                |   6 C                |  12 H                |   120.00
    2 C                |   6 C                |  12 H                |   120.00
 ------------------------------------------------------------------------------
                            number of included internuclear angles:         18
 ==============================================================================



  library name resolved from: .nwchemrc
  library file name is: </home/d3y133/nwchem-releases/nwchem-6.0-gfortran/QA/../src/basis/libraries/>
  
                      Basis "ao basis" -> "" (cartesian)
                      -----
  H (Hydrogen)
  ------------
            Exponent  Coefficients 
       -------------- ---------------------------------------------------------
  1 S  3.42525091E+00  0.154329
  1 S  6.23913730E-01  0.535328
  1 S  1.68855400E-01  0.444635

  C (Carbon)
  ----------
            Exponent  Coefficients 
       -------------- ---------------------------------------------------------
  1 S  7.16168370E+01  0.154329
  1 S  1.30450960E+01  0.535328
  1 S  3.53051220E+00  0.444635

  2 S  2.94124940E+00 -0.099967
  2 S  6.83483100E-01  0.399513
  2 S  2.22289900E-01  0.700115

  3 P  2.94124940E+00  0.155916
  3 P  6.83483100E-01  0.607684
  3 P  2.22289900E-01  0.391957



 Summary of "ao basis" -> "" (cartesian)
 ------------------------------------------------------------------------------
       Tag                 Description            Shells   Functions and Types
 ---------------- ------------------------------  ------  ---------------------
 H                           sto-3g                  1        1   1s
 C                           sto-3g                  3        5   2s1p




                   NWChem Nuclear Hessian and Frequency Analysis
                   ---------------------------------------------



                              NWChem Analytic Hessian
                              -----------------------

                                 NWChem SCF Module
                                 -----------------


                                 benzene in sto-3g



  ao basis        = "ao basis"
  functions       =    36
  atoms           =    12
  closed shells   =    21
  open shells     =     0
  charge          =   0.00
  wavefunction    = RHF 
  input vectors   = atomic
  output vectors  = ./c6h6.movecs
  use symmetry    = F
  symmetry adapt  = F


 Summary of "ao basis" -> "ao basis" (cartesian)
 ------------------------------------------------------------------------------
       Tag                 Description            Shells   Functions and Types
 ---------------- ------------------------------  ------  ---------------------
 H                           sto-3g                  1        1   1s
 C                           sto-3g                  3        5   2s1p



 Forming initial guess at       0.1s


      Superposition of Atomic Density Guess
      -------------------------------------

 Sum of atomic energies:        -225.86895105

      Non-variational initial energy
      ------------------------------

 Total energy =    -228.045367
 1-e energy   =    -714.663818
 2-e energy   =     282.079023
 HOMO         =      -0.101843
 LUMO         =       0.232560


 Starting SCF solution at       0.3s



 ----------------------------------------------
         Quadratically convergent ROHF

 Convergence threshold     :          1.000E-06
 Maximum no. of iterations :           30
 Final Fock-matrix accuracy:          1.000E-08
 ----------------------------------------------


              iter       energy          gnorm     gmax       time
             ----- ------------------- --------- --------- --------
                 1     -227.8564643835  5.70D-01  2.22D-01      0.4
                 2     -227.8912747193  3.08D-02  1.33D-02      0.8
                 3     -227.8913603756  3.60D-04  1.50D-04      1.3
                 4     -227.8913603815  3.75D-08  1.50D-08      2.2


       Final RHF  results 
       ------------------ 

         Total SCF energy =   -227.891360381535
      One-electron energy =   -713.847676398154
      Two-electron energy =    281.416887877978
 Nuclear repulsion energy =    204.539428138641

        Time for solution =      2.1s


             Final eigenvalues
             -----------------

              1      
    1  -11.0293
    2  -11.0293
    3  -11.0292
    4  -11.0288
    5  -11.0288
    6  -11.0287
    7   -1.0957
    8   -0.9582
    9   -0.9582
   10   -0.7690
   11   -0.7690
   12   -0.6658
   13   -0.5937
   14   -0.5573
   15   -0.5361
   16   -0.5361
   17   -0.4609
   18   -0.4338
   19   -0.4338
   20   -0.2827
   21   -0.2827
   22    0.2708
   23    0.2708
   24    0.5091
   25    0.5793
   26    0.6500
   27    0.6500
   28    0.7292
   29    0.7437
   30    0.7437
   31    0.8902

                       ROHF Final Molecular Orbital Analysis
                       -------------------------------------

 Vector    7  Occ=2.000000D+00  E=-1.095688D+00
              MO Center= -1.9D-13, -5.2D-15,  2.1D-16, r^2= 2.1D+00
   Bfn.  Coefficient  Atom+Function         Bfn.  Coefficient  Atom+Function  
  ----- ------------  ---------------      ----- ------------  ---------------
    17      0.263506   4 C  s                 2      0.263506   1 C  s         
     7      0.263506   2 C  s                27      0.263506   6 C  s         
    12      0.263506   3 C  s                22      0.263506   5 C  s         

 Vector    8  Occ=2.000000D+00  E=-9.581599D-01
              MO Center=  3.6D-14,  1.0D-13,  3.0D-16, r^2= 2.9D+00
   Bfn.  Coefficient  Atom+Function         Bfn.  Coefficient  Atom+Function  
  ----- ------------  ---------------      ----- ------------  ---------------
     2      0.394126   1 C  s                17     -0.394126   4 C  s         
    22      0.197074   5 C  s                 7     -0.197074   2 C  s         
    27      0.197052   6 C  s                12     -0.197052   3 C  s         

 Vector    9  Occ=2.000000D+00  E=-9.581599D-01
              MO Center= -4.2D-16, -1.2D-13, -1.2D-16, r^2= 2.9D+00
   Bfn.  Coefficient  Atom+Function         Bfn.  Coefficient  Atom+Function  
  ----- ------------  ---------------      ----- ------------  ---------------
    12      0.341330   3 C  s                27     -0.341330   6 C  s         
     7     -0.341317   2 C  s                22      0.341317   5 C  s         

 Vector   10  Occ=2.000000D+00  E=-7.690193D-01
              MO Center= -5.2D-14,  1.2D-14,  4.1D-18, r^2= 3.8D+00
   Bfn.  Coefficient  Atom+Function         Bfn.  Coefficient  Atom+Function  
  ----- ------------  ---------------      ----- ------------  ---------------
     2      0.334988   1 C  s                17      0.334988   4 C  s         
    28      0.205878   6 C  px               13     -0.205878   3 C  px        
     9     -0.205876   2 C  py               24      0.205876   5 C  py        
    34      0.177033  10 H  s                31      0.177033   7 H  s         
    22     -0.167497   5 C  s                 7     -0.167497   2 C  s         

 Vector   11  Occ=2.000000D+00  E=-7.690193D-01
              MO Center= -3.0D-15, -3.4D-14, -1.7D-17, r^2= 3.8D+00
   Bfn.  Coefficient  Atom+Function         Bfn.  Coefficient  Atom+Function  
  ----- ------------  ---------------      ----- ------------  ---------------
    27      0.290110   6 C  s                12      0.290110   3 C  s         
    22     -0.290107   5 C  s                 7     -0.290107   2 C  s         
    18      0.164899   4 C  px                3     -0.164899   1 C  px        
    19     -0.164898   4 C  py                4      0.164898   1 C  py        
    36      0.153316  12 H  s                33      0.153316   9 H  s         

 Vector   12  Occ=2.000000D+00  E=-6.657572D-01
              MO Center= -2.0D-13, -5.8D-14, -9.3D-17, r^2= 4.2D+00
   Bfn.  Coefficient  Atom+Function         Bfn.  Coefficient  Atom+Function  
  ----- ------------  ---------------      ----- ------------  ---------------
     8      0.226061   2 C  px               29     -0.226061   6 C  py        
    14      0.226061   3 C  py               23     -0.226061   5 C  px        
    34     -0.174805  10 H  s                31     -0.174805   7 H  s         
    32     -0.174805   8 H  s                36     -0.174805  12 H  s         
    33     -0.174805   9 H  s                35     -0.174805  11 H  s         

 Vector   13  Occ=2.000000D+00  E=-5.936949D-01
              MO Center= -1.1D-13, -4.5D-14,  6.8D-16, r^2= 5.3D+00
   Bfn.  Coefficient  Atom+Function         Bfn.  Coefficient  Atom+Function  
  ----- ------------  ---------------      ----- ------------  ---------------
    31      0.232364   7 H  s                34     -0.232364  10 H  s         
    32      0.232364   8 H  s                35     -0.232364  11 H  s         
    36     -0.232364  12 H  s                33      0.232364   9 H  s         
    12      0.218439   3 C  s                 7      0.218439   2 C  s         
    27     -0.218439   6 C  s                22     -0.218439   5 C  s         

 Vector   14  Occ=2.000000D+00  E=-5.572842D-01
              MO Center=  3.0D-14,  9.6D-16, -1.8D-27, r^2= 2.7D+00
   Bfn.  Coefficient  Atom+Function         Bfn.  Coefficient  Atom+Function  
  ----- ------------  ---------------      ----- ------------  ---------------
    13      0.320837   3 C  px               28      0.320837   6 C  px        
     9     -0.320837   2 C  py               24     -0.320837   5 C  py        
     3     -0.234869   1 C  px               18     -0.234869   4 C  px        
    19      0.234869   4 C  py                4      0.234869   1 C  py        

 Vector   15  Occ=2.000000D+00  E=-5.361056D-01
              MO Center=  1.3D-14,  1.2D-13,  1.7D-17, r^2= 3.9D+00
   Bfn.  Coefficient  Atom+Function         Bfn.  Coefficient  Atom+Function  
  ----- ------------  ---------------      ----- ------------  ---------------
    31      0.282557   7 H  s                34     -0.282557  10 H  s         
    19      0.261501   4 C  py                4      0.261501   1 C  py        
     3      0.261499   1 C  px               18      0.261499   4 C  px        
    23      0.155859   5 C  px                8      0.155859   2 C  px        
    29      0.155853   6 C  py               14      0.155853   3 C  py        

 Vector   16  Occ=2.000000D+00  E=-5.361056D-01
              MO Center= -3.5D-14, -1.3D-13, -6.2D-18, r^2= 3.9D+00
   Bfn.  Coefficient  Atom+Function         Bfn.  Coefficient  Atom+Function  
  ----- ------------  ---------------      ----- ------------  ---------------
    14      0.322495   3 C  py               29      0.322495   6 C  py        
     8     -0.322492   2 C  px               23     -0.322492   5 C  px        
    33     -0.244703   9 H  s                36      0.244703  12 H  s         
    32      0.244700   8 H  s                35     -0.244700  11 H  s         

 Vector   17  Occ=2.000000D+00  E=-4.609188D-01
              MO Center= -1.2D-13, -3.9D-14,  2.0D-17, r^2= 2.6D+00
   Bfn.  Coefficient  Atom+Function         Bfn.  Coefficient  Atom+Function  
  ----- ------------  ---------------      ----- ------------  ---------------
    20      0.333324   4 C  pz                5      0.333324   1 C  pz        
    10      0.333324   2 C  pz               15      0.333324   3 C  pz        
    30      0.333324   6 C  pz               25      0.333324   5 C  pz        

 Vector   18  Occ=2.000000D+00  E=-4.337944D-01
              MO Center=  2.8D-13,  1.4D-13,  5.6D-20, r^2= 4.0D+00
   Bfn.  Coefficient  Atom+Function         Bfn.  Coefficient  Atom+Function  
  ----- ------------  ---------------      ----- ------------  ---------------
    31      0.299150   7 H  s                34      0.299150  10 H  s         
    13      0.242271   3 C  px               28     -0.242271   6 C  px        
    24     -0.242142   5 C  py                9      0.242142   2 C  py        
    23     -0.211423   5 C  px                8      0.211423   2 C  px        
    14      0.211312   3 C  py               29     -0.211312   6 C  py        

 Vector   19  Occ=2.000000D+00  E=-4.337944D-01
              MO Center=  2.5D-13,  4.1D-14, -8.2D-19, r^2= 4.0D+00
   Bfn.  Coefficient  Atom+Function         Bfn.  Coefficient  Atom+Function  
  ----- ------------  ---------------      ----- ------------  ---------------
    36      0.259115  12 H  s                33      0.259115   9 H  s         
    35     -0.259029  11 H  s                32     -0.259029   8 H  s         
     4     -0.235747   1 C  py               19      0.235747   4 C  py        
     3      0.235632   1 C  px               18     -0.235632   4 C  px        
    24      0.224471   5 C  py                9     -0.224471   2 C  py        

 Vector   20  Occ=2.000000D+00  E=-2.826632D-01
              MO Center=  8.7D-14,  8.8D-14, -8.0D-17, r^2= 2.6D+00
   Bfn.  Coefficient  Atom+Function         Bfn.  Coefficient  Atom+Function  
  ----- ------------  ---------------      ----- ------------  ---------------
     5      0.531263   1 C  pz               20     -0.531263   4 C  pz        
    30      0.265633   6 C  pz               15     -0.265633   3 C  pz        
    25      0.265631   5 C  pz               10     -0.265631   2 C  pz        

 Vector   21  Occ=2.000000D+00  E=-2.826632D-01
              MO Center=  4.2D-14, -3.9D-14,  2.3D-16, r^2= 2.6D+00
   Bfn.  Coefficient  Atom+Function         Bfn.  Coefficient  Atom+Function  
  ----- ------------  ---------------      ----- ------------  ---------------
    25      0.460088   5 C  pz               10     -0.460088   2 C  pz        
    15      0.460087   3 C  pz               30     -0.460087   6 C  pz        

 Vector   22  Occ=0.000000D+00  E= 2.707617D-01
              MO Center= -4.7D-14, -4.5D-14, -6.3D-17, r^2= 2.7D+00
   Bfn.  Coefficient  Atom+Function         Bfn.  Coefficient  Atom+Function  
  ----- ------------  ---------------      ----- ------------  ---------------
    20      0.659712   4 C  pz                5      0.659712   1 C  pz        
    15     -0.329860   3 C  pz               30     -0.329860   6 C  pz        
    10     -0.329852   2 C  pz               25     -0.329852   5 C  pz        

 Vector   23  Occ=0.000000D+00  E= 2.707617D-01
              MO Center= -3.3D-14,  3.0D-14, -8.5D-17, r^2= 2.7D+00
   Bfn.  Coefficient  Atom+Function         Bfn.  Coefficient  Atom+Function  
  ----- ------------  ---------------      ----- ------------  ---------------
    10      0.571329   2 C  pz               25      0.571329   5 C  pz        
    30     -0.571325   6 C  pz               15     -0.571325   3 C  pz        

 Vector   24  Occ=0.000000D+00  E= 5.091219D-01
              MO Center=  7.2D-14,  7.8D-15, -1.7D-15, r^2= 2.7D+00
   Bfn.  Coefficient  Atom+Function         Bfn.  Coefficient  Atom+Function  
  ----- ------------  ---------------      ----- ------------  ---------------
    25      0.524401   5 C  pz               15     -0.524401   3 C  pz        
    30      0.524401   6 C  pz               10     -0.524401   2 C  pz        
     5     -0.524401   1 C  pz               20      0.524401   4 C  pz        

 Vector   25  Occ=0.000000D+00  E= 5.792548D-01
              MO Center= -4.8D-13, -1.9D-13,  4.5D-18, r^2= 5.6D+00
   Bfn.  Coefficient  Atom+Function         Bfn.  Coefficient  Atom+Function  
  ----- ------------  ---------------      ----- ------------  ---------------
    34      0.512477  10 H  s                31      0.512477   7 H  s         
    32      0.512477   8 H  s                33      0.512477   9 H  s         
    36      0.512477  12 H  s                35      0.512477  11 H  s         
     7     -0.335058   2 C  s                12     -0.335058   3 C  s         
    27     -0.335058   6 C  s                22     -0.335058   5 C  s         

 Vector   26  Occ=0.000000D+00  E= 6.499592D-01
              MO Center=  1.2D-13, -2.0D-13, -1.5D-17, r^2= 4.8D+00
   Bfn.  Coefficient  Atom+Function         Bfn.  Coefficient  Atom+Function  
  ----- ------------  ---------------      ----- ------------  ---------------
    35      0.569424  11 H  s                32     -0.569424   8 H  s         
    33      0.569403   9 H  s                36     -0.569403  12 H  s         
     8     -0.424094   2 C  px               23     -0.424094   5 C  px        
    14      0.424072   3 C  py               29      0.424072   6 C  py        
    13     -0.279203   3 C  px               28     -0.279203   6 C  px        

 Vector   27  Occ=0.000000D+00  E= 6.499592D-01
              MO Center=  3.0D-13,  3.3D-13, -1.8D-17, r^2= 4.8D+00
   Bfn.  Coefficient  Atom+Function         Bfn.  Coefficient  Atom+Function  
  ----- ------------  ---------------      ----- ------------  ---------------
    31      0.657502   7 H  s                34     -0.657502  10 H  s         
     4     -0.393472   1 C  py               19     -0.393472   4 C  py        
    18     -0.393457   4 C  px                3     -0.393457   1 C  px        
    29     -0.340446   6 C  py               14     -0.340446   3 C  py        
    23     -0.340419   5 C  px                8     -0.340419   2 C  px        

 Vector   28  Occ=0.000000D+00  E= 7.291948D-01
              MO Center= -1.4D-13,  1.5D-12,  1.6D-15, r^2= 4.7D+00
   Bfn.  Coefficient  Atom+Function         Bfn.  Coefficient  Atom+Function  
  ----- ------------  ---------------      ----- ------------  ---------------
     2      0.754850   1 C  s                17     -0.754850   4 C  s         
    27     -0.754850   6 C  s                 7      0.754850   2 C  s         
    22     -0.754850   5 C  s                12      0.754850   3 C  s         
    31     -0.454155   7 H  s                34      0.454155  10 H  s         
    36      0.454155  12 H  s                32     -0.454155   8 H  s         

 Vector   29  Occ=0.000000D+00  E= 7.436501D-01
              MO Center= -7.2D-13, -6.7D-13,  2.9D-17, r^2= 3.7D+00
   Bfn.  Coefficient  Atom+Function         Bfn.  Coefficient  Atom+Function  
  ----- ------------  ---------------      ----- ------------  ---------------
    17      1.058145   4 C  s                 2      1.058145   1 C  s         
    12     -0.529084   3 C  s                27     -0.529084   6 C  s         
     7     -0.529061   2 C  s                22     -0.529061   5 C  s         
    34     -0.485853  10 H  s                31     -0.485853   7 H  s         
    24     -0.359056   5 C  py                9      0.359056   2 C  py        

 Vector   30  Occ=0.000000D+00  E= 7.436501D-01
              MO Center=  6.1D-13, -8.8D-13,  4.6D-16, r^2= 3.7D+00
   Bfn.  Coefficient  Atom+Function         Bfn.  Coefficient  Atom+Function  
  ----- ------------  ---------------      ----- ------------  ---------------
    22      0.916387   5 C  s                 7      0.916387   2 C  s         
    12     -0.916374   3 C  s                27     -0.916374   6 C  s         
    35     -0.420764  11 H  s                32     -0.420764   8 H  s         
    33      0.420758   9 H  s                36      0.420758  12 H  s         
    19     -0.301530   4 C  py                4      0.301530   1 C  py        

 Vector   31  Occ=0.000000D+00  E= 8.902107D-01
              MO Center=  1.0D-14,  1.5D-14,  6.1D-17, r^2= 3.4D+00
   Bfn.  Coefficient  Atom+Function         Bfn.  Coefficient  Atom+Function  
  ----- ------------  ---------------      ----- ------------  ---------------
    18      0.575644   4 C  px                3     -0.575644   1 C  px        
     4     -0.575644   1 C  py               19      0.575644   4 C  py        
    34      0.543010  10 H  s                31      0.543010   7 H  s         
    14     -0.339175   3 C  py               29      0.339175   6 C  py        
     8     -0.339174   2 C  px               23      0.339174   5 C  px        


 center of mass
 --------------
 x =   0.00000000 y =   0.00000000 z =   0.00000000

 moments of inertia (a.u.)
 ------------------
         313.066381755876           0.000000000000           0.000000000000
           0.000000000000         313.066381755876           0.000000000000
           0.000000000000           0.000000000000         626.132763511752

  Mulliken analysis of the total density
  --------------------------------------

    Atom       Charge   Shell Charges
 -----------   ------   -------------------------------------------------------
    1 C    6     6.06   1.99  1.13  2.94
    2 C    6     6.06   1.99  1.13  2.94
    3 C    6     6.06   1.99  1.13  2.94
    4 C    6     6.06   1.99  1.13  2.94
    5 C    6     6.06   1.99  1.13  2.94
    6 C    6     6.06   1.99  1.13  2.94
    7 H    1     0.94   0.94
    8 H    1     0.94   0.94
    9 H    1     0.94   0.94
   10 H    1     0.94   0.94
   11 H    1     0.94   0.94
   12 H    1     0.94   0.94

       Multipole analysis of the density wrt the origin
       ------------------------------------------------

     L   x y z        total         open         nuclear
     -   - - -        -----         ----         -------
     0   0 0 0      0.000000      0.000000     42.000000

     1   1 0 0      0.000000      0.000000      0.000000
     1   0 1 0      0.000000      0.000000      0.000000
     1   0 0 1      0.000000      0.000000      0.000000

     2   2 0 0    -23.218692      0.000000    188.938774
     2   1 1 0      0.000000      0.000000      0.000000
     2   1 0 1      0.000000      0.000000      0.000000
     2   0 2 0    -23.218692      0.000000    188.938774
     2   0 1 1      0.000000      0.000000      0.000000
     2   0 0 2    -26.074513      0.000000      0.000000


 HESSIAN: the one electron contributions are done in       0.2s


 HESSIAN: 2-el 1st deriv. term done in                     0.6s


 HESSIAN: 2-el 2nd deriv. term done in                     2.0s

  stpr_wrt_fd_from_sq: overwrite of existing file:./c6h6.hess
 stpr_wrt_fd_dipole: overwrite of existing file./c6h6.fd_ddipole

 HESSIAN: the two electron contributions are done in       3.8s

                                NWChem CPHF Module
                                ------------------


  scftype          =     RHF 
  nclosed          =       21
  nopen            =        0
  variables        =      315
  # of vectors     =       36
  tolerance        = 0.10D-03
  level shift      = 0.00D+00
  max iterations   =       50
  max subspace     =      360



Iterative solution of linear equations
  No. of variables      315
  No. of equations       36
  Maximum subspace      360
        Iterations       50
       Convergence  1.0D-04
        Start time      9.9


   iter   nsub   residual    time
   ----  ------  --------  ---------
     1     36    1.64D-01      10.4
     2     72    2.25D-02      10.8
     3    108    1.57D-03      11.3
     4    144    9.62D-05      11.8
 HESSIAN: the CPHF contributions are done
  stpr_wrt_fd_from_sq: overwrite of existing file:./c6h6.hess
 stpr_wrt_fd_dipole: overwrite of existing file./c6h6.fd_ddipole
 HESSIAN: the Hessian is done


  Vibrational analysis via the FX method 

  See chapter 2 in "Molecular Vibrations" by Wilson, Decius and Cross

  Vib: Default input used 

  Nuclear Hessian passed symmetry test 



 ---------------------------- Atom information ----------------------------
     atom    #        X              Y              Z            mass
 --------------------------------------------------------------------------
    C        1  1.8530490D+00  1.8530490D+00  0.0000000D+00  1.2000000D+01
    C        2 -2.5313120D+00  6.7826301D-01  0.0000000D+00  1.2000000D+01
    C        3  6.7826301D-01 -2.5313120D+00  0.0000000D+00  1.2000000D+01
    C        4 -1.8530490D+00 -1.8530490D+00  0.0000000D+00  1.2000000D+01
    C        5  2.5313120D+00 -6.7826301D-01  0.0000000D+00  1.2000000D+01
    C        6 -6.7826301D-01  2.5313120D+00  0.0000000D+00  1.2000000D+01
    H        7  3.2995533D+00  3.2995533D+00  0.0000000D+00  1.0078250D+00
    H        8 -4.5072737D+00  1.2077203D+00  0.0000000D+00  1.0078250D+00
    H        9  1.2077203D+00 -4.5072737D+00  0.0000000D+00  1.0078250D+00
    H       10 -3.2995533D+00 -3.2995533D+00  0.0000000D+00  1.0078250D+00
    H       11  4.5072737D+00 -1.2077203D+00  0.0000000D+00  1.0078250D+00
    H       12 -1.2077203D+00  4.5072737D+00  0.0000000D+00  1.0078250D+00
 --------------------------------------------------------------------------




          ----------------------------------------------------
          MASS-WEIGHTED NUCLEAR HESSIAN (Hartree/Bohr/Bohr/Kamu)
          ----------------------------------------------------


              1           2           3           4           5           6           7           8           9          10
   ----- ----- ----- ----- -----
    1   7.77186D+01
    2   7.95592D+00 7.77186D+01
    3   1.57430D-13-1.75237D-13 1.56975D+01
    4  -6.56883D+00 8.37907D-01 4.82529D-14 8.46087D+01
    5  -1.12311D+01 1.14327D+01 1.52567D-13-3.97796D+00 7.08286D+01
    6  -1.19213D-13 5.01739D-14 8.74292D-01-2.28980D-14-2.48929D-13 1.56975D+01
    7   1.14327D+01-1.12311D+01-9.96649D-14 2.43192D+00 1.64277D+01 2.07862D-13 7.08286D+01
    8   8.37907D-01-6.56883D+00 2.33094D-14 4.35869D+00 2.43193D+00 1.20182D-13-3.97796D+00 8.46087D+01
    9  -7.66269D-14 7.40095D-14 8.74292D-01 2.27375D-14-9.32295D-14 8.74283D-01 1.31782D-13-3.45757D-14 1.56975D+01
   10  -7.43523D+00 7.55464D+00 1.26427D-13-1.78086D+01-2.95108D+00 6.47111D-14-3.35121D+01 1.20175D+01 9.68297D-15 7.77186D+01
   11   7.55464D+00-7.43523D+00-1.63834D-13 1.20175D+01-3.35121D+01-1.54317D-13-2.95108D+00-1.78086D+01 1.21387D-15 7.95592D+00
   12   1.67907D-13-1.80794D-13-1.00363D+00 2.33457D-14 1.44438D-13-7.25836D+00-1.37193D-13 1.30016D-14-7.25836D+00 1.46955D-13
   13  -1.78086D+01 1.20175D+01-8.37736D-14-8.92707D-01-3.77731D+00-6.38535D-14-2.56604D+01-1.65507D+01-1.29317D-13-6.56883D+00
   14  -2.95107D+00-3.35121D+01-1.03669D-13-3.77731D+00-1.39777D+01-2.00210D-13-1.58215D+00-2.56604D+01 5.13161D-14-1.12311D+01
   15  -8.67634D-14 2.88204D-14-7.25836D+00-3.83032D-14-1.49513D-13-1.00359D+00 1.10539D-14 8.70765D-14-7.25839D+00-1.17691D-13
   16  -3.35121D+01-2.95107D+00-2.95995D-14-2.56604D+01-1.58215D+00-3.02105D-13-1.39777D+01-3.77731D+00-6.20497D-14 1.14327D+01
   17   1.20175D+01-1.78086D+01 3.00167D-15-1.65507D+01-2.56604D+01-6.78625D-15-3.77731D+00-8.92707D-01-8.21714D-14 8.37907D-01
   18   1.37376D-14 1.08432D-13-7.25836D+00-7.78642D-14-6.45344D-14-7.25839D+00 3.69659D-14-1.68026D-14-1.00359D+00 1.05231D-13
   19  -8.00230D+01-5.65969D+01 1.24199D-13-1.62834D+00 1.18038D+00 2.60367D-13-2.21064D-01 6.26992D-01 5.71922D-14 1.98206D-01
   20  -5.65969D+01-8.00230D+01 1.25049D-13 6.26992D-01-2.21064D-01 2.77483D-13 1.18038D+00-1.62834D+00 1.07840D-13 4.40174D-01
   21  -1.09663D-14-4.27491D-14-1.53275D+01 4.36653D-14 1.05335D-13 3.03023D+00 4.18853D-14 2.91781D-14 3.03023D+00-1.13818D-14
   22  -4.93906D-01-1.33791D+00-7.27423D-14-1.29037D+02 2.82985D+01-6.91287D-14 2.09737D-01 4.34217D-01 8.43537D-14-1.65460D-03
   23  -7.84515D-01-1.35549D+00 5.51888D-14 2.82985D+01-3.10086D+01 8.07788D-14-1.19168D-01-2.05914D+00 8.30394D-15 1.14474D+01
   24  -3.24423D-14 7.39785D-14 3.03025D+00-5.59655D-14 2.84614D-14-1.53275D+01-1.58108D-13-2.52049D-14 3.03023D+00 7.73393D-14
   25  -1.35549D+00-7.84515D-01-4.05352D-14-2.05914D+00-1.19168D-01-1.20044D-13-3.10086D+01 2.82985D+01-1.27750D-13-5.40641D-01
   26  -1.33791D+00-4.93906D-01 2.50619D-13 4.34217D-01 2.09737D-01 2.21876D-13 2.82985D+01-1.29037D+02 2.19295D-13-2.11122D+00
   27  -5.63908D-14 3.47985D-14 3.03025D+00 5.52893D-14 2.19078D-13 3.03023D+00-6.99342D-14 5.63188D-14-1.53275D+01 1.13794D-13
   28   1.98206D-01 4.40174D-01-1.52000D-13 3.90627D+00 4.67864D+00-4.00674D-13-4.44855D+00-8.87993D+00-8.90854D-14-8.00230D+01
   29   4.40174D-01 1.98206D-01-1.09265D-13-8.87993D+00-4.44855D+00-2.17597D-13 4.67864D+00 3.90627D+00-1.48033D-13-5.65969D+01
   30   2.20403D-14 2.18129D-14-2.96935D-01-8.25275D-14 1.00868D-13 1.45945D+00 1.08330D-13 7.95941D-14 1.45945D+00 2.48436D-14
   31  -1.65460D-03-2.11122D+00 1.23710D-13 5.79401D-01-2.20084D-01-6.86756D-14-4.17906D+00 4.21186D+00-7.19473D-14-4.93906D-01
   32   1.14474D+01-5.40641D-01 8.16396D-14-2.20097D-01-1.82996D-01 4.32413D-14-9.34671D+00 3.63677D+00-4.26103D-14-7.84515D-01
   33  -6.82355D-14 1.94087D-13 1.45946D+00-3.49788D-14-1.12334D-13-2.96957D-01 4.75314D-14 3.78030D-14 1.45946D+00-4.55726D-14
   34  -5.40641D-01 1.14474D+01-3.40597D-15 3.63677D+00-9.34671D+00 2.26844D-13-1.82996D-01-2.20097D-01 4.83358D-14-1.35549D+00
   35  -2.11122D+00-1.65460D-03-2.17164D-13 4.21186D+00-4.17906D+00-2.38355D-13-2.20084D-01 5.79401D-01-1.10553D-13-1.33791D+00
   36  -4.88642D-14 4.44845D-14 1.45946D+00 9.05684D-14 1.82629D-13 1.45946D+00-8.23440D-14 3.45327D-14-2.96957D-01 9.66218D-14


             11          12          13          14          15          16          17          18          19          20
   ----- ----- ----- ----- -----
   11   7.77186D+01
   12  -9.99568D-14 1.56975D+01
   13   8.37907D-01 5.74093D-14 8.46087D+01
   14   1.14327D+01 1.11927D-13-3.97796D+00 7.08286D+01
   15   4.22147D-14 8.74292D-01 1.23543D-14-1.08116D-13 1.56975D+01
   16  -1.12311D+01 1.26398D-13 2.43192D+00 1.64277D+01 1.19703D-13 7.08286D+01
   17  -6.56883D+00 3.39672D-14 4.35869D+00 2.43193D+00 6.50263D-14-3.97796D+00 8.46087D+01
   18   2.69084D-14 8.74292D-01-1.07173D-13-1.46117D-13 8.74283D-01 3.01262D-14 3.63200D-14 1.56975D+01
   19   4.40174D-01-1.30526D-13 3.90627D+00 4.67864D+00-1.94146D-14-4.44855D+00-8.87993D+00-1.95859D-13 2.79997D+02
   20   1.98206D-01-1.52282D-13-8.87993D+00-4.44855D+00-1.48235D-13 4.67864D+00 3.90627D+00-1.33295D-13 2.03653D+02 2.79997D+02
   21  -3.16235D-14-2.96935D-01 1.85918D-14-5.43818D-14 1.45945D+00-1.21920D-13-6.91669D-14 1.45945D+00 8.03348D-14 2.40819D-13
   22  -2.11122D+00-1.79164D-13 5.79401D-01-2.20084D-01-4.84646D-14-4.17906D+00 4.21186D+00 8.82783D-14-6.12622D-01 6.30269D-01
   23  -5.40641D-01-4.84280D-14-2.20097D-01-1.82996D-01 1.71390D-14-9.34671D+00 3.63677D+00 8.61919D-15-1.36206D+00 6.54698D-01
   24  -9.14552D-14 1.45946D+00 5.12621D-14 5.19765D-14-2.96957D-01 1.01007D-13-1.02368D-13 1.45946D+00 1.60247D-14-3.89913D-14
   25   1.14474D+01 1.71051D-13 3.63677D+00-9.34671D+00-7.62481D-14-1.82996D-01-2.20097D-01 5.52508D-14 6.54698D-01-1.36206D+00
   26  -1.65460D-03-2.35865D-15 4.21186D+00-4.17906D+00-1.35673D-13-2.20084D-01 5.79401D-01-2.31146D-13 6.30269D-01-6.12622D-01
   27  -1.83692D-13 1.45946D+00 3.37632D-14-6.98891D-14 1.45946D+00-5.48917D-14-6.08777D-14-2.96957D-01 2.58055D-14 4.23600D-14
   28  -5.65969D+01 2.18994D-13-1.62834D+00 1.18038D+00 2.01157D-13-2.21064D-01 6.26992D-01 1.58482D-13-1.01631D-01-3.46731D-01
   29  -8.00230D+01 9.95072D-14 6.26992D-01-2.21064D-01 1.69504D-13 1.18038D+00-1.62834D+00 3.95251D-14-3.46731D-01-1.01631D-01
   30  -3.83244D-14-1.53275D+01-2.83693D-14-6.82690D-14 3.03023D+00-2.56359D-14-4.55172D-14 3.03023D+00 1.02345D-14 2.47768D-14
   31  -1.33791D+00 6.09129D-14-1.29037D+02 2.82985D+01-1.21027D-13 2.09737D-01 4.34217D-01 3.26984D-14 1.41469D+00-1.61882D-01
   32  -1.35549D+00-9.17503D-15 2.82985D+01-3.10086D+01-3.77767D-14-1.19168D-01-2.05914D+00-5.42837D-14-3.76254D-01 2.34666D+00
   33   5.02500D-14 3.03025D+00-1.55066D-13-1.63942D-13-1.53275D+01 1.29549D-13 9.51498D-15 3.03023D+00-2.04659D-14 2.29839D-14
   34  -7.84515D-01-7.90477D-14-2.05914D+00-1.19168D-01-5.80219D-14-3.10086D+01 2.82985D+01-1.62444D-13 2.34666D+00-3.76254D-01
   35  -4.93906D-01 1.00889D-13 4.34217D-01 2.09737D-01 1.08922D-13 2.82985D+01-1.29037D+02 3.37542D-13-1.61882D-01 1.41469D+00
   36  -1.72272D-13 3.03025D+00 2.76273D-14-4.35038D-14 3.03023D+00-8.37798D-14 8.12010D-14-1.53275D+01-1.27904D-14-2.07673D-14


             21          22          23          24          25          26          27          28          29          30
   ----- ----- ----- ----- -----
   21   3.65384D+01
   22   3.38045D-14 4.56365D+02
   23   2.53998D-14-1.01826D+02 1.03628D+02
   24  -1.31831D-01 4.71509D-14 2.51571D-13 3.65383D+01
   25   2.12058D-14 2.10066D-02 1.72788D+00 4.76811D-14 1.03628D+02
   26  -7.65652D-14-2.64455D-01 2.10956D-02-1.80973D-14-1.01826D+02 4.56365D+02
   27  -1.31831D-01-5.45630D-15 1.60637D-14-1.31830D-01-6.50874D-14 1.93323D-13 3.65383D+01
   28   8.73413D-14 1.41467D+00-3.76212D-01 1.27908D-13 2.34669D+00-1.61840D-01 1.31782D-13 2.79997D+02
   29   7.67945D-14-1.61840D-01 2.34669D+00 1.27137D-13-3.76212D-01 1.41467D+00 1.27868D-13 2.03653D+02 2.79997D+02
   30  -1.43752D+00 7.70082D-14 4.02516D-15-5.95377D+00-7.03752D-14 4.70711D-14-5.95377D+00-9.67136D-15-1.98309D-13 3.65384D+01
   31   3.55524D-15-4.01892D-01 1.73380D-01 2.04116D-14 1.88070D+00 4.30903D-01-3.62491D-14-6.12622D-01 6.30269D-01 6.58928D-14
   32   1.34838D-14 1.73380D-01 1.98641D-01-1.97995D-14 6.45281D-01 1.88065D+00-1.69005D-15-1.36206D+00 6.54698D-01 2.07590D-14
   33  -5.95377D+00-4.00216D-14 2.50161D-14-1.43758D+00 3.04061D-14 8.47357D-14-5.95378D+00-4.21007D-15-7.32442D-16-1.31831D-01
   34  -1.00451D-14 1.88065D+00 6.45281D-01-4.02636D-14 1.98641D-01 1.73380D-01-7.05041D-14 6.54698D-01-1.36206D+00 5.41407D-14
   35   9.30742D-14 4.30903D-01 1.88070D+00 8.54224D-14 1.73380D-01-4.01892D-01 2.09763D-13 6.30269D-01-6.12622D-01-1.30318D-14
   36  -5.95377D+00-5.12009D-14-1.75691D-14-5.95378D+00 1.32131D-14-3.01252D-14-1.43758D+00 4.57077D-14 3.75207D-14-1.31831D-01


             31          32          33          34          35          36
   ----- ----- ----- ----- -----
   31   4.56365D+02
   32  -1.01826D+02 1.03628D+02
   33   3.94218D-13-1.87713D-13 3.65383D+01
   34   2.10066D-02 1.72788D+00-1.57219D-16 1.03628D+02
   35  -2.64455D-01 2.10956D-02 7.25985D-15-1.01826D+02 4.56365D+02
   36  -2.54895D-14-1.72088D-14-1.31830D-01 3.11479D-14-3.90328D-13 3.65383D+01



          -------------------------------------------------
          NORMAL MODE EIGENVECTORS IN CARTESIAN COORDINATES
          -------------------------------------------------
                 (Frequencies expressed in cm-1)

                    1           2           3           4           5           6
 
 Frequency         -8.13       -7.80       -7.80       -0.49       -0.03        0.49
 
           1     0.07405     0.00000     0.00000     0.09802     0.00000    -0.05660
           2    -0.07405     0.00000     0.00000     0.05660     0.00000     0.09802
           3     0.00000     0.14809     0.00000     0.00000     0.11320     0.00000
           4     0.02710     0.00000     0.00000     0.09802     0.00000    -0.05660
           5     0.10116     0.00000     0.00000     0.05660     0.00000     0.09802
           6     0.00000    -0.07405     0.12825     0.00000     0.11319     0.00000
           7    -0.10116     0.00000     0.00000     0.09802     0.00000    -0.05660
           8    -0.02710     0.00000     0.00000     0.05660     0.00000     0.09802
           9     0.00000    -0.07405    -0.12825     0.00000     0.11319     0.00000
          10    -0.07405     0.00000     0.00000     0.09803     0.00000    -0.05660
          11     0.07405     0.00000     0.00000     0.05660     0.00000     0.09802
          12     0.00000    -0.14810     0.00000     0.00000     0.11319     0.00000
          13    -0.02710     0.00000     0.00000     0.09803     0.00000    -0.05660
          14    -0.10116     0.00000     0.00000     0.05660     0.00000     0.09802
          15     0.00000     0.07405    -0.12825     0.00000     0.11319     0.00000
          16     0.10116     0.00000     0.00000     0.09802     0.00000    -0.05660
          17     0.02710     0.00000     0.00000     0.05660     0.00000     0.09803
          18     0.00000     0.07404     0.12825     0.00000     0.11319     0.00000
          19     0.13188     0.00000     0.00000     0.09802     0.00000    -0.05660
          20    -0.13188     0.00000     0.00000     0.05660     0.00000     0.09802
          21     0.00000     0.26382     0.00000     0.00000     0.11320     0.00000
          22     0.04827     0.00000     0.00000     0.09802     0.00000    -0.05660
          23     0.18016     0.00000     0.00000     0.05660     0.00000     0.09802
          24     0.00000    -0.13192     0.22848     0.00000     0.11319     0.00000
          25    -0.18016     0.00000     0.00000     0.09802     0.00000    -0.05660
          26    -0.04827     0.00000     0.00000     0.05660     0.00000     0.09802
          27     0.00000    -0.13191    -0.22848     0.00000     0.11319     0.00000
          28    -0.13188     0.00000     0.00000     0.09803     0.00000    -0.05660
          29     0.13188     0.00000     0.00000     0.05660     0.00000     0.09802
          30     0.00000    -0.26383     0.00000     0.00000     0.11319     0.00000
          31    -0.04827     0.00000     0.00000     0.09803     0.00000    -0.05660
          32    -0.18016     0.00000     0.00000     0.05660     0.00000     0.09802
          33     0.00000     0.13191    -0.22848     0.00000     0.11320     0.00000
          34     0.18016     0.00000     0.00000     0.09802     0.00000    -0.05660
          35     0.04827     0.00000     0.00000     0.05660     0.00000     0.09803
          36     0.00000     0.13191     0.22848     0.00000     0.11320     0.00000

                    7           8           9          10          11          12
 
 Frequency        477.96      477.96      700.13      700.13      810.43      841.19
 
           1     0.00000     0.00000     0.03484    -0.10691     0.00000     0.00000
           2     0.00000     0.00000    -0.05199    -0.09970     0.00000     0.00000
           3    -0.14177     0.00000     0.00000     0.00000    -0.03280     0.10454
           4     0.00000     0.00000    -0.13487    -0.04599     0.00000     0.00000
           5     0.00000     0.00000     0.00893     0.07001     0.00000     0.00000
           6     0.07089    -0.12278     0.00000     0.00000    -0.03280     0.10454
           7     0.00000     0.00000     0.00274     0.07052     0.00000     0.00000
           8     0.00000     0.00000     0.12544    -0.06760     0.00000     0.00000
           9     0.07088     0.12278     0.00000     0.00000    -0.03280     0.10454
          10     0.00000     0.00000    -0.03484     0.10691     0.00000     0.00000
          11     0.00000     0.00000     0.05199     0.09970     0.00000     0.00000
          12    -0.14177     0.00000     0.00000     0.00000    -0.03280    -0.10454
          13     0.00000     0.00000     0.13487     0.04599     0.00000     0.00000
          14     0.00000     0.00000    -0.00893    -0.07001     0.00000     0.00000
          15     0.07089    -0.12278     0.00000     0.00000    -0.03280    -0.10454
          16     0.00000     0.00000    -0.00274    -0.07052     0.00000     0.00000
          17     0.00000     0.00000    -0.12544     0.06760     0.00000     0.00000
          18     0.07088     0.12278     0.00000     0.00000    -0.03280    -0.10454
          19     0.00000     0.00000    -0.07068    -0.09921     0.00000     0.00000
          20     0.00000     0.00000     0.05335    -0.10951     0.00000     0.00000
          21    -0.30238     0.00000     0.00000     0.00000     0.39059     0.18776
          22     0.00000     0.00000    -0.11966    -0.08162     0.00000     0.00000
          23     0.00000     0.00000     0.07093    -0.06053     0.00000     0.00000
          24     0.15119    -0.26187     0.00000     0.00000     0.39059     0.18776
          25     0.00000     0.00000    -0.07994    -0.04800     0.00000     0.00000
          26     0.00000     0.00000     0.10455    -0.10024     0.00000     0.00000
          27     0.15119     0.26187     0.00000     0.00000     0.39059     0.18776
          28     0.00000     0.00000     0.07068     0.09921     0.00000     0.00000
          29     0.00000     0.00000    -0.05335     0.10951     0.00000     0.00000
          30    -0.30238     0.00000     0.00000     0.00000     0.39059    -0.18776
          31     0.00000     0.00000     0.11966     0.08162     0.00000     0.00000
          32     0.00000     0.00000    -0.07093     0.06053     0.00000     0.00000
          33     0.15119    -0.26187     0.00000     0.00000     0.39059    -0.18776
          34     0.00000     0.00000     0.07994     0.04800     0.00000     0.00000
          35     0.00000     0.00000    -0.10455     0.10024     0.00000     0.00000
          36     0.15119     0.26187     0.00000     0.00000     0.39059    -0.18776

                   13          14          15          16          17          18
 
 Frequency       1037.37     1037.37     1154.52     1156.75     1172.51     1190.32
 
           1     0.00000     0.00000     0.08037     0.07992     0.07916     0.00000
           2     0.00000     0.00000    -0.08036     0.07992     0.07916     0.00000
           3     0.00000     0.07646     0.00000     0.00000     0.00000     0.00000
           4     0.00000     0.00000     0.02941    -0.10917    -0.10813     0.00000
           5     0.00000     0.00000     0.10978     0.02925     0.02897     0.00000
           6    -0.06621    -0.03823     0.00000     0.00000     0.00000    -0.07589
           7     0.00000     0.00000    -0.10978     0.02926     0.02897     0.00000
           8     0.00000     0.00000    -0.02942    -0.10917    -0.10813     0.00000
           9     0.06621    -0.03823     0.00000     0.00000     0.00000     0.07589
          10     0.00000     0.00000     0.08037     0.07992    -0.07916     0.00000
          11     0.00000     0.00000    -0.08036     0.07992    -0.07916     0.00000
          12     0.00000    -0.07646     0.00000     0.00000     0.00000     0.00000
          13     0.00000     0.00000     0.02941    -0.10917     0.10813     0.00000
          14     0.00000     0.00000     0.10978     0.02925    -0.02897     0.00000
          15     0.06621     0.03823     0.00000     0.00000     0.00000    -0.07589
          16     0.00000     0.00000    -0.10978     0.02926    -0.02897     0.00000
          17     0.00000     0.00000    -0.02942    -0.10917     0.10813     0.00000
          18    -0.06621     0.03823     0.00000     0.00000     0.00000     0.07589
          19     0.00000     0.00000     0.07609     0.08145     0.08989     0.00000
          20     0.00000     0.00000    -0.07609     0.08145     0.08989     0.00000
          21     0.00000    -0.51102     0.00000     0.00000     0.00000    -0.00001
          22     0.00000     0.00000     0.02785    -0.11127    -0.12279     0.00000
          23     0.00000     0.00000     0.10394     0.02981     0.03290     0.00000
          24     0.44256     0.25551     0.00000     0.00000     0.00000     0.42366
          25     0.00000     0.00000    -0.10393     0.02981     0.03290     0.00000
          26     0.00000     0.00000    -0.02785    -0.11126    -0.12279     0.00000
          27    -0.44256     0.25551     0.00000     0.00000     0.00000    -0.42365
          28     0.00000     0.00000     0.07609     0.08145    -0.08989     0.00000
          29     0.00000     0.00000    -0.07609     0.08145    -0.08989     0.00000
          30     0.00000     0.51102     0.00000     0.00000     0.00000    -0.00001
          31     0.00000     0.00000     0.02785    -0.11127     0.12279     0.00000
          32     0.00000     0.00000     0.10394     0.02981    -0.03290     0.00000
          33    -0.44256    -0.25551     0.00000     0.00000     0.00000     0.42366
          34     0.00000     0.00000    -0.10393     0.02981    -0.03290     0.00000
          35     0.00000     0.00000    -0.02785    -0.11126     0.12279     0.00000
          36     0.44256    -0.25551     0.00000     0.00000     0.00000    -0.42365

                   19          20          21          22          23          24
 
 Frequency       1190.32     1214.37     1225.78     1225.78     1371.19     1371.19
 
           1     0.00000     0.00000    -0.05651    -0.05030     0.03937     0.00199
           2     0.00000     0.00000     0.02677    -0.07076    -0.03926     0.00351
           3     0.08763     0.05441     0.00000     0.00000     0.00000     0.00000
           4     0.00000     0.00000     0.07232    -0.04760    -0.01066    -0.01038
           5     0.00000     0.00000     0.02408     0.05807    -0.02689    -0.04651
           6    -0.04381     0.05441     0.00000     0.00000     0.00000     0.00000
           7     0.00000     0.00000     0.00557     0.06262     0.02507    -0.04752
           8     0.00000     0.00000    -0.08614    -0.00868     0.01025    -0.01078
           9    -0.04382     0.05441     0.00000     0.00000     0.00000     0.00000
          10     0.00000     0.00000    -0.05651    -0.05030    -0.03937    -0.00199
          11     0.00000     0.00000     0.02677    -0.07076     0.03926    -0.00351
          12     0.08763    -0.05441     0.00000     0.00000     0.00000     0.00000
          13     0.00000     0.00000     0.07232    -0.04760     0.01066     0.01038
          14     0.00000     0.00000     0.02408     0.05807     0.02689     0.04651
          15    -0.04381    -0.05441     0.00000     0.00000     0.00000     0.00000
          16     0.00000     0.00000     0.00557     0.06262    -0.02507     0.04752
          17     0.00000     0.00000    -0.08614    -0.00868    -0.01025     0.01078
          18    -0.04382    -0.05441     0.00000     0.00000     0.00000     0.00000
          19     0.00000     0.00000    -0.31179     0.00261     0.38318    -0.00692
          20     0.00000     0.00000     0.27752    -0.14214    -0.38316     0.00791
          21    -0.48920    -0.36072     0.00000     0.00000     0.00000     0.00000
          22     0.00000     0.00000     0.14770     0.01223    -0.07305    -0.11975
          23     0.00000     0.00000     0.26790     0.31735    -0.27032    -0.44832
          24     0.24459    -0.36072     0.00000     0.00000     0.00000     0.00000
          25     0.00000     0.00000    -0.09038     0.40535     0.25278    -0.45844
          26     0.00000     0.00000    -0.12522     0.07927     0.06837    -0.12249
          27     0.24460    -0.36072     0.00000     0.00000     0.00000     0.00000
          28     0.00000     0.00000    -0.31179     0.00261    -0.38318     0.00692
          29     0.00000     0.00000     0.27752    -0.14214     0.38316    -0.00791
          30    -0.48920     0.36072     0.00000     0.00000     0.00000     0.00000
          31     0.00000     0.00000     0.14770     0.01223     0.07305     0.11975
          32     0.00000     0.00000     0.26790     0.31735     0.27032     0.44832
          33     0.24459     0.36072     0.00000     0.00000     0.00000     0.00000
          34     0.00000     0.00000    -0.09038     0.40535    -0.25278     0.45844
          35     0.00000     0.00000    -0.12522     0.07927    -0.06837     0.12249
          36     0.24460     0.36072     0.00000     0.00000     0.00000     0.00000

                   25          26          27          28          29          30
 
 Frequency       1376.72     1595.09     1772.52     1772.52     1932.52     1932.52
 
           1    -0.02205     0.03822    -0.02422    -0.08579     0.04078     0.10358
           2     0.02205    -0.03822    -0.06784     0.05782     0.04763    -0.10061
           3     0.00000     0.00000     0.00000     0.00000     0.00000     0.00000
           4    -0.00807     0.01399    -0.02921     0.06496     0.06143     0.03571
           5    -0.03012     0.05221     0.08290     0.06282     0.11550    -0.07996
           6     0.00000     0.00000     0.00000     0.00000     0.00000     0.00000
           7     0.03012    -0.05221     0.10384    -0.00609     0.10988     0.08753
           8     0.00807    -0.01399     0.01186    -0.07023     0.06368    -0.03151
           9     0.00000     0.00000     0.00000     0.00000     0.00000     0.00000
          10    -0.02205    -0.03822    -0.02422    -0.08579    -0.04078    -0.10358
          11     0.02205     0.03822    -0.06784     0.05782    -0.04763     0.10061
          12     0.00000     0.00000     0.00000     0.00000     0.00000     0.00000
          13    -0.00807    -0.01399    -0.02921     0.06496    -0.06143    -0.03571
          14    -0.03012    -0.05221     0.08290     0.06282    -0.11550     0.07996
          15     0.00000     0.00000     0.00000     0.00000     0.00000     0.00000
          16     0.03012     0.05221     0.10384    -0.00609    -0.10988    -0.08753
          17     0.00807     0.01399     0.01186    -0.07023    -0.06368     0.03151
          18     0.00000     0.00000     0.00000     0.00000     0.00000     0.00000
          19     0.27730    -0.25552    -0.13462     0.22943     0.06062    -0.11897
          20    -0.27730     0.25552     0.01575    -0.26554     0.05250     0.12277
          21     0.00000     0.00000     0.00000     0.00000     0.00000     0.00000
          22     0.10150    -0.09353    -0.12665    -0.01115    -0.00268     0.08904
          23     0.37880    -0.34905    -0.22483    -0.27352    -0.15551     0.05948
          24     0.00000     0.00000     0.00000     0.00000     0.00000     0.00000
          25    -0.37880     0.34905    -0.33898     0.10224    -0.15117    -0.06978
          26    -0.10150     0.09353    -0.11145    -0.06118     0.00330    -0.08902
          27     0.00000     0.00000     0.00000     0.00000     0.00000     0.00000
          28     0.27730     0.25552    -0.13462     0.22943    -0.06062     0.11897
          29    -0.27730    -0.25552     0.01575    -0.26554    -0.05250    -0.12277
          30     0.00000     0.00000     0.00000     0.00000     0.00000     0.00000
          31     0.10150     0.09353    -0.12665    -0.01115     0.00268    -0.08904
          32     0.37880     0.34905    -0.22483    -0.27352     0.15551    -0.05948
          33     0.00000     0.00000     0.00000     0.00000     0.00000     0.00000
          34    -0.37880    -0.34905    -0.33898     0.10224     0.15117     0.06978
          35    -0.10150    -0.09353    -0.11145    -0.06118    -0.00330     0.08902
          36     0.00000     0.00000     0.00000     0.00000     0.00000     0.00000

                   31          32          33          34          35          36
 
 Frequency       3705.26     3723.69     3723.69     3737.37     3737.37     3748.23
 
           1    -0.02360     0.03378     0.00699    -0.03598    -0.00062    -0.02605
           2    -0.02360     0.03199     0.01289    -0.03520    -0.00748    -0.02605
           3     0.00000     0.00000     0.00000     0.00000     0.00000     0.00000
           4     0.03224     0.03499    -0.03129    -0.01836    -0.04538     0.03558
           5    -0.00864    -0.00629     0.01168     0.00955     0.01015    -0.00953
           6     0.00000     0.00000     0.00000     0.00000     0.00000     0.00000
           7    -0.00864     0.00123    -0.01320     0.01159    -0.00774    -0.00953
           8     0.03224     0.01180     0.04543    -0.02809     0.04009     0.03558
           9     0.00000     0.00000     0.00000     0.00000     0.00000     0.00000
          10    -0.02360    -0.03378    -0.00699    -0.03598    -0.00062     0.02605
          11    -0.02360    -0.03199    -0.01289    -0.03520    -0.00748     0.02605
          12     0.00000     0.00000     0.00000     0.00000     0.00000     0.00000
          13     0.03224    -0.03499     0.03129    -0.01836    -0.04538    -0.03558
          14    -0.00864     0.00629    -0.01168     0.00955     0.01015     0.00953
          15     0.00000     0.00000     0.00000     0.00000     0.00000     0.00000
          16    -0.00864    -0.00123     0.01320     0.01159    -0.00774     0.00953
          17     0.03224    -0.01180    -0.04543    -0.02809     0.04009    -0.03558
          18     0.00000     0.00000     0.00000     0.00000     0.00000     0.00000
          19     0.27578    -0.37261    -0.11121     0.38494     0.04207     0.27314
          20     0.27578    -0.37184    -0.11376     0.38455     0.04553     0.27314
          21     0.00000     0.00000     0.00000     0.00000     0.00000     0.00000
          22    -0.37672    -0.38764     0.36316     0.21038     0.48533    -0.37312
          23     0.10094     0.10254    -0.09873    -0.05871    -0.12902     0.09998
          24     0.00000     0.00000     0.00000     0.00000     0.00000     0.00000
          25     0.10094     0.03070     0.13899    -0.08621     0.11253     0.09998
          26    -0.37672    -0.12164    -0.51707     0.31409    -0.42562    -0.37312
          27     0.00000     0.00000     0.00000     0.00000     0.00000     0.00000
          28     0.27578     0.37261     0.11121     0.38494     0.04207    -0.27314
          29     0.27578     0.37184     0.11376     0.38455     0.04553    -0.27314
          30     0.00000     0.00000     0.00000     0.00000     0.00000     0.00000
          31    -0.37672     0.38764    -0.36316     0.21038     0.48533     0.37312
          32     0.10094    -0.10254     0.09873    -0.05871    -0.12902    -0.09998
          33     0.00000     0.00000     0.00000     0.00000     0.00000     0.00000
          34     0.10094    -0.03070    -0.13899    -0.08621     0.11253    -0.09998
          35    -0.37672     0.12164     0.51707     0.31409    -0.42562     0.37312
          36     0.00000     0.00000     0.00000     0.00000     0.00000     0.00000



 ----------------------------------------------------------------------------
 Normal Eigenvalue ||         Derivative Dipole Moments (debye/angs)
  Mode   [cm**-1]  ||      [d/dqX]             [d/dqY]           [d/dqZ]
 ------ ---------- || ------------------ ------------------ -----------------
    1       -8.128 ||       0.000               0.000             0.000
    2       -7.800 ||       0.000               0.000             0.000
    3       -7.796 ||       0.000               0.000             0.000
    4       -0.488 ||       0.000               0.000             0.000
    5       -0.027 ||       0.000               0.000             0.000
    6        0.488 ||       0.000               0.000             0.000
    7      477.960 ||       0.000               0.000             0.000
    8      477.961 ||       0.000               0.000             0.000
    9      700.126 ||       0.000               0.000             0.000
   10      700.126 ||       0.000               0.000             0.000
   11      810.427 ||       0.000               0.000             0.763
   12      841.193 ||       0.000               0.000             0.000
   13     1037.369 ||       0.000               0.000             0.000
   14     1037.369 ||       0.000               0.000             0.000
   15     1154.522 ||       0.000               0.000             0.000
   16     1156.748 ||       0.000               0.000             0.000
   17     1172.513 ||       0.000               0.000             0.000
   18     1190.322 ||       0.000               0.000             0.000
   19     1190.322 ||       0.000               0.000             0.000
   20     1214.374 ||       0.000               0.000             0.000
   21     1225.784 ||       0.038              -0.062             0.000
   22     1225.784 ||      -0.062              -0.038             0.000
   23     1371.190 ||       0.000               0.000             0.000
   24     1371.190 ||       0.000               0.000             0.000
   25     1376.716 ||       0.000               0.000             0.000
   26     1595.091 ||       0.000               0.000             0.000
   27     1772.522 ||      -0.529              -0.282             0.000
   28     1772.522 ||       0.282              -0.529             0.000
   29     1932.522 ||       0.000               0.000             0.000
   30     1932.522 ||       0.000               0.000             0.000
   31     3705.260 ||       0.000               0.000             0.000
   32     3723.686 ||       0.000               0.000             0.000
   33     3723.686 ||       0.000               0.000             0.000
   34     3737.375 ||       0.285               0.358             0.000
   35     3737.375 ||       0.358              -0.285             0.000
   36     3748.229 ||       0.000               0.000             0.000
 ----------------------------------------------------------------------------



  
  
 ----------------------------------------------------------------------------
 Normal Eigenvalue ||                 Infra Red Intensities
  Mode   [cm**-1]  || [atomic units] [(debye/angs)**2] [(KM/mol)] [arbitrary]
 ------ ---------- || -------------- ----------------- ---------- -----------
    1       -8.128 ||    0.000000           0.000         0.000       0.000
    2       -7.800 ||    0.000000           0.000         0.000       0.000
    3       -7.796 ||    0.000000           0.000         0.000       0.000
    4       -0.488 ||    0.000000           0.000         0.000       0.000
    5       -0.027 ||    0.000000           0.000         0.000       0.000
    6        0.488 ||    0.000000           0.000         0.000       0.000
    7      477.960 ||    0.000000           0.000         0.000       0.000
    8      477.961 ||    0.000000           0.000         0.000       0.000
    9      700.126 ||    0.000000           0.000         0.000       0.000
   10      700.126 ||    0.000000           0.000         0.000       0.000
   11      810.427 ||    0.025238           0.582        24.603     121.238
   12      841.193 ||    0.000000           0.000         0.000       0.000
   13     1037.369 ||    0.000000           0.000         0.000       0.000
   14     1037.369 ||    0.000000           0.000         0.000       0.000
   15     1154.522 ||    0.000000           0.000         0.000       0.000
   16     1156.748 ||    0.000000           0.000         0.000       0.000
   17     1172.513 ||    0.000000           0.000         0.000       0.000
   18     1190.322 ||    0.000000           0.000         0.000       0.000
   19     1190.322 ||    0.000000           0.000         0.000       0.000
   20     1214.374 ||    0.000000           0.000         0.000       0.000
   21     1225.784 ||    0.000228           0.005         0.222       1.093
   22     1225.784 ||    0.000228           0.005         0.222       1.093
   23     1371.190 ||    0.000000           0.000         0.000       0.000
   24     1371.190 ||    0.000000           0.000         0.000       0.000
   25     1376.716 ||    0.000000           0.000         0.000       0.000
   26     1595.091 ||    0.000000           0.000         0.000       0.000
   27     1772.522 ||    0.015566           0.359        15.174      74.774
   28     1772.522 ||    0.015565           0.359        15.174      74.773
   29     1932.522 ||    0.000000           0.000         0.000       0.000
   30     1932.522 ||    0.000000           0.000         0.000       0.000
   31     3705.260 ||    0.000000           0.000         0.000       0.000
   32     3723.686 ||    0.000000           0.000         0.000       0.000
   33     3723.686 ||    0.000000           0.000         0.000       0.000
   34     3737.375 ||    0.009058           0.209         8.831      43.515
   35     3737.375 ||    0.009058           0.209         8.831      43.515
   36     3748.229 ||    0.000000           0.000         0.000       0.000
 ----------------------------------------------------------------------------





        Vibrational analysis via the FX method 
  --- with translations and rotations projected out ---
  --- via the Eckart algorithm                      ---
 Projected Nuclear Hessian trans-rot subspace norm:5.3496D-33
                         (should be close to zero!) 


From the projected analysis 
The Zero-Point Energy (Kcal/mol) =          73.09210696

 center of mass
 --------------
 x =   0.00000000 y =   0.00000000 z =   0.00000000

 moments of inertia (a.u.)
 ------------------
         313.066381755876           0.000000000000           0.000000000000
           0.000000000000         313.066381755876           0.000000000000
           0.000000000000           0.000000000000         626.132763511752

 Rotational Constants
 --------------------
 A=   0.192292 cm-1  (  0.276659 K)
 B=   0.192292 cm-1  (  0.276659 K)
 C=   0.096146 cm-1  (  0.138330 K)


 Temperature                      =   298.15K
 frequency scaling parameter      =   1.0000

 Zero-Point correction to Energy  =   73.035 kcal/mol  (  0.116389 au)
 Thermal correction to Energy     =   75.493 kcal/mol  (  0.120306 au)
 Thermal correction to Enthalpy   =   76.085 kcal/mol  (  0.121250 au)

 Total Entropy                    =   62.637 cal/mol-K
   - Translational                =   38.962 cal/mol-K (mol. weight =  78.0469)
   - Rotational                   =   20.673 cal/mol-K (symmetry #  =       12)
   - Vibrational                  =    3.002 cal/mol-K

 Cv (constant volume heat capacity) =   14.285 cal/mol-K
   - Translational                  =    2.979 cal/mol-K
   - Rotational                     =    2.979 cal/mol-K
   - Vibrational                    =    8.326 cal/mol-K



          -------------------------------------------------
          NORMAL MODE EIGENVECTORS IN CARTESIAN COORDINATES
          -------------------------------------------------
             (Projected Frequencies expressed in cm-1)

                    1           2           3           4           5           6
 
 P.Frequency        0.00        0.00        0.00        0.00        0.00        0.00
 
           1    -0.04254     0.00000    -0.06591     0.00000     0.00000    -0.11019
           2    -0.05367     0.00000     0.12411     0.00000     0.00000    -0.00374
           3     0.00000    -0.03032     0.00000     0.13511     0.12480     0.00000
           4    -0.01668     0.00000    -0.02677     0.00000     0.00000    -0.11204
           5    -0.15018     0.00000    -0.02197     0.00000     0.00000     0.00314
           6     0.00000     0.13134     0.00000     0.11042    -0.07284     0.00000
           7     0.05396     0.00000     0.08017     0.00000     0.00000    -0.11708
           8    -0.07953     0.00000     0.08496     0.00000     0.00000    -0.00190
           9     0.00000     0.13165     0.00000    -0.06361     0.11563     0.00000
          10     0.03903     0.00000     0.05757     0.00000     0.00000    -0.11601
          11    -0.13525     0.00000     0.00062     0.00000     0.00000     0.00208
          12     0.00000     0.18544     0.00000    -0.01383    -0.01308     0.00000
          13     0.01317     0.00000     0.01843     0.00000     0.00000    -0.11417
          14    -0.03874     0.00000     0.14670     0.00000     0.00000    -0.00481
          15     0.00000     0.02377     0.00000     0.01086     0.18457     0.00000
          16    -0.05747     0.00000    -0.08851     0.00000     0.00000    -0.10913
          17    -0.10939     0.00000     0.03977     0.00000     0.00000     0.00023
          18     0.00000     0.02346     0.00000     0.18489    -0.00390     0.00000
          19    -0.07438     0.00000    -0.11411     0.00000     0.00000    -0.10792
          20    -0.02183     0.00000     0.17230     0.00000     0.00000    -0.00601
          21     0.00000    -0.11454     0.00000     0.19324     0.17862     0.00000
          22    -0.02834     0.00000    -0.04441     0.00000     0.00000    -0.11121
          23    -0.19367     0.00000    -0.08781     0.00000     0.00000     0.00624
          24     0.00000     0.17333     0.00000     0.14928    -0.17331     0.00000
          25     0.09746     0.00000     0.14601     0.00000     0.00000    -0.12018
          26    -0.06788     0.00000     0.10260     0.00000     0.00000    -0.00273
          27     0.00000     0.17388     0.00000    -0.16060     0.16229     0.00000
          28     0.07087     0.00000     0.10577     0.00000     0.00000    -0.11828
          29    -0.16709     0.00000    -0.04757     0.00000     0.00000     0.00435
          30     0.00000     0.26965     0.00000    -0.07196    -0.06689     0.00000
          31     0.02483     0.00000     0.03607     0.00000     0.00000    -0.11500
          32     0.00475     0.00000     0.21254     0.00000     0.00000    -0.00791
          33     0.00000    -0.01821     0.00000    -0.02800     0.28504     0.00000
          34    -0.10097     0.00000    -0.15434     0.00000     0.00000    -0.10603
          35    -0.12104     0.00000     0.02213     0.00000     0.00000     0.00106
          36     0.00000    -0.01877     0.00000     0.28188    -0.05056     0.00000

                    7           8           9          10          11          12
 
 P.Frequency      477.96      477.96      700.13      700.13      810.43      841.19
 
           1     0.00000     0.00000     0.03484    -0.10691     0.00000     0.00000
           2     0.00000     0.00000    -0.05199    -0.09970     0.00000     0.00000
           3    -0.14177     0.00000     0.00000     0.00000    -0.03280     0.10454
           4     0.00000     0.00000    -0.13487    -0.04599     0.00000     0.00000
           5     0.00000     0.00000     0.00893     0.07001     0.00000     0.00000
           6     0.07089    -0.12278     0.00000     0.00000    -0.03280     0.10454
           7     0.00000     0.00000     0.00274     0.07052     0.00000     0.00000
           8     0.00000     0.00000     0.12544    -0.06760     0.00000     0.00000
           9     0.07088     0.12278     0.00000     0.00000    -0.03280     0.10454
          10     0.00000     0.00000    -0.03484     0.10691     0.00000     0.00000
          11     0.00000     0.00000     0.05199     0.09970     0.00000     0.00000
          12    -0.14177     0.00000     0.00000     0.00000    -0.03280    -0.10454
          13     0.00000     0.00000     0.13487     0.04599     0.00000     0.00000
          14     0.00000     0.00000    -0.00893    -0.07001     0.00000     0.00000
          15     0.07089    -0.12278     0.00000     0.00000    -0.03280    -0.10454
          16     0.00000     0.00000    -0.00274    -0.07052     0.00000     0.00000
[...]
          25     0.00000     0.00000    -0.10393     0.02981     0.03290     0.00000
          26     0.00000     0.00000    -0.02785    -0.11126    -0.12279     0.00000
          27    -0.44260     0.25554     0.00000     0.00000     0.00000    -0.42365
          28     0.00000     0.00000     0.07609     0.08145    -0.08989     0.00000
          29     0.00000     0.00000    -0.07609     0.08145    -0.08989     0.00000
          30     0.00000     0.51107     0.00000     0.00000     0.00000    -0.00001
          31     0.00000     0.00000     0.02785    -0.11127     0.12279     0.00000
          32     0.00000     0.00000     0.10394     0.02981    -0.03290     0.00000
          33    -0.44260    -0.25554     0.00000     0.00000     0.00000     0.42366
          34     0.00000     0.00000    -0.10393     0.02981    -0.03290     0.00000
          35     0.00000     0.00000    -0.02785    -0.11126     0.12279     0.00000
          36     0.44260    -0.25554     0.00000     0.00000     0.00000    -0.42365

                   19          20          21          22          23          24
 
 P.Frequency     1190.32     1214.37     1225.78     1225.78     1371.19     1371.19
 
           1     0.00000     0.00000    -0.05670    -0.05009     0.03937     0.00199
           2     0.00000     0.00000     0.02651    -0.07086    -0.03926     0.00351
           3     0.08763     0.05441     0.00000     0.00000     0.00000     0.00000
           4     0.00000     0.00000     0.07214    -0.04788    -0.01066    -0.01038
           5     0.00000     0.00000     0.02430     0.05798    -0.02689    -0.04651
           6    -0.04381     0.05441     0.00000     0.00000     0.00000     0.00000
           7     0.00000     0.00000     0.00580     0.06259     0.02507    -0.04752
           8     0.00000     0.00000    -0.08617    -0.00836     0.01025    -0.01078
           9    -0.04382     0.05441     0.00000     0.00000     0.00000     0.00000
          10     0.00000     0.00000    -0.05670    -0.05009    -0.03937    -0.00199
          11     0.00000     0.00000     0.02651    -0.07086     0.03926    -0.00351
          12     0.08763    -0.05441     0.00000     0.00000     0.00000     0.00000
          13     0.00000     0.00000     0.07214    -0.04788     0.01066     0.01038
          14     0.00000     0.00000     0.02430     0.05798     0.02689     0.04651
          15    -0.04381    -0.05441     0.00000     0.00000     0.00000     0.00000
          16     0.00000     0.00000     0.00580     0.06259    -0.02507     0.04752
          17     0.00000     0.00000    -0.08617    -0.00836    -0.01025     0.01078
          18    -0.04382    -0.05441     0.00000     0.00000     0.00000     0.00000
          19     0.00000     0.00000    -0.31178     0.00379     0.38318    -0.00692
          20     0.00000     0.00000     0.27698    -0.14319    -0.38316     0.00791
          21    -0.48920    -0.36072     0.00000     0.00000     0.00000     0.00000
          22     0.00000     0.00000     0.14774     0.01167    -0.07305    -0.11975
          23     0.00000     0.00000     0.26909     0.31633    -0.27032    -0.44832
          24     0.24459    -0.36072     0.00000     0.00000     0.00000     0.00000
          25     0.00000     0.00000    -0.08885     0.40569     0.25278    -0.45844
          26     0.00000     0.00000    -0.12492     0.07974     0.06837    -0.12249
          27     0.24460    -0.36072     0.00000     0.00000     0.00000     0.00000
          28     0.00000     0.00000    -0.31178     0.00379    -0.38318     0.00692
          29     0.00000     0.00000     0.27698    -0.14319     0.38316    -0.00791
          30    -0.48920     0.36072     0.00000     0.00000     0.00000     0.00000
          31     0.00000     0.00000     0.14774     0.01167     0.07305     0.11975
          32     0.00000     0.00000     0.26909     0.31633     0.27032     0.44832
          33     0.24459     0.36072     0.00000     0.00000     0.00000     0.00000
          34     0.00000     0.00000    -0.08885     0.40569    -0.25278     0.45844
          35     0.00000     0.00000    -0.12492     0.07974    -0.06837     0.12249
          36     0.24460     0.36072     0.00000     0.00000     0.00000     0.00000

                   25          26          27          28          29          30
 
 P.Frequency     1376.72     1595.23     1772.52     1772.52     1932.52     1932.52
 
           1    -0.02205    -0.03821     0.02920    -0.08422     0.04078     0.10358
           2     0.02205     0.03821    -0.08872     0.00864     0.04763    -0.10061
           3     0.00000     0.00000     0.00000     0.00000     0.00000     0.00000
           4    -0.00807    -0.01399    -0.06111     0.03658     0.06143     0.03571
           5    -0.03012    -0.05220     0.03209     0.09894     0.11550    -0.07996
           6     0.00000     0.00000     0.00000     0.00000     0.00000     0.00000
           7     0.03012     0.05220     0.08866     0.05439     0.10988     0.08753
           8     0.00807     0.01399     0.04989    -0.05083     0.06368    -0.03151
           9     0.00000     0.00000     0.00000     0.00000     0.00000     0.00000
          10    -0.02205     0.03821     0.02920    -0.08422    -0.04078    -0.10358
          11     0.02205    -0.03821    -0.08872     0.00864    -0.04763     0.10061
          12     0.00000     0.00000     0.00000     0.00000     0.00000     0.00000
          13    -0.00807     0.01399    -0.06111     0.03658    -0.06143    -0.03571
          14    -0.03012     0.05220     0.03209     0.09894    -0.11550     0.07996
          15     0.00000     0.00000     0.00000     0.00000     0.00000     0.00000
          16     0.03012    -0.05220     0.08866     0.05439    -0.10988    -0.08753
          17     0.00807    -0.01399     0.04989    -0.05083    -0.06368     0.03151
          18     0.00000     0.00000     0.00000     0.00000     0.00000     0.00000
          19     0.27730     0.25554    -0.24164     0.11123     0.06062    -0.11897
          20    -0.27730    -0.25554     0.16478    -0.20883     0.05250     0.12277
          21     0.00000     0.00000     0.00000     0.00000     0.00000     0.00000
          22     0.10150     0.09353    -0.09752    -0.08157    -0.00268     0.08904
          23     0.37880     0.34907    -0.02802    -0.35295    -0.15551     0.05948
          24     0.00000     0.00000     0.00000     0.00000     0.00000     0.00000
          25    -0.37880    -0.34907    -0.33655    -0.10998    -0.15117    -0.06978
          26    -0.10150    -0.09353    -0.05643    -0.11392     0.00330    -0.08902
          27     0.00000     0.00000     0.00000     0.00000     0.00000     0.00000
          28     0.27730    -0.25554    -0.24164     0.11123    -0.06062     0.11897
          29    -0.27730     0.25554     0.16478    -0.20883    -0.05250    -0.12277
          30     0.00000     0.00000     0.00000     0.00000     0.00000     0.00000
          31     0.10150    -0.09353    -0.09752    -0.08157     0.00268    -0.08904
          32     0.37880    -0.34907    -0.02802    -0.35295     0.15551    -0.05948
          33     0.00000     0.00000     0.00000     0.00000     0.00000     0.00000
          34    -0.37880     0.34907    -0.33655    -0.10998     0.15117     0.06978
          35    -0.10150     0.09353    -0.05643    -0.11392    -0.00330     0.08902
          36     0.00000     0.00000     0.00000     0.00000     0.00000     0.00000

                   31          32          33          34          35          36
 
 P.Frequency     3705.26     3723.69     3723.69     3737.37     3737.37     3748.23
 
           1    -0.02360     0.03378     0.00699    -0.01397    -0.03317    -0.02605
           2    -0.02360     0.03199     0.01289    -0.00739    -0.03522    -0.02605
           3     0.00000     0.00000     0.00000     0.00000     0.00000     0.00000
           4     0.03224     0.03499    -0.03129     0.03409    -0.03513     0.03558
           5    -0.00864    -0.00629     0.01168    -0.00542     0.01284    -0.00953
           6     0.00000     0.00000     0.00000     0.00000     0.00000     0.00000
           7    -0.00864     0.00123    -0.01320     0.01176     0.00747    -0.00953
           8     0.03224     0.01180     0.04543    -0.04803    -0.00949     0.03558
           9     0.00000     0.00000     0.00000     0.00000     0.00000     0.00000
          10    -0.02360    -0.03378    -0.00699    -0.01397    -0.03317     0.02605
          11    -0.02360    -0.03199    -0.01289    -0.00739    -0.03522     0.02605
          12     0.00000     0.00000     0.00000     0.00000     0.00000     0.00000
          13     0.03224    -0.03499     0.03129     0.03409    -0.03513    -0.03558
          14    -0.00864     0.00629    -0.01168    -0.00542     0.01284     0.00953
          15     0.00000     0.00000     0.00000     0.00000     0.00000     0.00000
          16    -0.00864    -0.00123     0.01320     0.01176     0.00747     0.00953
          17     0.03224    -0.01180    -0.04543    -0.04802    -0.00949    -0.03558
          18     0.00000     0.00000     0.00000     0.00000     0.00000     0.00000
          19     0.27577    -0.37261    -0.11121     0.11710     0.36911     0.27314
          20     0.27577    -0.37184    -0.11376     0.11377     0.37015     0.27314
          21     0.00000     0.00000     0.00000     0.00000     0.00000     0.00000
          22    -0.37672    -0.38764     0.36316    -0.35890     0.38858    -0.37312
          23     0.10094     0.10254    -0.09873     0.09429    -0.10585     0.09998
          24     0.00000     0.00000     0.00000     0.00000     0.00000     0.00000
          25     0.10094     0.03070     0.13899    -0.13777    -0.03338     0.09998
          26    -0.37672    -0.12164    -0.51706     0.51625     0.11528    -0.37312
          27     0.00000     0.00000     0.00000     0.00000     0.00000     0.00000
          28     0.27577     0.37261     0.11121     0.11710     0.36910    -0.27314
          29     0.27577     0.37184     0.11376     0.11377     0.37014    -0.27314
          30     0.00000     0.00000     0.00000     0.00000     0.00000     0.00000
          31    -0.37672     0.38764    -0.36316    -0.35890     0.38858     0.37312
          32     0.10094    -0.10254     0.09873     0.09429    -0.10585    -0.09998
          33     0.00000     0.00000     0.00000     0.00000     0.00000     0.00000
          34     0.10094    -0.03070    -0.13899    -0.13777    -0.03338    -0.09998
          35    -0.37672     0.12164     0.51707     0.51625     0.11528     0.37312
          36     0.00000     0.00000     0.00000     0.00000     0.00000     0.00000



 ----------------------------------------------------------------------------
 Normal Eigenvalue ||    Projected Derivative Dipole Moments (debye/angs)
  Mode   [cm**-1]  ||      [d/dqX]             [d/dqY]           [d/dqZ]
 ------ ---------- || ------------------ ------------------ -----------------
    1        0.000 ||       0.000               0.000             0.000
    2        0.000 ||       0.000               0.000             0.000
    3        0.000 ||       0.000               0.000             0.000
    4        0.000 ||       0.000               0.000             0.000
    5        0.000 ||       0.000               0.000             0.000
    6        0.000 ||       0.000               0.000             0.000
    7      477.960 ||       0.000               0.000             0.000
    8      477.961 ||       0.000               0.000             0.000
    9      700.126 ||       0.000               0.000             0.000
   10      700.126 ||       0.000               0.000             0.000
   11      810.427 ||       0.000               0.000             0.763
   12      841.193 ||       0.000               0.000             0.000
   13     1037.587 ||       0.000               0.000             0.000
   14     1037.588 ||       0.000               0.000             0.000
   15     1154.522 ||       0.000               0.000             0.000
   16     1156.748 ||       0.000               0.000             0.000
   17     1172.513 ||       0.000               0.000             0.000
   18     1190.322 ||       0.000               0.000             0.000
   19     1190.322 ||       0.000               0.000             0.000
   20     1214.374 ||       0.000               0.000             0.000
   21     1225.783 ||       0.037              -0.062             0.000
   22     1225.784 ||      -0.062              -0.037             0.000
   23     1371.190 ||       0.000               0.000             0.000
   24     1371.190 ||       0.000               0.000             0.000
   25     1376.716 ||       0.000               0.000             0.000
   26     1595.233 ||       0.000               0.000             0.000
   27     1772.522 ||      -0.595               0.071             0.000
   28     1772.522 ||      -0.071              -0.595             0.000
   29     1932.522 ||       0.000               0.000             0.000
   30     1932.522 ||       0.000               0.000             0.000
   31     3705.260 ||       0.000               0.000             0.000
   32     3723.686 ||       0.000               0.000             0.000
   33     3723.686 ||       0.000               0.000             0.000
   34     3737.375 ||      -0.212               0.405             0.000
   35     3737.375 ||       0.405               0.212             0.000
   36     3748.229 ||       0.000               0.000             0.000
 ----------------------------------------------------------------------------



  
  
 ----------------------------------------------------------------------------
 Normal Eigenvalue ||           Projected Infra Red Intensities
  Mode   [cm**-1]  || [atomic units] [(debye/angs)**2] [(KM/mol)] [arbitrary]
 ------ ---------- || -------------- ----------------- ---------- -----------
    1        0.000 ||    0.000000           0.000         0.000       0.000
    2        0.000 ||    0.000000           0.000         0.000       0.000
    3        0.000 ||    0.000000           0.000         0.000       0.000
    4        0.000 ||    0.000000           0.000         0.000       0.000
    5        0.000 ||    0.000000           0.000         0.000       0.000
    6        0.000 ||    0.000000           0.000         0.000       0.000
    7      477.960 ||    0.000000           0.000         0.000       0.000
    8      477.961 ||    0.000000           0.000         0.000       0.000
    9      700.126 ||    0.000000           0.000         0.000       0.000
   10      700.126 ||    0.000000           0.000         0.000       0.000
   11      810.427 ||    0.025238           0.582        24.603     121.238
   12      841.193 ||    0.000000           0.000         0.000       0.000
   13     1037.587 ||    0.000000           0.000         0.000       0.000
   14     1037.588 ||    0.000000           0.000         0.000       0.000
   15     1154.522 ||    0.000000           0.000         0.000       0.000
   16     1156.748 ||    0.000000           0.000         0.000       0.000
   17     1172.513 ||    0.000000           0.000         0.000       0.000
   18     1190.322 ||    0.000000           0.000         0.000       0.000
   19     1190.322 ||    0.000000           0.000         0.000       0.000
   20     1214.374 ||    0.000000           0.000         0.000       0.000
   21     1225.783 ||    0.000228           0.005         0.222       1.093
   22     1225.784 ||    0.000228           0.005         0.222       1.093
   23     1371.190 ||    0.000000           0.000         0.000       0.000
   24     1371.190 ||    0.000000           0.000         0.000       0.000
   25     1376.716 ||    0.000000           0.000         0.000       0.000
   26     1595.233 ||    0.000000           0.000         0.000       0.000
   27     1772.522 ||    0.015565           0.359        15.174      74.773
   28     1772.522 ||    0.015565           0.359        15.174      74.773
   29     1932.522 ||    0.000000           0.000         0.000       0.000
   30     1932.522 ||    0.000000           0.000         0.000       0.000
   31     3705.260 ||    0.000000           0.000         0.000       0.000
   32     3723.686 ||    0.000000           0.000         0.000       0.000
   33     3723.686 ||    0.000000           0.000         0.000       0.000
   34     3737.375 ||    0.009058           0.209         8.831      43.515
   35     3737.375 ||    0.009058           0.209         8.831      43.515
   36     3748.229 ||    0.000000           0.000         0.000       0.000
 ----------------------------------------------------------------------------



 vib:animation  F

 Task  times  cpu:        6.5s     wall:       12.2s
 Summary of allocated global arrays
-----------------------------------
  No active global arrays



                         GA Statistics for process    0
                         ------------------------------

       create   destroy   get      put      acc     scatter   gather  read&inc
calls: 4622     4622     3.19e+04 2.42e+04 8843      757        0      909     
number of processes/call 2.51e+00 2.03e+00 1.33e+00 2.00e+00 0.00e+00
bytes total:             3.44e+07 1.14e+07 1.90e+07 8.92e+05 0.00e+00 7.27e+03
bytes remote:            2.05e+07 3.87e+06 1.48e+07 -9.27e+05 0.00e+00 0.00e+00
Max memory consumed for GA by this process: 954600 bytes
MA_summarize_allocated_blocks: starting scan ...
MA_summarize_allocated_blocks: scan completed: 0 heap blocks, 0 stack blocks
MA usage statistics:

	allocation statistics:
					      heap	     stack
					      ----	     -----
	current number of blocks	         0	         0
	maximum number of blocks	        25	        36
	current total bytes		         0	         0
	maximum total bytes		     80096	  66447248
	maximum total K-bytes		        81	     66448
	maximum total M-bytes		         1	        67


                                NWChem Input Module
                                -------------------





                                     CITATION
                                     --------
                Please cite the following reference when publishing
                           results obtained with NWChem:

                 M. Valiev, E.J. Bylaska, N. Govind, K. Kowalski,
              T.P. Straatsma, H.J.J. van Dam, D. Wang, J. Nieplocha,
                        E. Apra, T.L. Windus, W.A. de Jong
                 "NWChem: a comprehensive and scalable open-source
                  solution for large scale molecular simulations"
                      Comput. Phys. Commun. 181, 1477 (2010)
                           doi:10.1016/j.cpc.2010.04.018

                              AUTHORS & CONTRIBUTORS
                              ----------------------
      E. J. Bylaska, W. A. de Jong, N. Govind, K. Kowalski, T. P. Straatsma,
     M. Valiev, H. J. J. Van Dam, D. Wang, E. Apra, T. L. Windus, J. Hammond,
     J. Autschbach, P. Nichols, S. Hirata, M. T. Hackler, Y. Zhao, P.-D. Fan,
      R. J. Harrison, M. Dupuis, D. M. A. Smith, K. Glaesemann, J. Nieplocha,
      V. Tipparaju, M. Krishnan, A. Vazquez-Mayagoitia, L. Jensen, M. Swart,
      Q. Wu, T. Van Voorhis, A. A. Auer, M. Nooijen, L. D. Crosby, E. Brown,
             G. Cisneros, G. I. Fann, H. Fruchtl, J. Garza, K. Hirao,
        R. Kendall, J. A. Nichols, K. Tsemekhman, K. Wolinski, J. Anchell,
       D. Bernholdt, P. Borowski, T. Clark, D. Clerc, H. Dachsel, M. Deegan,
        K. Dyall, D. Elwood, E. Glendening, M. Gutowski, A. Hess, J. Jaffe,
        B. Johnson, J. Ju, R. Kobayashi, R. Kutteh, Z. Lin, R. Littlefield,
    X. Long, B. Meng, T. Nakajima, S. Niu, L. Pollack, M. Rosing, G. Sandrone,
       M. Stave, H. Taylor, G. Thomas, J. H. van Lenthe, A. Wong, Z. Zhang.

 Total times  cpu:        6.5s     wall:       12.3s
