 argument  1 = example
  Unable to open example --- appending .nw
                                         
                                         
 
 
              Northwest Computational Chemistry Package (NWChem) 5.1
              ------------------------------------------------------
 
 
                    Environmental Molecular Sciences Laboratory
                       Pacific Northwest National Laboratory
                                Richland, WA 99352
 
                                         
                                         
 
 
                  COPYRIGHT (C) 1994, 1995, 1996, 1997, 1998, 1999
                2000, 2001, 2002, 2003, 2004, 2005, 2006, 2007, 2008
                        Pacific Northwest National Laboratory,
                             Battelle Memorial Institute.
 
                            >>> All Rights Reserved <<<
 
 
                                    DISCLAIMER
                                    ----------

            This material was prepared as an account of work sponsored
            by an agency of the United States Government.  Neither the
            United States Government nor the United States Department
            of Energy, nor Battelle, nor any of their employees, MAKES
            ANY WARRANTY, EXPRESS OR IMPLIED, OR ASSUMES ANY LEGAL
            LIABILITY OR RESPONSIBILITY FOR THE ACCURACY, COMPLETENESS,
            OR USEFULNESS OF ANY INFORMATION, APPARATUS, PRODUCT,
            SOFTWARE, OR PROCESS DISCLOSED, OR REPRESENTS THAT ITS USE
            WOULD NOT INFRINGE PRIVATELY OWNED RIGHTS.


                                    LIMITED USE
                                    -----------

            This software (including any documentation) is being made
            available to you for your internal use only, solely for use
            in performance of work directly for the U.S. Federal
            Government or work under contracts with the U.S. Department
            of Energy or other U.S. Federal Government agencies.  This
            software is a version which has not yet been evaluated and
            cleared for commercialization.  Adherence to this notice
            may be necessary for the author, Battelle Memorial
            Institute, to successfully assert copyright in and
            commercialize this software. This software is not intended
            for duplication or distribution to third parties without
            the permission of the Manager of Software Products at
            Pacific Northwest National Laboratory, Richland,
            Washington, 99352.


                                  ACKNOWLEDGMENT
                                  --------------

            This software and its documentation were produced with
            Government support under Contract Number DE-AC05-76RL01830
            awarded by the United States Department of Energy.  The
            Government retains a paid-up non-exclusive, irrevocable
            worldwide license to reproduce, prepare derivative works,
            perform publicly and display publicly by or for the
            Government, including the right to distribute to other
            Government contractors.


           Job information
           ---------------

    hostname      = node10
    program       = /users/marcel/src/nwchem-5.1.1/newvers/bin/LINUX64/nwchem
    date          = Thu Sep 10 12:12:25 2009

    compiled      = Sat_Aug_29_11:11:57_2009
    source        = /users/marcel/src/nwchem-5.1.1/newvers
    nwchem branch = Development
    input         = example.nw
    prefix        = example.
    data base     = /users/marcel/calcs/ssb-d/nwchem-impl/example.db
    status        = startup
    nproc         =        8
    time left     =     -1s



           Memory information
           ------------------

    heap      =   29491201 doubles =    225.0 Mbytes
    stack     =   29491201 doubles =    225.0 Mbytes
    global    =   58982400 doubles =    450.0 Mbytes (distinct from heap & stack)
    total     =  117964802 doubles =    900.0 Mbytes
    verify    = yes
    hardfail  = no 


           Directory information
           ---------------------
 
  0 permanent = /users/marcel/calcs/ssb-d/nwchem-impl
  0 scratch   = /sgetmp/9992.1.llarga3d-p8
 
 
 
 
                                NWChem Input Module
                                -------------------
 
 
                                   hexamers dft
                                   ------------

 Scaling coordinates for geometry "geometry" by  1.889725989
 (inverse scale =  0.529177249)

 C1  symmetry detected

          ------
          auto-z
          ------
 
 
                             Geometry "geometry" -> ""
                             -------------------------
 
 Output coordinates in angstroms (scale by  1.889725989 to convert to a.u.)
 
  No.       Tag          Charge          X              Y              Z
 ---- ---------------- ---------- -------------- -------------- --------------
    1 N                    7.0000     0.77952861    -1.66350460    -0.14198808
    2 H                    1.0000     1.13218972    -2.42054601     0.44598236
    3 H                    1.0000     0.67023941    -2.05211006    -1.08236364
    4 C                    6.0000    -0.51593659    -1.18056085     0.36337599
    5 H                    1.0000    -1.34428902    -1.90011584     0.20860573
    6 H                    1.0000    -0.41651344    -1.01727443     1.44563134
    7 C                    6.0000    -0.90230906     0.13893532    -0.30137896
    8 H                    1.0000    -0.98357270     0.01302188    -1.39148865
    9 H                    1.0000    -1.87917136     0.47517641     0.07019019
   10 S                   16.0000     0.28141365     1.50530691     0.06627136
   11 H                    1.0000     1.37127270     0.71122292    -0.13496470
 
      Atomic Mass 
      ----------- 
 
      N                 14.003070
      H                  1.007825
      C                 12.000000
      S                 31.972070
 

 Effective nuclear repulsion energy (a.u.)     167.2061143015

            Nuclear Dipole moment (a.u.) 
            ----------------------------
        X                 Y               Z
 ---------------- ---------------- ----------------
     0.0000000000     0.0000000000     0.0000000000
 


                                Z-matrix (autoz)
                                -------- 

 Units are Angstrom for bonds and degrees for angles
 
      Type          Name      I     J     K     L     M      Value
      ----------- --------  ----- ----- ----- ----- ----- ----------
    1 Stretch                  1     2                       1.02137
    2 Stretch                  1     3                       1.02336
    3 Stretch                  1     4                       1.47202
    4 Stretch                  4     5                       1.10810
    5 Stretch                  4     6                       1.09901
    6 Stretch                  4     7                       1.52717
    7 Stretch                  7     8                       1.10036
    8 Stretch                  7     9                       1.09790
    9 Stretch                  7    10                       1.84481
   10 Stretch                 10    11                       1.36340
   11 Bend                     1     4     5               113.38373
   12 Bend                     1     4     6               107.89104
   13 Bend                     1     4     7               110.89650
   14 Bend                     2     1     3               106.52313
   15 Bend                     2     1     4               110.45120
   16 Bend                     3     1     4               110.24724
   17 Bend                     4     7     8               110.55127
   18 Bend                     4     7     9               110.02331
   19 Bend                     4     7    10               113.00755
   20 Bend                     5     4     6               107.55669
   21 Bend                     5     4     7               108.12740
   22 Bend                     6     4     7               108.85445
   23 Bend                     7    10    11                92.98760
   24 Bend                     8     7     9               107.73519
   25 Bend                     8     7    10               109.24275
   26 Bend                     9     7    10               106.05931
   27 Torsion                  1     4     7     8          59.96311
   28 Torsion                  1     4     7     9         178.83671
   29 Torsion                  1     4     7    10         -62.82849
   30 Torsion                  2     1     4     5         -70.89626
   31 Torsion                  2     1     4     6          48.11154
   32 Torsion                  2     1     4     7         167.23840
   33 Torsion                  3     1     4     5          46.56058
   34 Torsion                  3     1     4     6         165.56837
   35 Torsion                  3     1     4     7         -75.30476
   36 Torsion                  4     7    10    11          43.96672
   37 Torsion                  5     4     7     8         -64.92726
   38 Torsion                  5     4     7     9          53.94634
   39 Torsion                  5     4     7    10         172.28114
   40 Torsion                  6     4     7     8         178.50881
   41 Torsion                  6     4     7     9         -62.61759
   42 Torsion                  6     4     7    10          55.71721
   43 Torsion                  8     7    10    11         -79.54990
   44 Torsion                  9     7    10    11         164.58634
 
 
            XYZ format geometry
            -------------------
    11
 geometry
 N                     0.77952861    -1.66350460    -0.14198808
 H                     1.13218972    -2.42054601     0.44598236
 H                     0.67023941    -2.05211006    -1.08236364
 C                    -0.51593659    -1.18056085     0.36337599
 H                    -1.34428902    -1.90011584     0.20860573
 H                    -0.41651344    -1.01727443     1.44563134
 C                    -0.90230906     0.13893532    -0.30137896
 H                    -0.98357270     0.01302188    -1.39148865
 H                    -1.87917136     0.47517641     0.07019019
 S                     0.28141365     1.50530691     0.06627136
 H                     1.37127270     0.71122292    -0.13496470
 
 ==============================================================================
                                internuclear distances
 ------------------------------------------------------------------------------
       center one      |      center two      | atomic units |  angstroms
 ------------------------------------------------------------------------------
    2 H                |   1 N                |     1.93010  |     1.02137
    3 H                |   1 N                |     1.93387  |     1.02336
    4 C                |   1 N                |     2.78172  |     1.47202
    5 H                |   4 C                |     2.09400  |     1.10810
    6 H                |   4 C                |     2.07683  |     1.09901
    7 C                |   4 C                |     2.88594  |     1.52717
    8 H                |   7 C                |     2.07938  |     1.10036
    9 H                |   7 C                |     2.07473  |     1.09790
   10 S                |   7 C                |     3.48619  |     1.84481
   11 H                |  10 S                |     2.57645  |     1.36340
 ------------------------------------------------------------------------------
                         number of included internuclear distances:         10
 ==============================================================================



 ==============================================================================
                                 internuclear angles
 ------------------------------------------------------------------------------
        center 1       |       center 2       |       center 3       |  degrees
 ------------------------------------------------------------------------------
    2 H                |   1 N                |   3 H                |   106.52
    2 H                |   1 N                |   4 C                |   110.45
    3 H                |   1 N                |   4 C                |   110.25
    1 N                |   4 C                |   5 H                |   113.38
    1 N                |   4 C                |   6 H                |   107.89
    1 N                |   4 C                |   7 C                |   110.90
    5 H                |   4 C                |   6 H                |   107.56
    5 H                |   4 C                |   7 C                |   108.13
    6 H                |   4 C                |   7 C                |   108.85
    4 C                |   7 C                |   8 H                |   110.55
    4 C                |   7 C                |   9 H                |   110.02
    4 C                |   7 C                |  10 S                |   113.01
    8 H                |   7 C                |   9 H                |   107.74
    8 H                |   7 C                |  10 S                |   109.24
    9 H                |   7 C                |  10 S                |   106.06
    7 C                |  10 S                |  11 H                |    92.99
 ------------------------------------------------------------------------------
                            number of included internuclear angles:         16
 ==============================================================================



  library name resolved from: .nwchemrc
  library file name is: </estufa/soft/nwchem/nwchem5.1.1_ompi/data/libraries/>
  


 Summary of "ao basis" -> "" (spherical)
 ------------------------------------------------------------------------------
       Tag                 Description            Shells   Functions and Types
 ---------------- ------------------------------  ------  ---------------------
 *                          cc-pVTZ                   on all atoms 


 
 
                           NWChem Geometry Optimization
                           ----------------------------
 
 
 
 
                                   hexamers dft
 
 
 maximum gradient threshold         (gmax) =   0.000015
 rms gradient threshold             (grms) =   0.000010
 maximum cartesian step threshold   (xmax) =   0.000060
 rms cartesian step threshold       (xrms) =   0.000040
 fixed trust radius                (trust) =   0.300000
 maximum step size to saddle      (sadstp) =   0.100000
 energy precision                  (eprec) =   1.0D-07
 maximum number of steps          (nptopt) =   40
 initial hessian option           (inhess) =    0
 line search option               (linopt) =    0
 hessian update option            (modupd) =    1
 saddle point option              (modsad) =    0
 initial eigen-mode to follow     (moddir) =    0
 initial variable to follow       (vardir) =    0
 follow first negative mode     (firstneg) =    T
 apply conjugacy                    (opcg) =    F
 source of zmatrix                         =   autoz   


          -------------------
          Energy Minimization
          -------------------

 
 Names of Z-matrix variables 
    1              2              3              4              5         
    6              7              8              9             10         
   11             12             13             14             15         
   16             17             18             19             20         
   21             22             23             24             25         
   26             27             28             29             30         
   31             32             33             34             35         
   36             37             38             39             40         
   41             42             43             44         
 
 Variables with the same non-blank name are constrained to be equal
 
 
 Using diagonal initial Hessian 
 Scaling for Hessian diagonals: bonds = 0.40  angles = 0.18  torsions = 0.01

          --------
          Step   0
          --------
 
 
                         Geometry "geometry" -> "geometry"
                         ---------------------------------
 
 Output coordinates in angstroms (scale by  1.889725989 to convert to a.u.)
 
  No.       Tag          Charge          X              Y              Z
 ---- ---------------- ---------- -------------- -------------- --------------
    1 N                    7.0000     0.77952861    -1.66350460    -0.14198808
    2 H                    1.0000     1.13218972    -2.42054601     0.44598236
    3 H                    1.0000     0.67023941    -2.05211006    -1.08236364
    4 C                    6.0000    -0.51593659    -1.18056085     0.36337599
    5 H                    1.0000    -1.34428902    -1.90011584     0.20860573
    6 H                    1.0000    -0.41651344    -1.01727443     1.44563134
    7 C                    6.0000    -0.90230906     0.13893532    -0.30137896
    8 H                    1.0000    -0.98357270     0.01302188    -1.39148865
    9 H                    1.0000    -1.87917136     0.47517641     0.07019019
   10 S                   16.0000     0.28141365     1.50530691     0.06627136
   11 H                    1.0000     1.37127270     0.71122292    -0.13496470
 
      Atomic Mass 
      ----------- 
 
      N                 14.003070
      H                  1.007825
      C                 12.000000
      S                 31.972070
 

 Effective nuclear repulsion energy (a.u.)     167.2061143015

            Nuclear Dipole moment (a.u.) 
            ----------------------------
        X                 Y               Z
 ---------------- ---------------- ----------------
     0.0000000000     0.0000000000     0.0000000000
 
                                 NWChem DFT Module
                                 -----------------
 
 
                                   hexamers dft
 
 
                      Basis "ao basis" -> "ao basis" (spherical)
                      -----
  N (Nitrogen)
  ------------
            Exponent  Coefficients 
       -------------- ---------------------------------------------------------
  1 S  1.14200000E+04  0.000523
  1 S  1.71200000E+03  0.004045
  1 S  3.89300000E+02  0.020775
  1 S  1.10000000E+02  0.080727
  1 S  3.55700000E+01  0.233074
  1 S  1.25400000E+01  0.433501
  1 S  4.64400000E+00  0.347472
  1 S  5.11800000E-01 -0.008508
 
  2 S  1.14200000E+04 -0.000115
  2 S  1.71200000E+03 -0.000895
  2 S  3.89300000E+02 -0.004624
  2 S  1.10000000E+02 -0.018528
  2 S  3.55700000E+01 -0.057339
  2 S  1.25400000E+01 -0.132076
  2 S  4.64400000E+00 -0.172510
  2 S  5.11800000E-01  0.599944
 
  3 S  1.29300000E+00  1.000000
 
  4 S  1.78700000E-01  1.000000
 
  5 P  2.66300000E+01  0.014670
  5 P  5.94800000E+00  0.091764
  5 P  1.74200000E+00  0.298683
 
  6 P  5.55000000E-01  1.000000
 
  7 P  1.72500000E-01  1.000000
 
  8 D  1.65400000E+00  1.000000
 
  9 D  4.69000000E-01  1.000000
 
 10 F  1.09300000E+00  1.000000
 
  H (Hydrogen)
  ------------
            Exponent  Coefficients 
       -------------- ---------------------------------------------------------
  1 S  3.38700000E+01  0.006068
  1 S  5.09500000E+00  0.045308
  1 S  1.15900000E+00  0.202822
 
  2 S  3.25800000E-01  1.000000
 
  3 S  1.02700000E-01  1.000000
 
  4 P  1.40700000E+00  1.000000
 
  5 P  3.88000000E-01  1.000000
 
  6 D  1.05700000E+00  1.000000
 
  C (Carbon)
  ----------
            Exponent  Coefficients 
       -------------- ---------------------------------------------------------
  1 S  8.23600000E+03  0.000531
  1 S  1.23500000E+03  0.004108
  1 S  2.80800000E+02  0.021087
  1 S  7.92700000E+01  0.081853
  1 S  2.55900000E+01  0.234817
  1 S  8.99700000E+00  0.434401
  1 S  3.31900000E+00  0.346129
  1 S  3.64300000E-01 -0.008983
 
  2 S  8.23600000E+03 -0.000113
  2 S  1.23500000E+03 -0.000878
  2 S  2.80800000E+02 -0.004540
  2 S  7.92700000E+01 -0.018133
  2 S  2.55900000E+01 -0.055760
  2 S  8.99700000E+00 -0.126895
  2 S  3.31900000E+00 -0.170352
  2 S  3.64300000E-01  0.598684
 
  3 S  9.05900000E-01  1.000000
 
  4 S  1.28500000E-01  1.000000
 
  5 P  1.87100000E+01  0.014031
  5 P  4.13300000E+00  0.086866
  5 P  1.20000000E+00  0.290216
 
  6 P  3.82700000E-01  1.000000
 
  7 P  1.20900000E-01  1.000000
 
  8 D  1.09700000E+00  1.000000
 
  9 D  3.18000000E-01  1.000000
 
 10 F  7.61000000E-01  1.000000
 
  S (Sulphur)
  -----------
            Exponent  Coefficients 
       -------------- ---------------------------------------------------------
  1 S  3.74100000E+05  0.000054
  1 S  5.60500000E+04  0.000421
  1 S  1.27600000E+04  0.002207
  1 S  3.61500000E+03  0.009193
  1 S  1.18300000E+03  0.032112
  1 S  4.28800000E+02  0.094668
  1 S  1.67800000E+02  0.223630
  1 S  6.94700000E+01  0.374393
  1 S  2.98400000E+01  0.329108
  1 S  1.27200000E+01  0.084704
  1 S  5.24400000E+00  0.000441
  1 S  2.21900000E+00  0.001648
  1 S  3.49000000E-01  0.000301
 
  2 S  3.74100000E+05 -0.000015
  2 S  5.60500000E+04 -0.000116
  2 S  1.27600000E+04 -0.000612
  2 S  3.61500000E+03 -0.002554
  2 S  1.18300000E+03 -0.009087
  2 S  4.28800000E+02 -0.027705
  2 S  1.67800000E+02 -0.072002
  2 S  6.94700000E+01 -0.146439
  2 S  2.98400000E+01 -0.195150
  2 S  1.27200000E+01  0.008192
  2 S  5.24400000E+00  0.516601
  2 S  2.21900000E+00  0.542178
  2 S  3.49000000E-01 -0.009181
 
  3 S  3.74100000E+05  0.000004
  3 S  5.60500000E+04  0.000034
  3 S  1.27600000E+04  0.000178
  3 S  3.61500000E+03  0.000741
  3 S  1.18300000E+03  0.002646
  3 S  4.28800000E+02  0.008075
  3 S  1.67800000E+02  0.021228
  3 S  6.94700000E+01  0.043832
  3 S  2.98400000E+01  0.061272
  3 S  1.27200000E+01 -0.003615
  3 S  5.24400000E+00 -0.204510
  3 S  2.21900000E+00 -0.381871
  3 S  3.49000000E-01  0.714147
 
  4 S  7.76700000E-01  1.000000
 
  5 S  1.32200000E-01  1.000000
 
  6 P  5.74400000E+02  0.002423
  6 P  1.35800000E+02  0.019280
  6 P  4.31900000E+01  0.088540
  6 P  1.58700000E+01  0.254654
  6 P  6.20800000E+00  0.433984
  6 P  2.48300000E+00  0.354953
  6 P  3.22900000E-01 -0.005030
 
  7 P  5.74400000E+02 -0.000620
  7 P  1.35800000E+02 -0.004939
  7 P  4.31900000E+01 -0.023265
  7 P  1.58700000E+01 -0.068520
  7 P  6.20800000E+00 -0.123896
  7 P  2.48300000E+00 -0.096950
  7 P  3.22900000E-01  0.569394
 
  8 P  8.68800000E-01  1.000000
 
  9 P  1.09800000E-01  1.000000
 
 10 D  2.69000000E-01  1.000000
 
 11 D  8.19000000E-01  1.000000
 
 12 F  5.57000000E-01  1.000000
 


 Summary of "ao basis" -> "ao basis" (spherical)
 ------------------------------------------------------------------------------
       Tag                 Description            Shells   Functions and Types
 ---------------- ------------------------------  ------  ---------------------
 N                          cc-pVTZ                 10       30   4s3p2d1f
 H                          cc-pVTZ                  6       14   3s2p1d
 C                          cc-pVTZ                 10       30   4s3p2d1f
 S                          cc-pVTZ                 12       34   5s4p2d1f


  Caching 1-el integrals 
 
            General Information
            -------------------
          SCF calculation type: DFT
          Wavefunction type:  closed shell.
          No. of atoms     :    11
          No. of electrons :    42
           Alpha electrons :    21
            Beta electrons :    21
          Charge           :     0
          Spin multiplicity:     1
          Use of symmetry is: off; symmetry adaption is: off
          Maximum number of iterations:  99
          AO basis - number of functions:   222
                     number of shells:    84
          Convergence on energy requested: 1.00D-06
          Convergence on density requested: 1.00D-06
          Convergence on gradient requested: 1.00D-06
 
              XC Information
              --------------
                        SSB-D Method XC Functional
                        Slater Exchange Functional  1.080 local    
                         SSB-1 Exchange Functional  1.000 non-local
                           KT1 gradient correction  0.359 non-local
            Perdew 1991 LDA Correlation Functional  1.000 local    
              simplified PBE Correlation Potential  1.000 non-local
 
             Grid Information
             ----------------
          Grid used for XC integration:  fine      
          Radial quadrature: Mura-Knowles        
          Angular quadrature: Lebedev. 
          Tag              B.-S. Rad. Rad. Pts. Rad. Cut. Ang. Pts.
          ---              ---------- --------- --------- ---------
          N                   0.65       70          10.0       590
          H                   0.35       60          12.0       590
          C                   0.70       70          11.0       590
          S                   1.00      123          12.0       770
          Grid pruning is: on 
          Number of quadrature shells:   753
          Spatial weights used:  Erf1
 
          Convergence Information
          -----------------------
          Convergence aids based upon iterative change in 
          total energy or number of iterations. 
          Levelshifting, if invoked, occurs when the 
          HOMO/LUMO gap drops below (HL_TOL): 1.00D-02
          DIIS, if invoked, will attempt to extrapolate 
          using up to (NFOCK): 10 stored Fock matrices.

                    Damping(90%)  Levelshifting(0.0)       DIIS
                  --------------- ------------------- ---------------
          dE  on:    start             N/A                start   
          dE off:    2 iters           N/A               99 iters 

 
      Screening Tolerance Information
      -------------------------------
          Density screening/tol_rho: 1.00D-10
          AO Gaussian exp screening on grid/accAOfunc:  14
          CD Gaussian exp screening on grid/accCDfunc:  20
          XC Gaussian exp screening on grid/accXCfunc:  20
          Schwarz screening/accCoul: 1.00D-08

 
      Superposition of Atomic Density Guess
      -------------------------------------
 
 Sum of atomic energies:        -530.63616847

 Integral file          = /sgetmp/9992.1.llarga3d-p8/example.aoints.0
 Record size in doubles =  65536        No. of integs per rec  =  65534
 Max. records in memory =      0        Max. records in file   =    761
 No. of bits per label  =      8        No. of bits per value  =     32


 #quartets = 5.021D+06 #integrals = 1.682D+08 #direct =  0.0% #cached =100.0%


File balance: exchanges=    12  moved=    98  time=   0.1

 
      Non-variational initial energy
      ------------------------------

 Total energy =    -532.816183
 1-e energy   =   -1059.464182
 2-e energy   =     359.441884
 HOMO         =      -0.285210
 LUMO         =       0.048800
 
   Time after variat. SCF:     12.9

------------------------------------------------------------
EAF file 0: "/sgetmp/9992.1.llarga3d-p8/example.aoints.0" size=167772160 bytes
------------------------------------------------------------
               write      read    awrite     aread      wait
               -----      ----    ------     -----      ----
     calls:      320         0         0         0         0
   data(b): 1.68e+08  0.00e+00  0.00e+00  0.00e+00
   time(s): 2.83e-01  0.00e+00  0.00e+00  0.00e+00  0.00e+00
rate(mb/s): 5.92e+02  0.00e+00
------------------------------------------------------------


 Parallel integral file used    2571 records with       0 large values

   Time prior to 1st pass:     18.2

 Integral file          = /sgetmp/9992.1.llarga3d-p8/example.aoints.0
 Record size in doubles =  65536        No. of integs per rec  =  65534
 Max. records in memory =    152        Max. records in file   =    761
 No. of bits per label  =      8        No. of bits per value  =     32


 #quartets = 5.862D+06 #integrals = 2.556D+08 #direct =  0.0% #cached =100.0%


File balance: exchanges=     8  moved=   114  time=   0.1


 Grid_pts file          = /sgetmp/9992.1.llarga3d-p8/example.gridpts.0
 Record size in doubles =  12289        No. of grid_pts per rec  =   3070
 Max. records in memory =     27        Max. recs in file   =    265877

 WARNING: error on integrated density =  0.28D-06
 greater than required accuracy of  0.10D-06

           Memory utilization after 1st SCF pass: 
           Heap Space remaining (MW):       19.19            19189797
          Stack Space remaining (MW):       29.49            29489822

   convergence    iter        energy       DeltaE   RMS-Dens  Diis-err    time
 ---------------- ----- ----------------- --------- --------- ---------  ------
 d=90,ls=0.0,diis     1   -536.0350224637 -7.03D+02  4.23D-03  7.22D-01    39.5
 WARNING: error on integrated density =  0.28D-06
 greater than required accuracy of  0.10D-06
 d=90,ls=0.0,diis     2   -536.0421071694 -7.08D-03  2.96D-03  5.48D-01    48.6
 WARNING: error on integrated density =  0.27D-06
 greater than required accuracy of  0.10D-06
 d= 0,ls=0.0,diis     3   -536.0446724540 -2.57D-03  2.77D-03  4.61D-01    57.8
 WARNING: error on integrated density =  0.23D-06
 greater than required accuracy of  0.10D-06
 d= 0,ls=0.0,diis     4   -536.0837438575 -3.91D-02  1.82D-04  2.97D-03    67.0
 WARNING: error on integrated density =  0.23D-06
 greater than required accuracy of  0.10D-06
 d= 0,ls=0.0,diis     5   -536.0841232689 -3.79D-04  5.43D-05  3.66D-04    76.1
 WARNING: error on integrated density =  0.23D-06
 greater than required accuracy of  0.10D-06
 d= 0,ls=0.0,diis     6   -536.0841736650 -5.04D-05  1.30D-05  1.65D-05    85.2
 WARNING: error on integrated density =  0.23D-06
 greater than required accuracy of  0.10D-06
 d= 0,ls=0.0,diis     7   -536.0841753290 -1.66D-06  6.13D-06  3.05D-06    94.3
 WARNING: error on integrated density =  0.23D-06
 greater than required accuracy of  0.10D-06
 d= 0,ls=0.0,diis     8   -536.0841757317 -4.03D-07  1.13D-06  1.11D-07   103.4
 WARNING: error on integrated density =  0.23D-06
 greater than required accuracy of  0.10D-06
 d= 0,ls=0.0,diis     9   -536.0841757444 -1.27D-08  4.08D-07  1.99D-08   112.6


          s6 scale factor =        0.847455000000
              vdW contrib =       -0.006919451763




         Total DFT energy =     -536.091095196212
      One electron energy =    -1064.198494744427
           Coulomb energy =      409.746608591232
    Exchange-Corr. energy =      -48.838403892727
 Nuclear repulsion energy =      167.206114301474

 Numeric. integr. density =       41.999990490578

     Total iterative time =     94.4s


 
                       DFT Final Molecular Orbital Analysis
                       ------------------------------------
 
 Vector    8  Occ=2.000000D+00  E=-5.722238D+00
              MO Center=  2.8D-01,  1.5D+00,  6.6D-02, r^2= 6.8D-02
   Bfn.  Coefficient  Atom+Function         Bfn.  Coefficient  Atom+Function  
  ----- ------------  ---------------      ----- ------------  ---------------
   182      0.935772  10 S  pz              181     -0.263044  10 S  py        
 
 Vector    9  Occ=2.000000D+00  E=-8.379263D-01
              MO Center=  3.9D-01, -1.6D+00, -5.5D-02, r^2= 1.1D+00
   Bfn.  Coefficient  Atom+Function         Bfn.  Coefficient  Atom+Function  
  ----- ------------  ---------------      ----- ------------  ---------------
     2     -0.404083   1 N  s                60     -0.222342   4 C  s         
 
 Vector   10  Occ=2.000000D+00  E=-7.245160D-01
              MO Center= -3.1D-01,  9.8D-02, -1.2D-01, r^2= 2.4D+00
   Bfn.  Coefficient  Atom+Function         Bfn.  Coefficient  Atom+Function  
  ----- ------------  ---------------      ----- ------------  ---------------
   118      0.316627   7 C  s               177      0.309122  10 S  s         
     2     -0.169287   1 N  s               179      0.153463  10 S  s         
 
 Vector   11  Occ=2.000000D+00  E=-6.317280D-01
              MO Center= -8.0D-03,  1.1D-02,  9.5D-02, r^2= 3.2D+00
   Bfn.  Coefficient  Atom+Function         Bfn.  Coefficient  Atom+Function  
  ----- ------------  ---------------      ----- ------------  ---------------
   177     -0.417671  10 S  s                60      0.269854   4 C  s         
   179     -0.206819  10 S  s         
 
 Vector   12  Occ=2.000000D+00  E=-5.512590D-01
              MO Center= -4.0D-01, -2.7D-01, -6.4D-02, r^2= 3.2D+00
   Bfn.  Coefficient  Atom+Function         Bfn.  Coefficient  Atom+Function  
  ----- ------------  ---------------      ----- ------------  ---------------
   118      0.265982   7 C  s               177     -0.224312  10 S  s         
    60     -0.222650   4 C  s         
 
 Vector   13  Occ=2.000000D+00  E=-4.630271D-01
              MO Center=  2.8D-01, -1.3D+00,  1.4D-02, r^2= 2.5D+00
   Bfn.  Coefficient  Atom+Function         Bfn.  Coefficient  Atom+Function  
  ----- ------------  ---------------      ----- ------------  ---------------
    10     -0.205633   1 N  pz               32     -0.172483   2 H  s         
     7     -0.165040   1 N  pz               68     -0.159657   4 C  pz        
 
 Vector   14  Occ=2.000000D+00  E=-4.290791D-01
              MO Center= -2.6D-01, -1.2D+00,  1.3D-02, r^2= 2.4D+00
   Bfn.  Coefficient  Atom+Function         Bfn.  Coefficient  Atom+Function  
  ----- ------------  ---------------      ----- ------------  ---------------
    66      0.232571   4 C  px               63      0.173831   4 C  px        
 
 Vector   15  Occ=2.000000D+00  E=-4.007837D-01
              MO Center= -4.4D-01, -6.1D-01, -2.2D-01, r^2= 2.7D+00
   Bfn.  Coefficient  Atom+Function         Bfn.  Coefficient  Atom+Function  
  ----- ------------  ---------------      ----- ------------  ---------------
   126     -0.234061   7 C  pz               67     -0.173215   4 C  py        
   123     -0.170690   7 C  pz        
 
 Vector   16  Occ=2.000000D+00  E=-3.766622D-01
              MO Center=  3.7D-02, -1.1D-01, -3.9D-03, r^2= 3.3D+00
   Bfn.  Coefficient  Atom+Function         Bfn.  Coefficient  Atom+Function  
  ----- ------------  ---------------      ----- ------------  ---------------
   183      0.248802  10 S  px              125     -0.186381   7 C  py        
     8      0.176698   1 N  px               67      0.169883   4 C  py        
 
 Vector   17  Occ=2.000000D+00  E=-3.400310D-01
              MO Center= -5.0D-01, -2.6D-02, -1.7D-02, r^2= 3.0D+00
   Bfn.  Coefficient  Atom+Function         Bfn.  Coefficient  Atom+Function  
  ----- ------------  ---------------      ----- ------------  ---------------
   124     -0.219400   7 C  px              183      0.196718  10 S  px        
   121     -0.157446   7 C  px              162      0.153601   9 H  s         
 
 Vector   18  Occ=2.000000D+00  E=-3.257817D-01
              MO Center= -3.3D-01, -4.4D-01,  1.5D-01, r^2= 3.0D+00
   Bfn.  Coefficient  Atom+Function         Bfn.  Coefficient  Atom+Function  
  ----- ------------  ---------------      ----- ------------  ---------------
    68     -0.217287   4 C  pz              183     -0.176887  10 S  px        
    65     -0.161273   4 C  pz              124      0.154717   7 C  px        
   104     -0.152309   6 H  s         
 
 Vector   19  Occ=2.000000D+00  E=-2.900550D-01
              MO Center=  2.7D-02,  1.0D+00,  5.0D-02, r^2= 2.9D+00
   Bfn.  Coefficient  Atom+Function         Bfn.  Coefficient  Atom+Function  
  ----- ------------  ---------------      ----- ------------  ---------------
   184     -0.401323  10 S  py              190     -0.224715  10 S  py        
   179     -0.202434  10 S  s               177     -0.195656  10 S  s         
   187     -0.160272  10 S  py              125      0.157083   7 C  py        
 
 Vector   20  Occ=2.000000D+00  E=-2.215304D-01
              MO Center=  6.0D-01, -1.3D+00, -9.2D-02, r^2= 2.2D+00
   Bfn.  Coefficient  Atom+Function         Bfn.  Coefficient  Atom+Function  
  ----- ------------  ---------------      ----- ------------  ---------------
     9      0.276781   1 N  py               11      0.251827   1 N  px        
     8      0.236736   1 N  px                6      0.212094   1 N  py        
    12      0.208868   1 N  py                4      0.190123   1 N  s         
     5      0.183838   1 N  px                2      0.151472   1 N  s         
 
 Vector   21  Occ=2.000000D+00  E=-1.989465D-01
              MO Center=  2.3D-01,  1.2D+00,  2.7D-02, r^2= 2.3D+00
   Bfn.  Coefficient  Atom+Function         Bfn.  Coefficient  Atom+Function  
  ----- ------------  ---------------      ----- ------------  ---------------
   185     -0.502160  10 S  pz              191     -0.375485  10 S  pz        
   188     -0.201787  10 S  pz        
 
 Vector   22  Occ=0.000000D+00  E=-9.487120D-03
              MO Center=  3.7D-02, -1.0D-01, -1.9D-01, r^2= 6.8D+00
   Bfn.  Coefficient  Atom+Function         Bfn.  Coefficient  Atom+Function  
  ----- ------------  ---------------      ----- ------------  ---------------
   120      1.339253   7 C  s                 4      0.796599   1 N  s         
    62      0.688477   4 C  s               189      0.619093  10 S  px        
   149     -0.526417   8 H  s               211     -0.501362  11 H  s         
    33     -0.477928   2 H  s               163     -0.475024   9 H  s         
    47     -0.473506   3 H  s               105     -0.407299   6 H  s         
 
 Vector   23  Occ=0.000000D+00  E= 7.696240D-03
              MO Center=  2.4D-01, -7.9D-01, -4.6D-02, r^2= 7.3D+00
   Bfn.  Coefficient  Atom+Function         Bfn.  Coefficient  Atom+Function  
  ----- ------------  ---------------      ----- ------------  ---------------
    62     -1.032480   4 C  s                 4     -1.002555   1 N  s         
   120      0.976751   7 C  s                33      0.701265   2 H  s         
    91      0.678668   5 H  s                47      0.606364   3 H  s         
   179     -0.583657  10 S  s               189      0.544213  10 S  px        
   190      0.459734  10 S  py               12      0.368778   1 N  py        
 
 Vector   24  Occ=0.000000D+00  E= 2.526243D-02
              MO Center= -1.6D-01, -2.3D-02, -7.3D-02, r^2= 7.0D+00
   Bfn.  Coefficient  Atom+Function         Bfn.  Coefficient  Atom+Function  
  ----- ------------  ---------------      ----- ------------  ---------------
    62     -1.538542   4 C  s               211     -1.152778  11 H  s         
    91      1.045585   5 H  s               179      1.030731  10 S  s         
   120     -0.899397   7 C  s               163      0.618541   9 H  s         
     4      0.592010   1 N  s               190     -0.508478  10 S  py        
   149      0.498677   8 H  s               128     -0.491986   7 C  py        
 
 Vector   25  Occ=0.000000D+00  E= 4.238874D-02
              MO Center= -1.3D-01, -1.2D+00,  3.5D-02, r^2= 7.1D+00
   Bfn.  Coefficient  Atom+Function         Bfn.  Coefficient  Atom+Function  
  ----- ------------  ---------------      ----- ------------  ---------------
   105     -1.386807   6 H  s               149      1.207791   8 H  s         
    62      1.119219   4 C  s                47      0.994365   3 H  s         
    33     -0.759001   2 H  s               129      0.682129   7 C  pz        
   163     -0.619382   9 H  s               120     -0.536659   7 C  s         
    71      0.456882   4 C  pz               13      0.418911   1 N  pz        
 
 Vector   26  Occ=0.000000D+00  E= 4.878301D-02
              MO Center= -2.8D-01, -9.5D-02,  2.0D-02, r^2= 8.2D+00
   Bfn.  Coefficient  Atom+Function         Bfn.  Coefficient  Atom+Function  
  ----- ------------  ---------------      ----- ------------  ---------------
   163     -1.240685   9 H  s               179      1.204999  10 S  s         
     4     -1.057649   1 N  s               127     -1.049578   7 C  px        
   211     -0.812289  11 H  s               190     -0.791169  10 S  py        
   120      0.714761   7 C  s                33      0.682084   2 H  s         
    91     -0.598213   5 H  s               149     -0.557782   8 H  s         
 
 Vector   27  Occ=0.000000D+00  E= 7.796771D-02
              MO Center= -1.1D+00, -6.5D-01,  2.6D-01, r^2= 7.2D+00
   Bfn.  Coefficient  Atom+Function         Bfn.  Coefficient  Atom+Function  
  ----- ------------  ---------------      ----- ------------  ---------------
    62      2.180669   4 C  s               120     -1.817356   7 C  s         
   163      1.754136   9 H  s                91     -1.398526   5 H  s         
   105     -0.879301   6 H  s               127      0.789955   7 C  px        
    33      0.629165   2 H  s                69     -0.568843   4 C  px        
   211     -0.494776  11 H  s                 4     -0.489367   1 N  s         
 
 Vector   28  Occ=0.000000D+00  E= 8.308460D-02
              MO Center= -8.2D-01, -4.6D-01, -3.0D-01, r^2= 6.8D+00
   Bfn.  Coefficient  Atom+Function         Bfn.  Coefficient  Atom+Function  
  ----- ------------  ---------------      ----- ------------  ---------------
   149     -1.890557   8 H  s               105     -1.415255   6 H  s         
    91      1.346124   5 H  s               129     -1.295984   7 C  pz        
    71      1.016599   4 C  pz              163      0.864788   9 H  s         
    69      0.714644   4 C  px               70      0.616168   4 C  py        
   120      0.583260   7 C  s               128     -0.580918   7 C  py        
 
 Vector   29  Occ=0.000000D+00  E= 9.902242D-02
              MO Center= -5.1D-02, -1.6D+00, -6.5D-02, r^2= 7.2D+00
   Bfn.  Coefficient  Atom+Function         Bfn.  Coefficient  Atom+Function  
  ----- ------------  ---------------      ----- ------------  ---------------
   105      1.409987   6 H  s                47      1.329239   3 H  s         
    33     -1.289986   2 H  s                91     -1.183754   5 H  s         
    13      0.941031   1 N  pz              149     -0.870803   8 H  s         
    62     -0.853913   4 C  s               120      0.783059   7 C  s         
   163      0.721759   9 H  s                70     -0.714440   4 C  py        
 
 Vector   30  Occ=0.000000D+00  E= 1.299640D-01
              MO Center= -4.6D-01, -3.5D-01,  7.2D-02, r^2= 4.6D+00
   Bfn.  Coefficient  Atom+Function         Bfn.  Coefficient  Atom+Function  
  ----- ------------  ---------------      ----- ------------  ---------------
    62     -3.035436   4 C  s               120      2.625902   7 C  s         
   128     -1.783416   7 C  py               70     -1.699067   4 C  py        
    71      1.697299   4 C  pz              127      1.110700   7 C  px        
     4      0.992759   1 N  s               129      0.846099   7 C  pz        
    69     -0.764551   4 C  px              105     -0.721473   6 H  s         
 
 Vector   31  Occ=0.000000D+00  E= 1.582694D-01
              MO Center= -3.8D-01, -1.1D+00,  2.0D-01, r^2= 4.6D+00
   Bfn.  Coefficient  Atom+Function         Bfn.  Coefficient  Atom+Function  
  ----- ------------  ---------------      ----- ------------  ---------------
    69     -2.106063   4 C  px                4      1.573509   1 N  s         
    70      1.399789   4 C  py               11     -0.990958   1 N  px        
   129     -0.863733   7 C  pz              128      0.831507   7 C  py        
   120     -0.820808   7 C  s                47      0.779819   3 H  s         
   149     -0.680611   8 H  s                13      0.614028   1 N  pz        
 
 Vector   32  Occ=0.000000D+00  E= 2.044109D-01
              MO Center=  7.8D-01,  6.4D-01, -7.3D-02, r^2= 5.1D+00
   Bfn.  Coefficient  Atom+Function         Bfn.  Coefficient  Atom+Function  
  ----- ------------  ---------------      ----- ------------  ---------------
   211     -1.471534  11 H  s               210      0.602119  11 H  s         
    12      0.498438   1 N  py              179      0.455301  10 S  s         
   105      0.429438   6 H  s               128      0.418214   7 C  py        
   183      0.416444  10 S  px               70     -0.376240   4 C  py        
    32      0.369556   2 H  s               127      0.338016   7 C  px        
 
 Vector   33  Occ=0.000000D+00  E= 2.292121D-01
              MO Center= -9.2D-03,  8.4D-01,  4.3D-02, r^2= 5.6D+00
   Bfn.  Coefficient  Atom+Function         Bfn.  Coefficient  Atom+Function  
  ----- ------------  ---------------      ----- ------------  ---------------
    62     -1.690611   4 C  s               190     -1.098546  10 S  py        
   129      0.910445   7 C  pz                4      0.817009   1 N  s         
   128     -0.715651   7 C  py              179      0.675284  10 S  s         
   104      0.641132   6 H  s                69     -0.535055   4 C  px        
   148      0.490548   8 H  s                70     -0.477801   4 C  py        
 
 Vector   34  Occ=0.000000D+00  E= 2.381411D-01
              MO Center= -6.7D-01, -2.5D-01, -3.0D-01, r^2= 5.1D+00
   Bfn.  Coefficient  Atom+Function         Bfn.  Coefficient  Atom+Function  
  ----- ------------  ---------------      ----- ------------  ---------------
   128     -1.428378   7 C  py              127     -0.789035   7 C  px        
   179      0.714179  10 S  s                 4     -0.634779   1 N  s         
    71     -0.629129   4 C  pz               46      0.536187   3 H  s         
   104      0.536029   6 H  s                62     -0.439224   4 C  s         
    13      0.425761   1 N  pz              148     -0.407717   8 H  s         
 
 Vector   35  Occ=0.000000D+00  E= 2.459509D-01
              MO Center= -3.1D-01,  1.2D-01,  1.1D-01, r^2= 6.1D+00
   Bfn.  Coefficient  Atom+Function         Bfn.  Coefficient  Atom+Function  
  ----- ------------  ---------------      ----- ------------  ---------------
    70      1.369396   4 C  py               71     -0.882000   4 C  pz        
   120     -0.824382   7 C  s               190      0.667398  10 S  py        
   148      0.665114   8 H  s                62      0.605281   4 C  s         
   129      0.554458   7 C  pz               32     -0.465783   2 H  s         
    12     -0.450484   1 N  py               33      0.401268   2 H  s         
 
 Vector   36  Occ=0.000000D+00  E= 2.531869D-01
              MO Center= -2.4D-01,  5.1D-02,  8.3D-02, r^2= 5.7D+00
   Bfn.  Coefficient  Atom+Function         Bfn.  Coefficient  Atom+Function  
  ----- ------------  ---------------      ----- ------------  ---------------
   127      0.846696   7 C  px              120      0.771010   7 C  s         
   179     -0.644122  10 S  s               190      0.629343  10 S  py        
   163     -0.603646   9 H  s                 4      0.559546   1 N  s         
   148     -0.558696   8 H  s                62     -0.557727   4 C  s         
    70      0.540377   4 C  py              104      0.482310   6 H  s         
 
 Vector   37  Occ=0.000000D+00  E= 2.703525D-01
              MO Center=  1.7D-01,  1.0D+00,  1.8D-01, r^2= 5.8D+00
   Bfn.  Coefficient  Atom+Function         Bfn.  Coefficient  Atom+Function  
  ----- ------------  ---------------      ----- ------------  ---------------
   120     -2.024866   7 C  s               179      1.704125  10 S  s         
   190     -1.603383  10 S  py              127     -1.066821   7 C  px        
   128     -0.877883   7 C  py              189     -0.848115  10 S  px        
     4      0.741942   1 N  s               129     -0.684125   7 C  pz        
    91     -0.630000   5 H  s               184      0.557089  10 S  py        
 
 Vector   38  Occ=0.000000D+00  E= 2.817147D-01
              MO Center= -1.8D-01, -3.8D-01,  1.6D-01, r^2= 6.4D+00
   Bfn.  Coefficient  Atom+Function         Bfn.  Coefficient  Atom+Function  
  ----- ------------  ---------------      ----- ------------  ---------------
     4      1.504880   1 N  s                70      1.288194   4 C  py        
    71      1.275537   4 C  pz               46     -0.826226   3 H  s         
    69     -0.773505   4 C  px              127     -0.688815   7 C  px        
   191     -0.604864  10 S  pz              163     -0.597040   9 H  s         
    47      0.488616   3 H  s               185      0.482652  10 S  pz        
 
 Vector   39  Occ=0.000000D+00  E= 2.935713D-01
              MO Center=  2.2D-01,  3.2D-01,  4.7D-02, r^2= 6.4D+00
   Bfn.  Coefficient  Atom+Function         Bfn.  Coefficient  Atom+Function  
  ----- ------------  ---------------      ----- ------------  ---------------
     4      1.147440   1 N  s                62     -1.142137   4 C  s         
   191      1.093049  10 S  pz               69     -0.868841   4 C  px        
   185     -0.745732  10 S  pz               32     -0.712675   2 H  s         
   129     -0.668553   7 C  pz               33      0.433906   2 H  s         
   120     -0.386544   7 C  s                70      0.376095   4 C  py        
 
 Vector   40  Occ=0.000000D+00  E= 3.344622D-01
              MO Center=  1.8D-01,  5.3D-01, -2.6D-02, r^2= 4.9D+00
   Bfn.  Coefficient  Atom+Function         Bfn.  Coefficient  Atom+Function  
  ----- ------------  ---------------      ----- ------------  ---------------
   120     -1.222862   7 C  s               189     -0.885683  10 S  px        
   129     -0.555651   7 C  pz               62     -0.548556   4 C  s         
   179      0.547472  10 S  s               128     -0.526309   7 C  py        
    47     -0.520610   3 H  s                70      0.510870   4 C  py        
   127     -0.500271   7 C  px               90      0.490596   5 H  s         
 
 Vector   41  Occ=0.000000D+00  E= 3.370795D-01
              MO Center=  2.2D-02, -3.2D-01, -2.8D-03, r^2= 6.9D+00
   Bfn.  Coefficient  Atom+Function         Bfn.  Coefficient  Atom+Function  
  ----- ------------  ---------------      ----- ------------  ---------------
   120     -3.434529   7 C  s                 4     -1.458092   1 N  s         
    62      1.390660   4 C  s               189     -1.367717  10 S  px        
    71     -1.143216   4 C  pz               91      0.993946   5 H  s         
    70      0.940283   4 C  py              211      0.846453  11 H  s         
    11      0.621683   1 N  px               33      0.521386   2 H  s         
 
 Vector   42  Occ=0.000000D+00  E= 3.585470D-01
              MO Center= -1.5D-01, -8.6D-01, -3.1D-01, r^2= 5.5D+00
   Bfn.  Coefficient  Atom+Function         Bfn.  Coefficient  Atom+Function  
  ----- ------------  ---------------      ----- ------------  ---------------
   120     -2.170023   7 C  s               127      1.211274   7 C  px        
    70      1.055704   4 C  py               69     -0.938555   4 C  px        
    46      0.930777   3 H  s               162      0.816587   9 H  s         
    47     -0.734597   3 H  s                 4      0.590943   1 N  s         
    13      0.559424   1 N  pz              149      0.527668   8 H  s         
 
 Vector   43  Occ=0.000000D+00  E= 3.671106D-01
              MO Center=  2.5D-01, -2.9D-01,  2.7D-02, r^2= 7.5D+00
   Bfn.  Coefficient  Atom+Function         Bfn.  Coefficient  Atom+Function  
  ----- ------------  ---------------      ----- ------------  ---------------
   189      1.739183  10 S  px              128      1.722469   7 C  py        
    71     -1.594352   4 C  pz              129      1.510996   7 C  pz        
   211     -1.299419  11 H  s                33      1.033626   2 H  s         
   149      1.013632   8 H  s               105      0.886937   6 H  s         
   163     -0.800504   9 H  s                69     -0.657686   4 C  px        
 
 Vector   44  Occ=0.000000D+00  E= 3.969341D-01
              MO Center= -1.1D+00, -3.7D-01,  2.9D-02, r^2= 5.6D+00
   Bfn.  Coefficient  Atom+Function         Bfn.  Coefficient  Atom+Function  
  ----- ------------  ---------------      ----- ------------  ---------------
    62      3.733165   4 C  s               163     -2.178710   9 H  s         
    69     -1.924165   4 C  px              127     -1.896966   7 C  px        
   128      1.887268   7 C  py               91     -1.815941   5 H  s         
    71     -1.023106   4 C  pz              162     -0.856451   9 H  s         
    90     -0.855322   5 H  s               120     -0.782009   7 C  s         
 
 Vector   45  Occ=0.000000D+00  E= 4.056935D-01
              MO Center= -3.5D-01, -3.8D-01, -2.4D-01, r^2= 5.9D+00
   Bfn.  Coefficient  Atom+Function         Bfn.  Coefficient  Atom+Function  
  ----- ------------  ---------------      ----- ------------  ---------------
   120      2.350899   7 C  s                70     -2.067970   4 C  py        
   149     -1.832474   8 H  s                91     -1.790905   5 H  s         
     4     -1.234669   1 N  s               211      1.172469  11 H  s         
   129     -1.159373   7 C  pz              179     -1.122169  10 S  s         
    90     -1.067953   5 H  s               128     -1.033575   7 C  py        
 
 Vector   46  Occ=0.000000D+00  E= 4.155331D-01
              MO Center= -4.9D-01, -5.6D-01,  1.0D-01, r^2= 5.8D+00
   Bfn.  Coefficient  Atom+Function         Bfn.  Coefficient  Atom+Function  
  ----- ------------  ---------------      ----- ------------  ---------------
    62     -3.250792   4 C  s               129      2.696845   7 C  pz        
    70     -2.266417   4 C  py              149      1.898641   8 H  s         
   105      1.855160   6 H  s                91     -1.420220   5 H  s         
    71     -1.418408   4 C  pz                4      1.368919   1 N  s         
   128     -1.139456   7 C  py               69     -1.131232   4 C  px        
 
 Vector   47  Occ=0.000000D+00  E= 4.167335D-01
              MO Center= -4.3D-01, -4.4D-01,  2.4D-01, r^2= 6.2D+00
   Bfn.  Coefficient  Atom+Function         Bfn.  Coefficient  Atom+Function  
  ----- ------------  ---------------      ----- ------------  ---------------
    71      2.772306   4 C  pz              105     -2.458796   6 H  s         
   129      2.248937   7 C  pz              149      1.837415   8 H  s         
   120      1.600917   7 C  s               128     -1.431313   7 C  py        
   104     -1.310773   6 H  s                69      1.107535   4 C  px        
   163     -1.106017   9 H  s               148      1.085233   8 H  s         
 
 Vector   48  Occ=0.000000D+00  E= 4.361756D-01
              MO Center= -1.2D+00, -5.7D-01, -1.8D-01, r^2= 5.6D+00
   Bfn.  Coefficient  Atom+Function         Bfn.  Coefficient  Atom+Function  
  ----- ------------  ---------------      ----- ------------  ---------------
   120     -2.316935   7 C  s               163      2.275844   9 H  s         
   127      1.997186   7 C  px               91     -1.576937   5 H  s         
   149      1.373355   8 H  s                70     -1.109281   4 C  py        
    62      1.010630   4 C  s                 4     -1.003830   1 N  s         
   129      0.880099   7 C  pz              128     -0.720966   7 C  py        
 
 Vector   49  Occ=0.000000D+00  E= 4.392192D-01
              MO Center= -4.5D-02, -1.2D+00,  5.7D-02, r^2= 5.4D+00
   Bfn.  Coefficient  Atom+Function         Bfn.  Coefficient  Atom+Function  
  ----- ------------  ---------------      ----- ------------  ---------------
    62      3.249002   4 C  s                 4      2.673788   1 N  s         
   105     -1.390184   6 H  s                32     -1.198479   2 H  s         
    90     -1.198141   5 H  s                12     -1.156666   1 N  py        
    69     -0.874445   4 C  px               47     -0.873355   3 H  s         
    91     -0.872342   5 H  s                33     -0.657297   2 H  s         
 
 Vector   50  Occ=0.000000D+00  E= 4.612057D-01
              MO Center= -2.0D-01, -1.7D-01, -1.1D-01, r^2= 6.3D+00
   Bfn.  Coefficient  Atom+Function         Bfn.  Coefficient  Atom+Function  
  ----- ------------  ---------------      ----- ------------  ---------------
   120     -3.761454   7 C  s                62      3.605206   4 C  s         
   128      2.983737   7 C  py              179     -2.200297  10 S  s         
    71     -1.803089   4 C  pz               69     -1.355458   4 C  px        
   127      1.121742   7 C  px              149      0.892754   8 H  s         
    11      0.856959   1 N  px              189      0.826195  10 S  px        
 
 Vector   51  Occ=0.000000D+00  E= 4.864240D-01
              MO Center=  3.7D-01, -7.9D-01,  2.5D-01, r^2= 6.5D+00
   Bfn.  Coefficient  Atom+Function         Bfn.  Coefficient  Atom+Function  
  ----- ------------  ---------------      ----- ------------  ---------------
    62     -2.692960   4 C  s               179     -1.610587  10 S  s         
    33     -1.602066   2 H  s                12     -1.555750   1 N  py        
    69      1.502261   4 C  px                4      1.494171   1 N  s         
    91      1.269382   5 H  s                90      1.150362   5 H  s         
   211      1.009811  11 H  s               105      0.995632   6 H  s         
 
 Vector   52  Occ=0.000000D+00  E= 4.965045D-01
              MO Center=  6.4D-01, -1.3D+00, -3.1D-01, r^2= 5.4D+00
   Bfn.  Coefficient  Atom+Function         Bfn.  Coefficient  Atom+Function  
  ----- ------------  ---------------      ----- ------------  ---------------
    13     -2.654787   1 N  pz               47     -1.959638   3 H  s         
    62     -1.747038   4 C  s                46     -1.694800   3 H  s         
     4      1.665735   1 N  s                91      1.194556   5 H  s         
    69      1.051829   4 C  px               33      1.016520   2 H  s         
    11     -0.973008   1 N  px               53     -0.894182   3 H  pz        
 
 Vector   53  Occ=0.000000D+00  E= 5.065867D-01
              MO Center=  6.9D-01, -8.9D-01, -2.5D-01, r^2= 5.7D+00
   Bfn.  Coefficient  Atom+Function         Bfn.  Coefficient  Atom+Function  
  ----- ------------  ---------------      ----- ------------  ---------------
   120      2.297632   7 C  s                11      2.215454   1 N  px        
    62      2.134979   4 C  s                69      1.999469   4 C  px        
   129      1.921159   7 C  pz               13     -1.735206   1 N  pz        
     4     -1.463145   1 N  s               162     -1.335480   9 H  s         
    70     -1.305492   4 C  py              211     -1.287076  11 H  s         
 

 center of mass
 --------------
 x =   0.03515569 y =   0.14952558 z =   0.01061491

 moments of inertia (a.u.)
 ------------------
         542.230098060735           0.000000000000           0.000000000000
           0.000000000000         152.659818386621           0.000000000000
           0.000000000000           0.000000000000         633.462866172496
 
     Multipole analysis of the density
     ---------------------------------
 
     L   x y z        total         alpha         beta         nuclear
     -   - - -        -----         -----         ----         -------
     0   0 0 0      0.000000    -21.000000    -21.000000     42.000000
 
     1   1 0 0     -0.306692     -0.153346     -0.153346      0.000000
     1   0 1 0     -1.165113     -0.582557     -0.582557      0.000000
     1   0 0 1     -0.132994     -0.066497     -0.066497      0.000000
 
     2   2 0 0    -23.621687    -51.259722    -51.259722     78.897757
     2   1 1 0     -0.966148      0.347924      0.347924     -1.661995
     2   1 0 1      0.112414      0.093781      0.093781     -0.075149
     2   0 2 0    -24.054912   -154.068973   -154.068973    284.083034
     2   0 1 1      0.278025      0.820659      0.820659     -1.363292
     2   0 0 2    -24.484566    -24.762048    -24.762048     25.039529
 

------------------------------------------------------------
EAF file 0: "/sgetmp/9992.1.llarga3d-p8/example.aoints.0" size=175636480 bytes
------------------------------------------------------------
               write      read    awrite     aread      wait
               -----      ----    ------     -----      ----
     calls:      373         9         0      2709      2709
   data(b): 1.96e+08  4.72e+06  0.00e+00  1.42e+09
   time(s): 3.37e-01  6.37e-03  0.00e+00  1.39e+00  6.89e-03
rate(mb/s): 5.81e+02  7.41e+02  0.00e+00* 1.01e+03*
------------------------------------------------------------
* = Effective rate.  Full wait time used for read and write.


 Parallel integral file used    3904 records with       0 large values

 
 
                            NWChem DFT Gradient Module
                            --------------------------
 
 
                                   hexamers dft
 
 

  charge          =   0.00
  wavefunction    = closed shell



                         DFT ENERGY GRADIENTS

    atom               coordinates                        gradient
                 x          y          z           x          y          z
   1 N       1.473095  -3.143568  -0.268319    0.003055   0.004807   0.000562
   2 H       2.139528  -4.574169   0.842784    0.006247  -0.008015   0.006596
   3 H       1.266569  -3.877926  -2.045371    0.000830  -0.003830  -0.011564
   4 C      -0.974979  -2.230937   0.686681   -0.004196   0.003512   0.001200
   5 H      -2.540338  -3.590698   0.394208   -0.004067  -0.004702  -0.000416
   6 H      -0.787096  -1.922370   2.731847    0.000113   0.000796   0.006544
   7 C      -1.705117   0.262550  -0.569524   -0.003125  -0.003315  -0.000538
   8 H      -1.858683   0.024608  -2.629532   -0.001003  -0.000539  -0.006345
   9 H      -3.551119   0.897953   0.132640   -0.006002   0.001894   0.001592
  10 S       0.531795   2.844618   0.125235    0.001034   0.013942   0.003714
  11 H       2.591330   1.344016  -0.255046    0.007115  -0.004549  -0.001345
 
                 ----------------------------------------
                 |  Time  |  1-e(secs)   |  2-e(secs)   |
                 ----------------------------------------
                 |  CPU   |       0.03   |      29.43   |
                 ----------------------------------------
                 |  WALL  |       0.03   |      29.47   |
                 ----------------------------------------

@ Step       Energy      Delta E   Gmax     Grms     Xrms     Xmax   Walltime
@ ---- ---------------- -------- -------- -------- -------- -------- --------
@    0    -536.09109520  0.0D+00  0.01274  0.00458  0.00000  0.00000    161.1
                                                       ok       ok  



                                Z-matrix (autoz)
                                -------- 

 Units are Angstrom for bonds and degrees for angles
 
      Type          Name      I     J     K     L     M      Value     Gradient
      ----------- --------  ----- ----- ----- ----- ----- ---------- ----------
    1 Stretch                  1     2                       1.02137    0.01189
    2 Stretch                  1     3                       1.02336    0.01199
    3 Stretch                  1     4                       1.47202    0.01274
    4 Stretch                  4     5                       1.10810    0.00615
    5 Stretch                  4     6                       1.09901    0.00657
    6 Stretch                  4     7                       1.52717    0.00820
    7 Stretch                  7     8                       1.10036    0.00642
    8 Stretch                  7     9                       1.09790    0.00646
    9 Stretch                  7    10                       1.84481    0.01265
   10 Stretch                 10    11                       1.36340    0.00853
   11 Bend                     1     4     5               113.38373   -0.00066
   12 Bend                     1     4     6               107.89104   -0.00005
   13 Bend                     1     4     7               110.89650    0.00088
   14 Bend                     2     1     3               106.52313   -0.00063
   15 Bend                     2     1     4               110.45120    0.00155
   16 Bend                     3     1     4               110.24724    0.00166
   17 Bend                     4     7     8               110.55127    0.00006
   18 Bend                     4     7     9               110.02331   -0.00008
   19 Bend                     4     7    10               113.00755    0.00043
   20 Bend                     5     4     6               107.55669   -0.00005
   21 Bend                     5     4     7               108.12740    0.00019
   22 Bend                     6     4     7               108.85445   -0.00035
   23 Bend                     7    10    11                92.98760    0.00066
   24 Bend                     8     7     9               107.73519   -0.00020
   25 Bend                     8     7    10               109.24275   -0.00014
   26 Bend                     9     7    10               106.05931   -0.00011
   27 Torsion                  1     4     7     8          59.96311    0.00000
   28 Torsion                  1     4     7     9         178.83671   -0.00026
   29 Torsion                  1     4     7    10         -62.82849   -0.00017
   30 Torsion                  2     1     4     5         -70.89626   -0.00031
   31 Torsion                  2     1     4     6          48.11154   -0.00080
   32 Torsion                  2     1     4     7         167.23840   -0.00074
   33 Torsion                  3     1     4     5          46.56058    0.00088
   34 Torsion                  3     1     4     6         165.56837    0.00039
   35 Torsion                  3     1     4     7         -75.30476    0.00044
   36 Torsion                  4     7    10    11          43.96672    0.00015
   37 Torsion                  5     4     7     8         -64.92726    0.00011
   38 Torsion                  5     4     7     9          53.94634   -0.00015
   39 Torsion                  5     4     7    10         172.28114   -0.00006
   40 Torsion                  6     4     7     8         178.50881    0.00025
   41 Torsion                  6     4     7     9         -62.61759   -0.00001
   42 Torsion                  6     4     7    10          55.71721    0.00008
   43 Torsion                  8     7    10    11         -79.54990   -0.00012
   44 Torsion                  9     7    10    11         164.58634    0.00024
 

          --------
          Step   1
          --------
 
 
                         Geometry "geometry" -> "geometry"
                         ---------------------------------
 
 Output coordinates in angstroms (scale by  1.889725989 to convert to a.u.)
 
  No.       Tag          Charge          X              Y              Z
 ---- ---------------- ---------- -------------- -------------- --------------
    1 N                    7.0000     0.76379805    -1.61705472    -0.14109348
    2 H                    1.0000     1.07492725    -2.35554752     0.41572513
    3 H                    1.0000     0.62656394    -1.99806152    -1.03049322
    4 C                    6.0000    -0.49626805    -1.17344378     0.35504703
    5 H                    1.0000    -1.30382409    -1.87935507     0.19984049
    6 H                    1.0000    -0.39571108    -1.01251106     1.41159561
    7 C                    6.0000    -0.88268757     0.11651301    -0.30076814
    8 H                    1.0000    -0.95800447    -0.01134243    -1.36581503
    9 H                    1.0000    -1.83580399     0.44565630     0.06559018
   10 S                   16.0000     0.27249843     1.44374046     0.05460255
   11 H                    1.0000     1.32736349     0.65095798    -0.11635818
 
      Atomic Mass 
      ----------- 
 
      N                 14.003070
      H                  1.007825
      C                 12.000000
      S                 31.972070
 

 Effective nuclear repulsion energy (a.u.)     172.1678299075

            Nuclear Dipole moment (a.u.) 
            ----------------------------
        X                 Y               Z
 ---------------- ---------------- ----------------
    -0.0598314874    -1.3631039382    -0.3935453154
 
                                 NWChem DFT Module
                                 -----------------
 
 
                                   hexamers dft
 
 
  Caching 1-el integrals 
 
            General Information
            -------------------
          SCF calculation type: DFT
          Wavefunction type:  closed shell.
          No. of atoms     :    11
          No. of electrons :    42
           Alpha electrons :    21
            Beta electrons :    21
          Charge           :     0
          Spin multiplicity:     1
          Use of symmetry is: off; symmetry adaption is: off
          Maximum number of iterations:  99
          AO basis - number of functions:   222
                     number of shells:    84
          Convergence on energy requested: 1.00D-06
          Convergence on density requested: 1.00D-06
          Convergence on gradient requested: 1.00D-06
 
              XC Information
              --------------
                        SSB-D Method XC Functional
                        Slater Exchange Functional  1.080 local    
                         SSB-1 Exchange Functional  1.000 non-local
                           KT1 gradient correction  0.359 non-local
            Perdew 1991 LDA Correlation Functional  1.000 local    
              simplified PBE Correlation Potential  1.000 non-local
 
             Grid Information
             ----------------
          Grid used for XC integration:  fine      
          Radial quadrature: Mura-Knowles        
          Angular quadrature: Lebedev. 
          Tag              B.-S. Rad. Rad. Pts. Rad. Cut. Ang. Pts.
          ---              ---------- --------- --------- ---------
          N                   0.65       70          10.0       590
          H                   0.35       60          11.0       590
          C                   0.70       70          10.0       590
          S                   1.00      123          11.0       770
          Grid pruning is: on 
          Number of quadrature shells:   753
          Spatial weights used:  Erf1
 
          Convergence Information
          -----------------------
          Convergence aids based upon iterative change in 
          total energy or number of iterations. 
          Levelshifting, if invoked, occurs when the 
          HOMO/LUMO gap drops below (HL_TOL): 1.00D-02
          DIIS, if invoked, will attempt to extrapolate 
          using up to (NFOCK): 10 stored Fock matrices.

                    Damping(90%)  Levelshifting(0.0)       DIIS
                  --------------- ------------------- ---------------
          dE  on:    start             N/A                start   
          dE off:    2 iters           N/A               99 iters 

 
      Screening Tolerance Information
      -------------------------------
          Density screening/tol_rho: 1.00D-10
          AO Gaussian exp screening on grid/accAOfunc:  14
          CD Gaussian exp screening on grid/accCDfunc:  20
          XC Gaussian exp screening on grid/accXCfunc:  20
          Schwarz screening/accCoul: 1.00D-08


 Loading old vectors from job with title :

hexamers dft

   Time after variat. SCF:    151.4
   Time prior to 1st pass:    151.4

 Integral file          = /sgetmp/9992.1.llarga3d-p8/example.aoints.0
 Record size in doubles =  65536        No. of integs per rec  =  65534
 Max. records in memory =    152        Max. records in file   =    761
 No. of bits per label  =      8        No. of bits per value  =     32


 #quartets = 5.956D+06 #integrals = 2.644D+08 #direct =  0.0% #cached =100.0%


File balance: exchanges=    11  moved=    60  time=   0.0


 Grid_pts file          = /sgetmp/9992.1.llarga3d-p8/example.gridpts.0
 Record size in doubles =  12289        No. of grid_pts per rec  =   3070
 Max. records in memory =     27        Max. recs in file   =    265786

 WARNING: error on integrated density =  0.12D-06
 greater than required accuracy of  0.10D-06

           Memory utilization after 1st SCF pass: 
           Heap Space remaining (MW):       19.19            19190161
          Stack Space remaining (MW):       29.49            29489822

   convergence    iter        energy       DeltaE   RMS-Dens  Diis-err    time
 ---------------- ----- ----------------- --------- --------- ---------  ------
 d=90,ls=0.0,diis     1   -536.0786623574 -7.08D+02  7.11D-04  5.12D-02   182.1
 WARNING: error on integrated density =  0.12D-06
 greater than required accuracy of  0.10D-06
 d=90,ls=0.0,diis     2   -536.0790380562 -3.76D-04  7.10D-04  4.06D-02   195.7
 WARNING: error on integrated density =  0.12D-06
 greater than required accuracy of  0.10D-06
 d= 0,ls=0.0,diis     3   -536.0792111622 -1.73D-04  5.44D-04  3.37D-02   209.1
 WARNING: error on integrated density =  0.11D-06
 greater than required accuracy of  0.10D-06
 d= 0,ls=0.0,diis     4   -536.0818666447 -2.66D-03  3.16D-05  7.29D-05   222.6
 WARNING: error on integrated density =  0.11D-06
 greater than required accuracy of  0.10D-06
 d= 0,ls=0.0,diis     5   -536.0818754780 -8.83D-06  8.68D-06  8.08D-06   236.5
 WARNING: error on integrated density =  0.11D-06
 greater than required accuracy of  0.10D-06
 d= 0,ls=0.0,diis     6   -536.0818764322 -9.54D-07  2.78D-06  8.25D-07   250.5
 WARNING: error on integrated density =  0.11D-06
 greater than required accuracy of  0.10D-06
 d= 0,ls=0.0,diis     7   -536.0818765200 -8.79D-08  7.98D-07  7.71D-08   264.4


          s6 scale factor =        0.847455000000
              vdW contrib =       -0.006922144015




         Total DFT energy =     -536.088798664055
      One electron energy =    -1073.947471675431
           Coulomb energy =      414.687792450224
    Exchange-Corr. energy =      -48.990027202303
 Nuclear repulsion energy =      172.167829907470

 Numeric. integr. density =       41.999995247153

     Total iterative time =    113.0s


 
                       DFT Final Molecular Orbital Analysis
                       ------------------------------------
 
 Vector    8  Occ=2.000000D+00  E=-5.717223D+00
              MO Center=  2.7D-01,  1.4D+00,  5.5D-02, r^2= 6.8D-02
   Bfn.  Coefficient  Atom+Function         Bfn.  Coefficient  Atom+Function  
  ----- ------------  ---------------      ----- ------------  ---------------
   182      0.938349  10 S  pz              181     -0.251899  10 S  py        
 
 Vector    9  Occ=2.000000D+00  E=-8.638601D-01
              MO Center=  3.8D-01, -1.6D+00, -5.9D-02, r^2= 1.1D+00
   Bfn.  Coefficient  Atom+Function         Bfn.  Coefficient  Atom+Function  
  ----- ------------  ---------------      ----- ------------  ---------------
     2      0.399543   1 N  s                60      0.221250   4 C  s         
 
 Vector   10  Occ=2.000000D+00  E=-7.377770D-01
              MO Center= -3.1D-01,  7.9D-02, -1.2D-01, r^2= 2.2D+00
   Bfn.  Coefficient  Atom+Function         Bfn.  Coefficient  Atom+Function  
  ----- ------------  ---------------      ----- ------------  ---------------
   118     -0.317523   7 C  s               177     -0.305348  10 S  s         
     2      0.160998   1 N  s         
 
 Vector   11  Occ=2.000000D+00  E=-6.371237D-01
              MO Center= -2.2D-02, -7.9D-02,  9.2D-02, r^2= 3.1D+00
   Bfn.  Coefficient  Atom+Function         Bfn.  Coefficient  Atom+Function  
  ----- ------------  ---------------      ----- ------------  ---------------
   177     -0.405632  10 S  s                60      0.276307   4 C  s         
   179     -0.196345  10 S  s         
 
 Vector   12  Occ=2.000000D+00  E=-5.567953D-01
              MO Center= -3.5D-01, -2.7D-01, -7.8D-02, r^2= 3.0D+00
   Bfn.  Coefficient  Atom+Function         Bfn.  Coefficient  Atom+Function  
  ----- ------------  ---------------      ----- ------------  ---------------
   118     -0.260250   7 C  s               177      0.226794  10 S  s         
    60      0.209407   4 C  s         
 
 Vector   13  Occ=2.000000D+00  E=-4.796062D-01
              MO Center=  2.8D-01, -1.3D+00,  3.8D-03, r^2= 2.3D+00
   Bfn.  Coefficient  Atom+Function         Bfn.  Coefficient  Atom+Function  
  ----- ------------  ---------------      ----- ------------  ---------------
    10      0.203383   1 N  pz               32      0.172931   2 H  s         
     7      0.167367   1 N  pz               68      0.155586   4 C  pz        
 
 Vector   14  Occ=2.000000D+00  E=-4.408288D-01
              MO Center= -2.6D-01, -1.1D+00,  2.9D-02, r^2= 2.3D+00
   Bfn.  Coefficient  Atom+Function         Bfn.  Coefficient  Atom+Function  
  ----- ------------  ---------------      ----- ------------  ---------------
    66      0.230805   4 C  px               63      0.175030   4 C  px        
     9      0.150565   1 N  py        
 
 Vector   15  Occ=2.000000D+00  E=-4.087004D-01
              MO Center= -4.4D-01, -5.7D-01, -2.2D-01, r^2= 2.6D+00
   Bfn.  Coefficient  Atom+Function         Bfn.  Coefficient  Atom+Function  
  ----- ------------  ---------------      ----- ------------  ---------------
   126     -0.239981   7 C  pz              123     -0.174778   7 C  pz        
    67     -0.173645   4 C  py        
 
 Vector   16  Occ=2.000000D+00  E=-3.825593D-01
              MO Center=  4.2D-02, -1.4D-01, -1.5D-02, r^2= 3.1D+00
   Bfn.  Coefficient  Atom+Function         Bfn.  Coefficient  Atom+Function  
  ----- ------------  ---------------      ----- ------------  ---------------
   183     -0.249120  10 S  px              125      0.188696   7 C  py        
     8     -0.182577   1 N  px               67     -0.165186   4 C  py        
 
 Vector   17  Occ=2.000000D+00  E=-3.434884D-01
              MO Center= -4.8D-01, -5.3D-02,  8.1D-04, r^2= 2.9D+00
   Bfn.  Coefficient  Atom+Function         Bfn.  Coefficient  Atom+Function  
  ----- ------------  ---------------      ----- ------------  ---------------
   124     -0.222981   7 C  px              183      0.192557  10 S  px        
   121     -0.159806   7 C  px        
 
 Vector   18  Occ=2.000000D+00  E=-3.273183D-01
              MO Center= -3.3D-01, -4.6D-01,  1.4D-01, r^2= 2.9D+00
   Bfn.  Coefficient  Atom+Function         Bfn.  Coefficient  Atom+Function  
  ----- ------------  ---------------      ----- ------------  ---------------
    68      0.218332   4 C  pz              183      0.175945  10 S  px        
   124     -0.164095   7 C  px               65      0.161360   4 C  pz        
 
 Vector   19  Occ=2.000000D+00  E=-2.894190D-01
              MO Center=  4.3D-02,  1.0D+00,  4.8D-02, r^2= 2.8D+00
   Bfn.  Coefficient  Atom+Function         Bfn.  Coefficient  Atom+Function  
  ----- ------------  ---------------      ----- ------------  ---------------
   184     -0.405414  10 S  py              190     -0.230425  10 S  py        
   179     -0.204637  10 S  s               177     -0.203599  10 S  s         
   187     -0.161884  10 S  py              125      0.156203   7 C  py        
 
 Vector   20  Occ=2.000000D+00  E=-2.263713D-01
              MO Center=  5.6D-01, -1.3D+00, -8.6D-02, r^2= 2.1D+00
   Bfn.  Coefficient  Atom+Function         Bfn.  Coefficient  Atom+Function  
  ----- ------------  ---------------      ----- ------------  ---------------
     9     -0.277004   1 N  py               11     -0.255821   1 N  px        
     8     -0.235833   1 N  px                6     -0.209733   1 N  py        
    12     -0.206989   1 N  py                5     -0.181870   1 N  px        
     4     -0.165642   1 N  s                90     -0.158043   5 H  s         
     2     -0.156988   1 N  s         
 
 Vector   21  Occ=2.000000D+00  E=-1.969895D-01
              MO Center=  2.1D-01,  1.2D+00,  1.6D-02, r^2= 2.2D+00
   Bfn.  Coefficient  Atom+Function         Bfn.  Coefficient  Atom+Function  
[...]
    1 Stretch                  1     2                       1.00805    0.00000
    2 Stretch                  1     3                       1.00986    0.00000
    3 Stretch                  1     4                       1.45444    0.00000
    4 Stretch                  4     5                       1.09844    0.00000
    5 Stretch                  4     6                       1.08918    0.00000
    6 Stretch                  4     7                       1.51599    0.00000
    7 Stretch                  7     8                       1.09104    0.00000
    8 Stretch                  7     9                       1.08805    0.00000
    9 Stretch                  7    10                       1.81043    0.00000
   10 Stretch                 10    11                       1.34547    0.00000
   11 Bend                     1     4     5               113.82232    0.00000
   12 Bend                     1     4     6               108.07011    0.00000
   13 Bend                     1     4     7               110.71655    0.00000
   14 Bend                     2     1     3               105.90299    0.00000
   15 Bend                     2     1     4               109.35709    0.00000
   16 Bend                     3     1     4               108.95706    0.00000
   17 Bend                     4     7     8               109.99906    0.00000
   18 Bend                     4     7     9               109.72449    0.00000
   19 Bend                     4     7    10               113.39616    0.00000
   20 Bend                     5     4     6               107.69454    0.00000
   21 Bend                     5     4     7               107.58088    0.00000
   22 Bend                     6     4     7               108.82380    0.00000
   23 Bend                     7    10    11                93.41769    0.00000
   24 Bend                     8     7     9               107.69560    0.00000
   25 Bend                     8     7    10               109.66313    0.00000
   26 Bend                     9     7    10               106.14886    0.00000
   27 Torsion                  1     4     7     8          60.38963    0.00000
   28 Torsion                  1     4     7     9         178.69147    0.00000
   29 Torsion                  1     4     7    10         -62.81479    0.00000
   30 Torsion                  2     1     4     5         -68.06669    0.00000
   31 Torsion                  2     1     4     6          51.50697    0.00000
   32 Torsion                  2     1     4     7         170.60181    0.00000
   33 Torsion                  3     1     4     5          47.25849    0.00000
   34 Torsion                  3     1     4     6         166.83215    0.00000
   35 Torsion                  3     1     4     7         -74.07301    0.00000
   36 Torsion                  4     7    10    11          43.27233    0.00000
   37 Torsion                  5     4     7     8         -64.55701    0.00000
   38 Torsion                  5     4     7     9          53.74482    0.00000
   39 Torsion                  5     4     7    10         172.23856    0.00000
   40 Torsion                  6     4     7     8         179.02843    0.00000
   41 Torsion                  6     4     7     9         -62.66973    0.00000
   42 Torsion                  6     4     7    10          55.82401    0.00000
   43 Torsion                  8     7    10    11         -80.11656    0.00000
   44 Torsion                  9     7    10    11         163.81091    0.00000
 

      ----------------------
      Optimization converged
      ----------------------


  Step       Energy      Delta E   Gmax     Grms     Xrms     Xmax   Walltime
  ---- ---------------- -------- -------- -------- -------- -------- --------
@   15    -536.09264013 -2.8D-08  0.00000  0.00000  0.00002  0.00006   1935.1
                                     ok       ok       ok       ok  



                                Z-matrix (autoz)
                                -------- 

 Units are Angstrom for bonds and degrees for angles
 
      Type          Name      I     J     K     L     M      Value     Gradient
      ----------- --------  ----- ----- ----- ----- ----- ---------- ----------
    1 Stretch                  1     2                       1.00805    0.00000
    2 Stretch                  1     3                       1.00986    0.00000
    3 Stretch                  1     4                       1.45444    0.00000
    4 Stretch                  4     5                       1.09844    0.00000
    5 Stretch                  4     6                       1.08918    0.00000
    6 Stretch                  4     7                       1.51599    0.00000
    7 Stretch                  7     8                       1.09104    0.00000
    8 Stretch                  7     9                       1.08805    0.00000
    9 Stretch                  7    10                       1.81043    0.00000
   10 Stretch                 10    11                       1.34547    0.00000
   11 Bend                     1     4     5               113.82232    0.00000
   12 Bend                     1     4     6               108.07011    0.00000
   13 Bend                     1     4     7               110.71655    0.00000
   14 Bend                     2     1     3               105.90299    0.00000
   15 Bend                     2     1     4               109.35709    0.00000
   16 Bend                     3     1     4               108.95706    0.00000
   17 Bend                     4     7     8               109.99906    0.00000
   18 Bend                     4     7     9               109.72449    0.00000
   19 Bend                     4     7    10               113.39616    0.00000
   20 Bend                     5     4     6               107.69454    0.00000
   21 Bend                     5     4     7               107.58088    0.00000
   22 Bend                     6     4     7               108.82380    0.00000
   23 Bend                     7    10    11                93.41769    0.00000
   24 Bend                     8     7     9               107.69560    0.00000
   25 Bend                     8     7    10               109.66313    0.00000
   26 Bend                     9     7    10               106.14886    0.00000
   27 Torsion                  1     4     7     8          60.38963    0.00000
   28 Torsion                  1     4     7     9         178.69147    0.00000
   29 Torsion                  1     4     7    10         -62.81479    0.00000
   30 Torsion                  2     1     4     5         -68.06669    0.00000
   31 Torsion                  2     1     4     6          51.50697    0.00000
   32 Torsion                  2     1     4     7         170.60181    0.00000
   33 Torsion                  3     1     4     5          47.25849    0.00000
   34 Torsion                  3     1     4     6         166.83215    0.00000
   35 Torsion                  3     1     4     7         -74.07301    0.00000
   36 Torsion                  4     7    10    11          43.27233    0.00000
   37 Torsion                  5     4     7     8         -64.55701    0.00000
   38 Torsion                  5     4     7     9          53.74482    0.00000
   39 Torsion                  5     4     7    10         172.23856    0.00000
   40 Torsion                  6     4     7     8         179.02843    0.00000
   41 Torsion                  6     4     7     9         -62.66973    0.00000
   42 Torsion                  6     4     7    10          55.82401    0.00000
   43 Torsion                  8     7    10    11         -80.11656    0.00000
   44 Torsion                  9     7    10    11         163.81091    0.00000
 
 
 
                         Geometry "geometry" -> "geometry"
                         ---------------------------------
 
 Output coordinates in angstroms (scale by  1.889725989 to convert to a.u.)
 
  No.       Tag          Charge          X              Y              Z
 ---- ---------------- ---------- -------------- -------------- --------------
    1 N                    7.0000     0.77991220    -1.64939631    -0.13378900
    2 H                    1.0000     1.08885437    -2.42895708     0.42567744
    3 H                    1.0000     0.65505265    -2.01161984    -1.06814000
    4 C                    6.0000    -0.50187712    -1.17622054     0.36473251
    5 H                    1.0000    -1.32742445    -1.88365860     0.20796172
    6 H                    1.0000    -0.40701058    -1.01053456     1.43705170
    7 C                    6.0000    -0.88642868     0.13084527    -0.30004452
    8 H                    1.0000    -0.96995329    -0.00959081    -1.37877739
    9 H                    1.0000    -1.85707994     0.45787958     0.06703343
   10 S                   16.0000     0.26606107     1.48223302     0.05092776
   11 H                    1.0000     1.35274568     0.70857151    -0.12476070
 
      Atomic Mass 
      ----------- 
 
      N                 14.003070
      H                  1.007825
      C                 12.000000
      S                 31.972070
 

 Effective nuclear repulsion energy (a.u.)     169.3225092951

            Nuclear Dipole moment (a.u.) 
            ----------------------------
        X                 Y               Z
 ---------------- ---------------- ----------------
    -0.1479425735    -0.5295151296    -0.3165380296
 
 
                Final and change from initial internal coordinates
                --------------------------------------------------
 


                                Z-matrix (autoz)
                                -------- 

 Units are Angstrom for bonds and degrees for angles
 
      Type          Name      I     J     K     L     M      Value       Change
      ----------- --------  ----- ----- ----- ----- ----- ---------- ----------
    1 Stretch                  1     2                       1.00805   -0.01332
    2 Stretch                  1     3                       1.00986   -0.01350
    3 Stretch                  1     4                       1.45444   -0.01758
    4 Stretch                  4     5                       1.09844   -0.00966
    5 Stretch                  4     6                       1.08918   -0.00983
    6 Stretch                  4     7                       1.51599   -0.01118
    7 Stretch                  7     8                       1.09104   -0.00932
    8 Stretch                  7     9                       1.08805   -0.00984
    9 Stretch                  7    10                       1.81043   -0.03438
   10 Stretch                 10    11                       1.34547   -0.01792
   11 Bend                     1     4     5               113.82232    0.43859
   12 Bend                     1     4     6               108.07011    0.17907
   13 Bend                     1     4     7               110.71655   -0.17995
   14 Bend                     2     1     3               105.90299   -0.62013
   15 Bend                     2     1     4               109.35709   -1.09411
   16 Bend                     3     1     4               108.95706   -1.29018
   17 Bend                     4     7     8               109.99906   -0.55221
   18 Bend                     4     7     9               109.72449   -0.29881
   19 Bend                     4     7    10               113.39616    0.38861
   20 Bend                     5     4     6               107.69454    0.13784
   21 Bend                     5     4     7               107.58088   -0.54653
   22 Bend                     6     4     7               108.82380   -0.03065
   23 Bend                     7    10    11                93.41769    0.43009
   24 Bend                     8     7     9               107.69560   -0.03959
   25 Bend                     8     7    10               109.66313    0.42038
   26 Bend                     9     7    10               106.14886    0.08954
   27 Torsion                  1     4     7     8          60.38963    0.42652
   28 Torsion                  1     4     7     9         178.69147   -0.14524
   29 Torsion                  1     4     7    10         -62.81479    0.01369
   30 Torsion                  2     1     4     5         -68.06669    2.82957
   31 Torsion                  2     1     4     6          51.50697    3.39543
   32 Torsion                  2     1     4     7         170.60181    3.36341
   33 Torsion                  3     1     4     5          47.25849    0.69792
   34 Torsion                  3     1     4     6         166.83215    1.26377
   35 Torsion                  3     1     4     7         -74.07301    1.23175
   36 Torsion                  4     7    10    11          43.27233   -0.69440
   37 Torsion                  5     4     7     8         -64.55701    0.37024
   38 Torsion                  5     4     7     9          53.74482   -0.20151
   39 Torsion                  5     4     7    10         172.23856   -0.04258
   40 Torsion                  6     4     7     8         179.02843    0.51962
   41 Torsion                  6     4     7     9         -62.66973   -0.05214
   42 Torsion                  6     4     7    10          55.82401    0.10679
   43 Torsion                  8     7    10    11         -80.11656   -0.56665
   44 Torsion                  9     7    10    11         163.81091   -0.77543
 
 ==============================================================================
                                internuclear distances
 ------------------------------------------------------------------------------
       center one      |      center two      | atomic units |  angstroms
 ------------------------------------------------------------------------------
    2 H                |   1 N                |     1.90494  |     1.00805
    3 H                |   1 N                |     1.90835  |     1.00986
    4 C                |   1 N                |     2.74850  |     1.45444
    5 H                |   4 C                |     2.07575  |     1.09844
    6 H                |   4 C                |     2.05826  |     1.08918
    7 C                |   4 C                |     2.86481  |     1.51599
    8 H                |   7 C                |     2.06176  |     1.09104
    9 H                |   7 C                |     2.05612  |     1.08805
   10 S                |   7 C                |     3.42122  |     1.81043
   11 H                |  10 S                |     2.54258  |     1.34547
 ------------------------------------------------------------------------------
                         number of included internuclear distances:         10
 ==============================================================================



 ==============================================================================
                                 internuclear angles
 ------------------------------------------------------------------------------
        center 1       |       center 2       |       center 3       |  degrees
 ------------------------------------------------------------------------------
    2 H                |   1 N                |   3 H                |   105.90
    2 H                |   1 N                |   4 C                |   109.36
    3 H                |   1 N                |   4 C                |   108.96
    1 N                |   4 C                |   5 H                |   113.82
    1 N                |   4 C                |   6 H                |   108.07
    1 N                |   4 C                |   7 C                |   110.72
    5 H                |   4 C                |   6 H                |   107.69
    5 H                |   4 C                |   7 C                |   107.58
    6 H                |   4 C                |   7 C                |   108.82
    4 C                |   7 C                |   8 H                |   110.00
    4 C                |   7 C                |   9 H                |   109.72
    4 C                |   7 C                |  10 S                |   113.40
    8 H                |   7 C                |   9 H                |   107.70
    8 H                |   7 C                |  10 S                |   109.66
    9 H                |   7 C                |  10 S                |   106.15
    7 C                |  10 S                |  11 H                |    93.42
 ------------------------------------------------------------------------------
                            number of included internuclear angles:         16
 ==============================================================================




 Task  times  cpu:     1852.6s     wall:     1931.8s
 
 
                                NWChem Input Module
                                -------------------
 
 
 Summary of allocated global arrays
-----------------------------------
  No active global arrays



                         GA Statistics for process    0
                         ------------------------------

       create   destroy   get      put      acc     scatter   gather  read&inc
calls: 1584     1584     1.74e+06 9.20e+04 9.95e+04    0        0        0     
number of processes/call 1.02e+00 1.18e+00 1.00e+00 0.00e+00 0.00e+00
bytes total:             1.63e+09 1.90e+08 3.44e+08 0.00e+00 0.00e+00 0.00e+00
bytes remote:            1.00e+09 7.97e+07 2.46e+08 0.00e+00 0.00e+00 0.00e+00
Max memory consumed for GA by this process: 3767680 bytes
 
MA_summarize_allocated_blocks: starting scan ...
MA_summarize_allocated_blocks: scan completed: 0 heap blocks, 0 stack blocks
MA usage statistics:

	allocation statistics:
					      heap	     stack
					      ----	     -----
	current number of blocks	         0	         0
	maximum number of blocks	        23	        49
	current total bytes		         0	         0
	maximum total bytes		  82411232	  64047256
	maximum total K-bytes		     82412	     64048
	maximum total M-bytes		        83	        65



                                  ACKNOWLEDGEMENT
                                  ---------------

            Please use the following acknowledgement where appropriate 
            for results obtained with NWChem:

            High Performance Computational Chemistry Group, "NWChem, A
            Computational Chemistry Package for Parallel Computers, 
            Version 5.1.1" (2008), Pacific Northwest National Laboratory,
            Richland, Washington 99352-0999, USA.


                                     CITATION
                                     --------

          Please use the following citation when publishing results
          obtained with NWChem:

          E. J. Bylaska, W. A. de Jong, N. Govind, K. Kowalski, T. P. Straatsma,
          M. Valiev, D. Wang, E. Apra, T. L. Windus, J. Hammond, J. Autschbach,
          P. Nichols, S. Hirata, M. T. Hackler, Y. Zhao, P.-D. Fan, R. J. Harrison,
          M. Dupuis, D. M. A. Smith, J. Nieplocha, V. Tipparaju, M. Krishnan,
          A. Vazquez-Mayagoitia, Q. Wu, T. Van Voorhis, A. A. Auer, M. Nooijen,
          L. D. Crosby, E. Brown, G. Cisneros, G. I. Fann, H. Fruchtl,
          J. Garza, K. Hirao, R. Kendall, J. A. Nichols, K. Tsemekhman
          K. Wolinski, J. Anchell, D. Bernholdt, P. Borowski, T. Clark,
          D. Clerc, H. Dachsel, M. Deegan, K. Dyall, D. Elwood, E. Glendening
          M. Gutowski, A. Hess, J. Jaffe, B. Johnson, J. Ju, R. Kobayashi,
          R. Kutteh, Z. Lin, R. Littlefield, X. Long, B. Meng, T. Nakajima,
          S. Niu, L. Pollack, M. Rosing, G. Sandrone, M. Stave, H. Taylor,
          G. Thomas, J. van Lenthe, A. Wong, and Z. Zhang,
          "NWChem, A Computational Chemistry Package for Parallel Computers, 
          Version 5.1.1" (2008),
                      Pacific Northwest National Laboratory,
                      Richland, Washington 99352-0999, USA.



 Total times  cpu:     1852.7s     wall:     1947.9s
