 argument  1 = paw.nw
                                         
                                         


              Northwest Computational Chemistry Package (NWChem) 6.0
              ------------------------------------------------------


                    Environmental Molecular Sciences Laboratory
                       Pacific Northwest National Laboratory
                                Richland, WA 99352

                              Copyright (c) 1994-2010
                       Pacific Northwest National Laboratory
                            Battelle Memorial Institute

             NWChem is an open-source computational chemistry package
                        distributed under the terms of the
                      Educational Community License (ECL) 2.0
             A copy of the license is included with this distribution
                              in the LICENSE.TXT file

                                  ACKNOWLEDGMENT
                                  --------------

            This software and its documentation were developed at the
            EMSL at Pacific Northwest National Laboratory, a multiprogram
            national laboratory, operated for the U.S. Department of Energy
            by Battelle under Contract Number DE-AC05-76RL01830. Support
            for this work was provided by the Department of Energy Office
            of Biological and Environmental Research, Office of Basic
            Energy Sciences, and the Office of Advanced Scientific Computing.


           Job information
           ---------------

    hostname      = arcen
    program       = /home/d3y133/nwchem-releases/nwchem-6.0-gfortran/bin/LINUX64/nwchem
    date          = Fri Aug  6 13:58:03 2010

    compiled      = Fri_Aug_06_13:42:42_2010
    source        = /home/d3y133/nwchem-releases/nwchem-6.0-gfortran
    nwchem branch = 6.0
    input         = paw.nw
    prefix        = paw_test.
    data base     = ./paw_test.db
    status        = startup
    nproc         =        4
    time left     =     -1s



           Memory information
           ------------------

    heap     =   13107201 doubles =    100.0 Mbytes
    stack    =   13107201 doubles =    100.0 Mbytes
    global   =   26214400 doubles =    200.0 Mbytes (distinct from heap & stack)
    total    =   52428802 doubles =    400.0 Mbytes
    verify   = yes
    hardfail = no 


           Directory information
           ---------------------

  0 permanent = .
  0 scratch   = .




                                NWChem Input Module
                                -------------------


                                    paw testing
                                    -----------


                             Geometry "geometry" -> ""
                             -------------------------

 Output coordinates in a.u. (scale by  1.000000000 to convert to a.u.)

  No.       Tag          Charge          X              Y              Z
 ---- ---------------- ---------- -------------- -------------- --------------
    1 O                    8.0000     0.00000000     0.00000000     0.01200000
    2 H                    1.0000    -1.49000000     0.00000000    -1.18000000
    3 H                    1.0000     1.49000000     0.00000000    -1.18000000

      Atomic Mass 
      ----------- 

      O                 15.994910
      H                  1.007825


 Effective nuclear repulsion energy (a.u.)       8.7207388933

            Nuclear Dipole moment (a.u.) 
            ----------------------------
        X                 Y               Z
 ---------------- ---------------- ----------------
     0.0000000000     0.0000000000    -2.2640000000


            XYZ format geometry
            -------------------
     3
 geometry
 O                     0.00000000     0.00000000     0.00635013
 H                    -0.78847410     0.00000000    -0.62442915
 H                     0.78847410     0.00000000    -0.62442915

 ==============================================================================
                                internuclear distances
 ------------------------------------------------------------------------------
       center one      |      center two      | atomic units |       a.u.
 ------------------------------------------------------------------------------
    2 H                |   1 O                |     1.90813  |     1.90813
    3 H                |   1 O                |     1.90813  |     1.90813
 ------------------------------------------------------------------------------
                         number of included internuclear distances:          2
 ==============================================================================



 ==============================================================================
                                 internuclear angles
 ------------------------------------------------------------------------------
        center 1       |       center 2       |       center 3       |  degrees
 ------------------------------------------------------------------------------
    2 H                |   1 O                |   3 H                |   102.68
 ------------------------------------------------------------------------------
                            number of included internuclear angles:          1
 ==============================================================================



          ****************************************************
          *                                                  *
          *               NWPW PSPW Calculation              *
          *                                                  *
          *  [ (Grassman/Stiefel manifold implementation) ]  *
          *                                                  *
          *      [ NorthWest Chemistry implementation ]      *
          *                                                  *
          *            version #5.10   06/12/02              *
          *                                                  *
          *    This code was developed by Eric J. Bylaska,   *
          *    and was based upon algorithms and code        *
          *    developed by the group of Prof. John H. Weare *
          *                                                  *
          ****************************************************
     >>>  JOB STARTED       AT Fri Aug  6 13:58:03 2010  <<<
          ================ input data ========================
  library name resolved from: compiled reference
  NWCHEM_NWPW_LIBRARY set to: </home/d3y133/nwchem-releases/nwchem-6.0-gfortran/src/nwpw/libraryps/>
 Generating 1d pseudopotential for O   

 Generated formatted_filename: ./O.vpp
  library name resolved from: compiled reference
  NWCHEM_NWPW_LIBRARY set to: </home/d3y133/nwchem-releases/nwchem-6.0-gfortran/src/nwpw/libraryps/>
 Generating 1d pseudopotential for H   

 Generated formatted_filename: ./H.vpp
  library name resolved from: compiled reference
  NWCHEM_NWPW_LIBRARY set to: </home/d3y133/nwchem-releases/nwchem-6.0-gfortran/src/nwpw/libraryps/>

 Generated formatted atomic orbitals, filename: ./O.aorb
  library name resolved from: compiled reference
  NWCHEM_NWPW_LIBRARY set to: </home/d3y133/nwchem-releases/nwchem-6.0-gfortran/src/nwpw/libraryps/>

 Generated formatted atomic orbitals, filename: ./H.aorb

 lcao guess, initial psi:paw_test.movecs               
 -   spin, nalpha, nbeta:                    1                    4                    0

 input psi filename:./paw_test.movecs

 number of processors used:         4
 processor grid           :   4 x   1
 parallel mapping         :      slab
 parallel mapping         :  balanced

 options:
      boundary conditions  = periodic    (version3)
      electron spin        = restricted
      exchange-correlation = LDA (Vosko et al) parameterization

 elements involved in the cluster:
      1: O     core charge:  6.0000  lmax=  2
             comment    : Parameterized (Chem.Phys.Lett., vol 322, page 447) Hamman psp
             pseudpotential type            :   0
             highest angular component      :   2
             local potential used           :   2
             number of non-local projections:   4
             cutoff =   0.700   0.700   0.700

      2: H     core charge:  1.0000  lmax=  1
             comment    : Parameterized (Chem.Phys.Lett., vol 322, page 447) Hamman psp
             pseudpotential type            :   0
             highest angular component      :   1
             local potential used           :   1
             number of non-local projections:   1
             cutoff =   0.800   0.800


 total charge:   0.000

 atomic composition:
     O   :  1     H   :  2

 number of electrons: spin up=     4 (   4 per task)  down=     4 (   4 per task) (fourier space)
 number of orbitals : spin up=     4 (   4 per task)  down=     4 (   4 per task) (fourier space)

 supercell:
      cell_name:  cell_default                  
      lattice:    a1=<  20.000   0.000   0.000 >
                  a2=<   0.000  20.000   0.000 >
                  a3=<   0.000   0.000  20.000 >
      reciprocal: b1=<   0.314   0.000   0.000 >
                  b2=<   0.000   0.314   0.000 >
                  b3=<   0.000   0.000   0.314 >
      lattice:    a=      20.000 b=     20.000 c=      20.000
                  alpha=  90.000 beta=  90.000 gamma=  90.000
                  omega=      8000.0

      density cutoff= 12.633  fft= 32x 32x 32(     8536 waves     2134 per task)
      wavefnc cutoff= 12.633  fft= 32x 32x 32(     8536 waves     2134 per task)
      ewald summation: cut radius=    1.50  and  1
                        madelung= 1.76011888

 technical parameters:
      time step=     15.80     ficticious mass=  400000.0
      tolerance=.100E-10 (energy)   0.100E-10 (density)
      maximum iterations =    1000 (   10 inner  100 outer )





== Energy Calculation ==


          ============ Grassmann lmbfgs iteration ============
     >>>  ITERATION STARTED AT Fri Aug  6 13:58:05 2010  <<<
    iter.           Energy         DeltaE       DeltaRho 
    ------------------------------------------------------
     -  15 steepest descent iterations performed
      10   -0.1638708099E+02   -0.35986E-03    0.13322E+00
      20   -0.1638759410E+02   -0.98140E-06    0.20744E-04
      30   -0.1638759516E+02   -0.17545E-08    0.20853E-08
      40   -0.1638759516E+02   -0.52438E-11    0.19990E-10
      50   -0.1638759516E+02   -0.36486E-11    0.20967E-13
  *** tolerance ok. iteration terminated
     >>>  ITERATION ENDED   AT Fri Aug  6 13:58:06 2010  <<<


==  Summary Of Results  ==

 number of electrons: spin up=    4.00000  down=    4.00000 (real space)

 total     energy    :  -0.1638759516E+02 (   -0.54625E+01/ion)
 total orbital energy:  -0.4230997523E+01 (   -0.10577E+01/electron)
 hartree   energy    :   0.1546072461E+02 (    0.38652E+01/electron)
 exc-corr  energy    :  -0.3889010939E+01 (   -0.97225E+00/electron)
 ion-ion   energy    :   0.2098581392E+01 (    0.69953E+00/ion)

 kinetic (planewave) :   0.9906855441E+01 (    0.24767E+01/electron)
 V_local (planewave) :  -0.4001514359E+02 (   -0.10004E+02/electron)
 V_nl    (planewave) :   0.5039792526E-01 (    0.12599E-01/electron)
 V_Coul  (planewave) :   0.3092144921E+02 (    0.77304E+01/electron)
 V_xc.   (planewave) :  -0.5094556512E+01 (   -0.12736E+01/electron)
 Virial Coefficient  :  -0.1427077749E+01

 orbital energies:
    -0.2496027E+00 (  -6.792eV)
    -0.3592208E+00 (  -9.775eV)
    -0.4682282E+00 ( -12.741eV)
    -0.1038447E+01 ( -28.258eV)

 Total PSPW energy   :  -0.1638759516E+02


=== Spin Contamination ===

 <Sexact^2> =    0.00000000000000     
 <S^2>      =    0.00000000000000     



== Center of Charge ==

spin up     (    0.0000,    0.0000,   -0.2198 )
spin down   (    0.0000,    0.0000,   -0.2198 )
     total  (    0.0000,    0.0000,   -0.2198 )
ionic       (    0.0000,    0.0000,   -0.2860 )
crystal     (    0.0000,    0.0000,   -0.2115 )


== Crystal Dipole ==

mu   =  (    0.0000,    0.0000,    0.0663 ) au
|mu| =     0.0663 au,       0.1686 Debye


== Molecular Dipole wrt Center of Mass ==

mu   =  (    0.0000,    0.0000,   -0.5295 ) au
|mu| =     0.5295 au,       1.3459 Debye

 output psi filename:./paw_test.movecs


== Timing ==

cputime in seconds
  prologue    :   0.197516E+01
  main loop   :   0.132862E+01
  epilogue    :   0.362110E-02
  total       :   0.330740E+01
  cputime/step:   0.123021E-01       (     108 evalulations,      41 linesearches)


Time spent doing                        total          step
  FFTs                       :   0.103845E+00  0.961528E-03
  dot products               :   0.555997E-01  0.514812E-03
  geodesic                   :   0.288061E+00  0.266723E-02
  ffm_dgemm                  :   0.192615E-01  0.178347E-03
  fmf_dgemm                  :   0.269133E+00  0.249197E-02
  m_diagonalize              :   0.185987E-02  0.172210E-04
    - m_tredq                :   0.000000E+00  0.000000E+00
    - m_getdiags             :   0.000000E+00  0.000000E+00
    - m_tqliq                :   0.000000E+00  0.000000E+00
    - m_eigsrt               :   0.000000E+00  0.000000E+00
  exchange correlation       :   0.323285E+00  0.299338E-02
  local pseudopotentials     :   0.313044E-03  0.289855E-05
  non-local pseudopotentials :   0.102314E+00  0.947356E-03
  hartree potentials         :   0.633740E-02  0.586796E-04
  ion-ion interaction        :   0.916004E-03  0.848152E-05
  structure factors          :   0.528295E-01  0.489162E-03
  phase factors              :   0.240803E-04  0.222966E-06
  masking and packing        :   0.646735E-01  0.598828E-03
  queue fft                  :   0.351420E+00  0.325389E-02
  queue fft (serial)         :   0.237003E+00  0.219447E-02
  queue fft (message passing):   0.100810E+00  0.933424E-03
  HFX potential              :   0.000000E+00  0.000000E+00
  qmmm LJ                    :   0.000000E+00  0.000000E+00
  qmmm residual Q            :   0.000000E+00  0.000000E+00

     >>>  JOB COMPLETED     AT Fri Aug  6 13:58:06 2010  <<<

 Task  times  cpu:        3.3s     wall:        3.3s


                                NWChem Input Module
                                -------------------


          ****************************************************
          *                                                  *
          *               NWPW PAW Calculation               *
          *                                                  *
          *  [ (Grassman/Stiefel manifold implementation) ]  *
          *                                                  *
          *      [ NorthWest Chemistry implementation ]      *
          *                                                  *
          *            version #5.10   06/12/02              *
          *                                                  *
          *      This code was developed by Marat Valiev     *
          *      and Eric J. Bylaska and was based upon      *
          *      algorithms and code developed by the        *
          *      group of Prof. John H. Weare                *
          *                                                  *
          ****************************************************
     >>>  JOB STARTED       AT Fri Aug  6 13:58:06 2010  <<<
          ================ input data ========================
  library name resolved from: compiled reference
  NWCHEM_NWPW_LIBRARY set to: </home/d3y133/nwchem-releases/nwchem-6.0-gfortran/src/nwpw/libraryps/>
 Generating 1d pseudopotential for O   
  library name resolved from: compiled reference
  NWCHEM_NWPW_LIBRARY set to: </home/d3y133/nwchem-releases/nwchem-6.0-gfortran/src/nwpw/libraryps/>
 Generating 1d pseudopotential for H   

  Generated formatted filename:./O.jpp

  Generated formatted filename:./H.jpp

 input psi filename:./paw_test.movecs
Gram-Schmidt performed on up spin  : (old error= 0.128E+00 new error= 0.220E-14)

 number of processors used:  4
 parallel mapping         : slab

 options:
      boundary conditions  = periodic    (version3)
      electron spin        = restricted
      exchange-correlation = Vosko et al parameterization

 elements involved in the cluster:
      1: O     ion charge: 8.0  core charge: 2.0
             loggrid parameter r0        : 0.313E-04
             loggrid parameter rmax      : 0.250E+02
             loggrid parameter npoints   :      2726
             augmentation sphere radius  :     1.785 ( 2197 npoints  550 per task)
             compensation sigma          :     0.147
             total number of projectors  :        13
             n_ps (n) l          eig      #projector
                1 (2) s    -0.871362               1
                2 (2) p    -0.338381               3
                3 (3) d     0.100000               5
                2 (3) s    -0.004483               1
                3 (3) p     0.100000               3
      2: H     ion charge: 1.0  core charge: 0.0
             loggrid parameter r0        : 0.250E-03
             loggrid parameter rmax      : 0.250E+02
             loggrid parameter npoints   :      2309
             augmentation sphere radius  :     0.892 ( 1641 npoints  411 per task)
             compensation sigma          :     0.071
             total number of projectors  :         9
             n_ps (n) l          eig      #projector
                1 (1) s    -0.233471               1
                2 (2) p     2.000000               3
                3 (3) d     2.000000               5

 total charge:   0.000

 atomic composition:
     O   :  1     H   :  2

 number of active electrons: spin up=     4  down=     4 (fourier space)
 number of active orbitals : spin up=     4  down=     4 (fourier space)

 supercell:
      cell_name:  cell_default                  
      lattice:    a1=<  20.000   0.000   0.000 >
                  a2=<   0.000  20.000   0.000 >
                  a3=<   0.000   0.000  20.000 >
      reciprocal: b1=<   0.314   0.000   0.000 >
                  b2=<   0.000   0.314   0.000 >
                  b3=<   0.000   0.000   0.314 >
      lattice:    a=      20.000 b=     20.000 c=      20.000
                  alpha=  90.000 beta=  90.000 gamma=  90.000
                  omega=  8000.0

      density cutoff= 12.633  fft= 32x 32x 32(     8536 waves     2134 per task)
      wavefnc cutoff= 12.633  fft= 32x 32x 32(     8536 waves     2134 per task)
      ewald summation: cut radius=    1.50  and  1

 technical parameters:
      core integration lmax= 0
      time step=     15.80     ficticious mass=  400000.0
      tolerance=.100E-10 (energy)   0.100E-10 (density)





== Energy Calculation ==


          ====== Grassmann conjugate gradient iteration ======
     >>>  ITERATION STARTED AT Fri Aug  6 13:59:13 2010  <<<
    iter.           Energy         DeltaE       DeltaRho 
    ------------------------------------------------------
      10   -0.7579959541E+02   -0.27900E-03    0.50914E-05
      20   -0.7579995842E+02   -0.57463E-05    0.14986E-06
      30   -0.7579997214E+02   -0.24745E-06    0.18896E-08
      40   -0.7579997310E+02   -0.17384E-07    0.22547E-09
      50   -0.7579997319E+02   -0.29511E-08    0.33320E-10
      60   -0.7579997320E+02   -0.34964E-09    0.59417E-11
      70   -0.7579997320E+02   -0.32770E-10    0.36046E-12
      80   -0.7579997320E+02   -0.83560E-11    0.16501E-12
  *** tolerance ok. iteration terminated
     >>>  ITERATION ENDED   AT Fri Aug  6 13:59:31 2010  <<<


==  Summary Of Results  ==

 number of electrons: spin up=    4.00000  down=    4.00000 (real space)
     plane-wave part:             3.79958           3.79958 (real space)
      augmented part:             0.20042           0.20042 (real space)

 total     energy    :  -0.7579997320E+02 (   -0.25267E+02/ion)
 total orbital energy:  -0.3941939151E+01 (   -0.98548E+00/electron)
 hartree   energy    :  -0.1427017841E+03 (   -0.35675E+02/electron)
 exc-corr  energy    :  -0.8682523287E+01 (   -0.21706E+01/electron)

 kinetic (planewave) :   0.9715752936E+01 (    0.24289E+01/electron)
 coulomb (planewave) :  -0.6086832214E+01 (   -0.15217E+01/electron)
 exc-cor (planewave) :  -0.3693263137E+01 (   -0.92332E+00/electron)
 pseudo  (planewave) :   0.8384625808E+01 (    0.20962E+01/electron)

 kinetic (loc. basis):   0.6561065722E+02 (    0.16403E+02/electron)
 coulomb (loc. basis):  -0.2168481899E+03 (   -0.54212E+02/electron)
 exc-cor (loc. basis):  -0.4989260150E+01 (   -0.12473E+01/electron)
 pseudo (loc. basis) :  -0.8126701778E+01 (   -0.20317E+01/electron)

 coulomb (multipole) :   0.8023323799E+02 (    0.26744E+02/ion)

 orbital energies:
    -0.2567224E+00 (  -6.986eV)
    -0.3380551E+00 (  -9.199eV)
    -0.4577130E+00 ( -12.455eV)
    -0.9184791E+00 ( -24.993eV)

 Total PAW energy   :  -0.7579997320E+02

 output psi filename:./paw_test.movecs


== Timing ==

cputime in seconds
  prologue    :   0.674985E+02
  main loop   :   0.178518E+02
  epilogue    :   0.433898E-02
  total       :   0.853546E+02
  cputime/step:   0.438618E-01       (     407 evalulations,      75 linesearches)


Time spent doing                        total          step
  FFTs                       :   0.101738E+01  0.249971E-02
  dot products               :   0.320495E+01  0.787457E-02
  geodesic                   :   0.616543E+01  0.151485E-01
  exchange correlation       :   0.222216E+01  0.545984E-02
  local pseudopotentials     :   0.157833E-03  0.387796E-06
  non-local pseudopotentials :   0.568748E+01  0.139741E-01
  hartree potentials         :   0.816525E-02  0.200621E-04
  structure factors          :   0.523060E+00  0.128516E-02
  masking and packing        :   0.214464E+00  0.526938E-03
  atomic density generation  :   0.166932E+00  0.410152E-03
  atomic xc matrix elements  :   0.103120E+01  0.253366E-02

     >>>  JOB COMPLETED     AT Fri Aug  6 13:59:31 2010  <<<

 Task  times  cpu:       85.2s     wall:       85.4s


                                NWChem Input Module
                                -------------------


 >>>> PAW Parallel Module - Car-Parrinello <<<<
          ****************************************************
          *                                                  *
          *  PAW Car-Parrinello microcluster calculation     *
          *                                                  *
          *     [    extended Lagrangian molecular    ]      *
          *                                                  *
          *     [         dynamics simulation         ]      *
          *     [  Northwest Chemistry implementation ]      *
          *                                                  *
          *            version #1.00   10/01/03              *
          *                                                  *
          *    Authors: Marat Valiev and Eric J. Bylaska     *
          *                                                  *
          *    This code is based upon algorithms and code   *
          *    developed by the group of Prof. John H. Weare *
          *                                                  *
          ****************************************************
     >>>  JOB STARTED       AT Fri Aug  6 13:59:31 2010  <<<
          ================ PAW input data ===================

 input psi filename:./paw_test.movecs
 Generated initial wavefunctions velocities:paw_test.vmovecs              

 input vpsi filename:./paw_test.vmovecs

 number of processors used:  4
 processor grid           :   4 x   1
 parallel mapping         : slab

 options:
      boundary conditions  = periodic    (version3)
      electron spin        = restricted
      exchange-correlation = Vosko et al parameterization

 elements involved in the cluster:
      1: O     ion charge: 8.0  core charge: 2.0
             augmentation sphere radius  : 1.785
             compensation sigma          : 0.147
             total number of projectors  : 13
             n_ps (n) l          eig    #projector
                1 (2) s    -0.871362             1
                2 (2) p    -0.338381             3
                3 (3) d     0.100000             5
                2 (3) s    -0.004483             1
                3 (3) p     0.100000             3
      2: H     ion charge: 1.0  core charge: 0.0
             augmentation sphere radius  : 0.892
             compensation sigma          : 0.071
             total number of projectors  :  9
             n_ps (n) l          eig    #projector
                1 (1) s    -0.233471             1
                2 (2) p     2.000000             3
                3 (3) d     2.000000             5

 total charge:   0.000

 atomic composition:
     O   :  1     H   :  2

 initial position of ions:
        1 O    (    0.00000    0.00000    0.01200 ) - atomic mass=  15.995 
        2 H    (   -1.49000    0.00000   -1.18000 ) - atomic mass=   1.008 
        3 H    (    1.49000    0.00000   -1.18000 ) - atomic mass=   1.008 
        G.C.   (    0.00000    0.00000   -0.78267 )
        C.O.M. (    0.00000    0.00000   -0.12140 )

 initial velocity of ions:
        1 O    (    0.00000    0.00000    0.00000 )
        2 H    (    0.00000    0.00000    0.00000 )
        3 H    (    0.00000    0.00000    0.00000 )
        G.C.   (    0.00000    0.00000    0.00000 )
        C.O.M. (    0.00000    0.00000    0.00000 )

 number of electrons: spin up=  4  spin down=  4 ( fourier space)

 supercell:
      lattice:    a1=<  20.000   0.000   0.000 >
                  a2=<   0.000  20.000   0.000 >
                  a3=<   0.000   0.000  20.000 >
      reciprocal: b1=<   0.314   0.000   0.000 >
                  b2=<   0.000   0.314   0.000 >
                  b3=<   0.000   0.000   0.314 >
      volume :     8000.0
      density cutoff= 12.633  fft= 32x 32x 32(     8536 waves     2134 per task)
      wavefnc cutoff= 12.633  fft= 32x 32x 32(     8536 waves     2134 per task)
      smooth compensation (ewald) summation: cut radius=    1.50  and  1

 technical parameters:
      core integration lmax= 0
      time step=      5.00     ficticious mass=    1100.0
      cooling/heatting rates:  0.10000E+01 (psi)   0.10000E+01 (ion)
      initial kinetic energy:  0.00000E+00 (psi)   0.00000E+00 (ion)
                                                   0.00000E+00 (c.o.m.)
      after scaling:           0.00000E+00 (psi)   0.00000E+00 (ion)
      increased energy:        0.00000E+00 (psi)   0.00000E+00 (ion)

 Constant Energy Simulation                     



          ============ Car-Parrinello iteration ==============
     >>>  ITERATION STARTED AT Fri Aug  6 13:59:32 2010  <<<
    iter.         KE+Energy             Energy        KE_psi        KE_ion   Temperature
    ------------------------------------------------------------------------------------
      10  -0.7579997320E+02  -0.7579997333E+02   0.14429E-07   0.10890E-06          0.01
      20  -0.7579997320E+02  -0.7579997349E+02   0.93493E-07   0.19103E-06          0.02
      30  -0.7579997320E+02  -0.7579997349E+02   0.12155E-06   0.16785E-06          0.03
      40  -0.7579997320E+02  -0.7579997337E+02   0.82690E-07   0.80515E-07          0.03
      50  -0.7579997320E+02  -0.7579997330E+02   0.41505E-07   0.51238E-07          0.02
      60  -0.7579997320E+02  -0.7579997339E+02   0.66864E-07   0.11552E-06          0.02
      70  -0.7579997320E+02  -0.7579997351E+02   0.12930E-06   0.18155E-06          0.02
      80  -0.7579997320E+02  -0.7579997350E+02   0.13869E-06   0.15737E-06          0.03
      90  -0.7579997320E+02  -0.7579997334E+02   0.75171E-07   0.62390E-07          0.03
     100  -0.7579997320E+02  -0.7579997323E+02   0.19471E-07   0.82262E-08          0.02
 *** arived at the Maximum iiteration.   terminated.
     >>>  ITERATION ENDED   AT Fri Aug  6 13:59:41 2010  <<<



          =============  summary of results  =================

 final position of ions:
        1 O    (    0.00000    0.00000    0.01242 ) - atomic mass=  15.995 
        2 H    (   -1.49042    0.00000   -1.17858 ) - atomic mass=   1.008 
        3 H    (    1.49042    0.00000   -1.17858 ) - atomic mass=   1.008 
        G.C.   (    0.00000    0.00000   -0.78158 )
        C.O.M. (    0.00000    0.00000   -0.12087 )

 final velocity of ions:
        1 O    (    0.00000    0.00000    0.00000 )
        2 H    (    0.00000    0.00000    0.00000 )
        3 H    (    0.00000    0.00000    0.00000 )
        G.C.   (    0.00000    0.00000    0.00000 )
        C.O.M. (    0.00000    0.00000    0.00000 )

 total charge of system:    0.00000 (real space)


 total     energy    :  -0.7579997323E+02 (   -0.25267E+02/ion)
 total orbital energy:  -0.3942283881E+01 (   -0.98557E+00/electron)
 hartree   energy    :  -0.2229351319E+03 (   -0.55734E+02/electron)
 exc-corr  energy    :  -0.8682627170E+01 (   -0.21707E+01/electron)
 ion-ion   energy    :   0.0000000000E+00 (    0.00000E+00/ion)

 Kinetic energy (elc)    :   0.1947059936E-07 (    0.48676E-08/elc)
 Kinetic energy (ion)    :   0.8226244079E-08 (    0.27421E-08/ion)

 final kinetic energy:   0.19471E-07 (psi)   0.82262E-08 (ion)
                                             0.15932E-08 (c.o.m.)
 Temperature :           0.0 K (elc)
 Temperature :           0.0 K (ion)
             :           0.0 K (c.o.m.)

 Eaverage           :      -0.7579997339E+02
 Evariance          :       0.9094947018E-12
 Cv - f*kb/(2*nion) :       0.1752393046E-03

 orbital energies:
    -0.2567488E+00 (  -6.987eV)
    -0.3379778E+00 (  -9.197eV)
    -0.4578853E+00 ( -12.460eV)
    -0.9185301E+00 ( -24.995eV)

 Total PAW energy   :  -0.7579997323E+02

 output psi filename:./paw_test.movecs

 output vpsi filename:./paw_test.vmovecs

 ===== Calculating pair distribution function ====


 frames used:                     10
 natoms:                           3
 delr:           1.000000000000000E-002
 volume:          8000.00000000000     
 maxbin:                         999
 MOTION filename:     ./paw_test.ion_motion                                                                                                                                                                                                                                          
 g(r)   filename:     ./PAIR_DISTRIBUTION                                                                                                                                                                                                                                            


 ===== Calculating radial distribution functions ====


 frames used:                    10
 natoms:                          3
 nkatoms:                         2
 atoms:       O  H                                                                                                                                                                                                                                                           
 delr:          1.000000000000000E-002
 volume:         8000.00000000000     
    a1:        20.000   0.000   0.000
    a2:         0.000  20.000   0.000
    a3:         0.000   0.000  20.000
 maxbin:                        999
 MOTION filename:    ./paw_test.ion_motion 

 creating gr filename:./OO.gr 
 creating hist filename:./OO.hist 

 creating gr filename:./OH.gr 
 creating hist filename:./OH.hist 

 creating gr filename:./HO.gr 
 creating hist filename:./HO.hist 

 creating gr filename:./HH.gr 
 creating hist filename:./HH.hist 


 ===== Calculating velocity auto correlation ====


 frames used:                    10
 natoms:                          3
 volume:         8000.00000000000     
 time interval (au)       :    50.0000000000000     
 Max time      (au)       :    450.000000000000     
 frequency interval (cm-1):    2759.76477774143     
 Max frequency (cm-1)     :    13798.8238887072     
 MOTION filename: ./paw_test.ion_motion                                                                                                                                                                                                                                          
 <v*v>  filename: ./VEL_CORRELATION                                                                                                                                                                                                                                              
 s(k)   filename: ./POWER_SPECTRUM                                                                                                                                                                                                                                               


 -----------------
 cputime in seconds
 prologue    :   0.555855035781860     
 main loop   :    8.68223595619202     
 epilogue    :   7.020521163940430E-002
 total       :    9.30829620361328     
 cputime/step:   8.682235956192016E-002

 -------------------------------
 Time spent doing:
   FFTs                       :   0.418171072791026     
   dot products               :    4.84123555934428     
   orthonormalization         :   0.842499698971068     
   exchange correlation       :   0.555724413400625     
   local pseudopotentials     :   4.924297332763672E-002
   non-local pseudopotentials :    1.01002959562035     
   hartree potentials         :   1.919907817224953E-003
   structure factors          :   7.870002795435482E-002
   masking and packing        :   0.116310188300005     
   total energy evaluation    :   1.764225659776741E-002
   density                    :    0.00000000000000     
   allocate and deallocate    :   8.546536804857396E-003
   Hpsi and update            :   0.398548358639260     

     >>>  JOB COMPLETED     AT Fri Aug  6 13:59:41 2010  <<<

 Task  times  cpu:        8.9s     wall:        9.3s


                                NWChem Input Module
                                -------------------




                         Geometry "geometry" -> "        "
                         ---------------------------------

 Output coordinates in a.u. (scale by  1.000000000 to convert to a.u.)

  No.       Tag          Charge          X              Y              Z
 ---- ---------------- ---------- -------------- -------------- --------------
    1 O                    8.0000     0.00000000     0.00000000     0.01358000
    2 H                    1.0000    -1.49318000     0.00000000    -1.17104000
    3 H                    1.0000     1.49318000     0.00000000    -1.17104000

      Atomic Mass 
      ----------- 

      O                 15.994910
      H                  1.007825


 Effective nuclear repulsion energy (a.u.)       8.7293126407

            Nuclear Dipole moment (a.u.) 
            ----------------------------
        X                 Y               Z
 ---------------- ---------------- ----------------
     0.0000000000     0.0000000000    -2.2334400000


            XYZ format geometry
            -------------------
     3
 geometry
 O                     0.00000000     0.00000000     0.00718623
 H                    -0.79015688     0.00000000    -0.61968773
 H                     0.79015688     0.00000000    -0.61968773

 ==============================================================================
                                internuclear distances
 ------------------------------------------------------------------------------
       center one      |      center two      | atomic units |       a.u.
 ------------------------------------------------------------------------------
    2 H                |   1 O                |     1.90602  |     1.90602
    3 H                |   1 O                |     1.90602  |     1.90602
 ------------------------------------------------------------------------------
                         number of included internuclear distances:          2
 ==============================================================================



 ==============================================================================
                                 internuclear angles
 ------------------------------------------------------------------------------
        center 1       |       center 2       |       center 3       |  degrees
 ------------------------------------------------------------------------------
    2 H                |   1 O                |   3 H                |   103.15
 ------------------------------------------------------------------------------
                            number of included internuclear angles:          1
 ==============================================================================



          ****************************************************
          *                                                  *
          *               NWPW PAW Calculation               *
          *                                                  *
          *  [ (Grassman/Stiefel manifold implementation) ]  *
          *                                                  *
          *      [ NorthWest Chemistry implementation ]      *
          *                                                  *
          *            version #5.10   06/12/02              *
          *                                                  *
          *      This code was developed by Marat Valiev     *
          *      and Eric J. Bylaska and was based upon      *
          *      algorithms and code developed by the        *
          *      group of Prof. John H. Weare                *
          *                                                  *
          ****************************************************
     >>>  JOB STARTED       AT Fri Aug  6 13:59:41 2010  <<<
          ================ input data ========================

 input psi filename:./paw_test.movecs
Gram-Schmidt performed on up spin  : (old error= 0.422E-03 new error= 0.193E-14)

 number of processors used:  4
 parallel mapping         : slab

 options:
      boundary conditions  = periodic    (version3)
      electron spin        = restricted
      exchange-correlation = Vosko et al parameterization

 elements involved in the cluster:
      1: O     ion charge: 8.0  core charge: 2.0
             loggrid parameter r0        : 0.313E-04
             loggrid parameter rmax      : 0.250E+02
             loggrid parameter npoints   :      2726
             augmentation sphere radius  :     1.785 ( 2197 npoints  550 per task)
             compensation sigma          :     0.147
             total number of projectors  :        13
             n_ps (n) l          eig      #projector
                1 (2) s    -0.871362               1
                2 (2) p    -0.338381               3
                3 (3) d     0.100000               5
                2 (3) s    -0.004483               1
                3 (3) p     0.100000               3
      2: H     ion charge: 1.0  core charge: 0.0
             loggrid parameter r0        : 0.250E-03
             loggrid parameter rmax      : 0.250E+02
             loggrid parameter npoints   :      2309
             augmentation sphere radius  :     0.892 ( 1641 npoints  411 per task)
             compensation sigma          :     0.071
             total number of projectors  :         9
             n_ps (n) l          eig      #projector
                1 (1) s    -0.233471               1
                2 (2) p     2.000000               3
                3 (3) d     2.000000               5

 total charge:   0.000

 atomic composition:
     O   :  1     H   :  2

 number of active electrons: spin up=     4  down=     4 (fourier space)
 number of active orbitals : spin up=     4  down=     4 (fourier space)

 supercell:
      cell_name:  cell_default                  
      lattice:    a1=<  20.000   0.000   0.000 >
                  a2=<   0.000  20.000   0.000 >
                  a3=<   0.000   0.000  20.000 >
      reciprocal: b1=<   0.314   0.000   0.000 >
                  b2=<   0.000   0.314   0.000 >
                  b3=<   0.000   0.000   0.314 >
      lattice:    a=      20.000 b=     20.000 c=      20.000
                  alpha=  90.000 beta=  90.000 gamma=  90.000
                  omega=  8000.0

      density cutoff= 12.633  fft= 32x 32x 32(     8536 waves     2134 per task)
      wavefnc cutoff= 12.633  fft= 32x 32x 32(     8536 waves     2134 per task)
      ewald summation: cut radius=    1.50  and  1

 technical parameters:
      core integration lmax= 0
      time step=     15.80     ficticious mass=  400000.0
      tolerance=.100E-10 (energy)   0.100E-10 (density)





== Energy Calculation ==


          ====== Grassmann conjugate gradient iteration ======
     >>>  ITERATION STARTED AT Fri Aug  6 13:59:41 2010  <<<
    iter.           Energy         DeltaE       DeltaRho 
    ------------------------------------------------------
      10   -0.7579996646E+02   -0.85834E-07    0.21728E-08
      20   -0.7579996703E+02   -0.65412E-08    0.13903E-09
      30   -0.7579996706E+02   -0.11534E-08    0.20459E-10
      40   -0.7579996706E+02   -0.47550E-10    0.11008E-11
      50   -0.7579996706E+02   -0.74465E-11    0.87100E-13
  *** tolerance ok. iteration terminated
     >>>  ITERATION ENDED   AT Fri Aug  6 13:59:52 2010  <<<


==  Summary Of Results  ==

 number of electrons: spin up=    4.00000  down=    4.00000 (real space)
     plane-wave part:             3.79950           3.79950 (real space)
      augmented part:             0.20050           0.20050 (real space)

 total     energy    :  -0.7579996706E+02 (   -0.25267E+02/ion)
 total orbital energy:  -0.3942670174E+01 (   -0.98567E+00/electron)
 hartree   energy    :  -0.1427034881E+03 (   -0.35676E+02/electron)
 exc-corr  energy    :  -0.8683460440E+01 (   -0.21709E+01/electron)

 kinetic (planewave) :   0.9719550859E+01 (    0.24299E+01/electron)
 coulomb (planewave) :  -0.6088339613E+01 (   -0.15221E+01/electron)
 exc-cor (planewave) :  -0.3693994100E+01 (   -0.92350E+00/electron)
 pseudo  (planewave) :   0.8385984029E+01 (    0.20965E+01/electron)

 kinetic (loc. basis):   0.6560955425E+02 (    0.16402E+02/electron)
 coulomb (loc. basis):  -0.2168451426E+03 (   -0.54211E+02/electron)
 exc-cor (loc. basis):  -0.4989466341E+01 (   -0.12474E+01/electron)
 pseudo (loc. basis) :  -0.8128107638E+01 (   -0.20320E+01/electron)

 coulomb (multipole) :   0.8022999404E+02 (    0.26743E+02/ion)

 orbital energies:
    -0.2567117E+00 (  -6.986eV)
    -0.3372520E+00 (  -9.177eV)
    -0.4587910E+00 ( -12.484eV)
    -0.9185804E+00 ( -24.996eV)

 Total PAW energy   :  -0.7579996706E+02

 output psi filename:./paw_test.movecs


== Timing ==

cputime in seconds
  prologue    :   0.477293E+00
  main loop   :   0.103963E+02
  epilogue    :   0.431108E-02
  total       :   0.108779E+02
  cputime/step:   0.442397E-01       (     235 evalulations,      49 linesearches)


Time spent doing                        total          step
  FFTs                       :   0.592267E+00  0.252028E-02
  dot products               :   0.189553E+01  0.806609E-02
  geodesic                   :   0.361090E+01  0.153656E-01
  exchange correlation       :   0.128705E+01  0.547679E-02
  local pseudopotentials     :   0.158072E-03  0.672645E-06
  non-local pseudopotentials :   0.336202E+01  0.143064E-01
  hartree potentials         :   0.470404E-02  0.200172E-04
  structure factors          :   0.306383E+00  0.130376E-02
  masking and packing        :   0.123829E+00  0.526931E-03
  atomic density generation  :   0.966711E-01  0.411366E-03
  atomic xc matrix elements  :   0.597720E+00  0.254349E-02

     >>>  JOB COMPLETED     AT Fri Aug  6 13:59:52 2010  <<<

 Task  times  cpu:       10.8s     wall:       10.9s


                                NWChem Input Module
                                -------------------


 >>>> PAW Parallel Module - steepest_descent <<<<
          ****************************************************
          *                                                  *
          *        NWPW PAW microcluster calculation         *
          *                                                  *
          *     [    steepest descent minimization   ]       *
          *                                                  *
          *     [ NorthWest Chemistry implementation ]       *
          *                                                  *
          *            version #1.00   08/01/02              *
          *                                                  *
          *    Authors: Marat Valiev and Eric J. Bylaska     *
          *                                                  *
          *    This code is based upon algorithms and code   *
          *    developed by the group of Prof. John H. Weare *
          *                                                  *
          ****************************************************
     >>>  JOB STARTED       AT Fri Aug  6 13:59:52 2010  <<<
          ================ PAW input data ===================

 input psi filename:./paw_test.movecs

 number of processors used:  4
 processor grid           :   4 x   1
 parallel mapping         : slab

 options:
      ionic motion         = yes
      boundary conditions  = periodic    (version3)
      electron spin        = restricted
      exchange-correlation = Vosko et al parameterization

 elements involved in the cluster:
      1: O     ion charge: 8.0  core charge: 2.0
             augmentation sphere radius  : 1.785
             compensation sigma          : 0.147
             total number of projectors  : 13
             n_ps (n) l          eig    #projector
                1 (2) s    -0.871362             1
                2 (2) p    -0.338381             3
                3 (3) d     0.100000             5
                2 (3) s    -0.004483             1
                3 (3) p     0.100000             3
      2: H     ion charge: 1.0  core charge: 0.0
             augmentation sphere radius  : 0.892
             compensation sigma          : 0.071
             total number of projectors  :  9
             n_ps (n) l          eig    #projector
                1 (1) s    -0.233471             1
                2 (2) p     2.000000             3
                3 (3) d     2.000000             5

 total charge:   0.000

 atomic composition:
     O   :  1     H   :  2

 initial position of ions:
        1 O    (    0.00000    0.00000    0.01358 ) - atomic mass=  15.995 
        2 H    (   -1.49318    0.00000   -1.17104 ) - atomic mass=   1.008 
        3 H    (    1.49318    0.00000   -1.17104 ) - atomic mass=   1.008 
        G.C.   (    0.00000    0.00000   -0.77617 )
        C.O.M. (    0.00000    0.00000   -0.11900 )

 number of electrons: spin up=  4  spin down=  4 ( fourier space)

 supercell:
      cell_name:  cell_default                  
      lattice:    a1=<  20.000   0.000   0.000 >
                  a2=<   0.000  20.000   0.000 >
                  a3=<   0.000   0.000  20.000 >
      reciprocal: b1=<   0.314   0.000   0.000 >
                  b2=<   0.000   0.314   0.000 >
                  b3=<   0.000   0.000   0.314 >
      lattice:    a=      20.000 b=     20.000 c=      20.000
                  alpha=  90.000 beta=  90.000 gamma=  90.000
                  omega=  8000.0

      density cutoff= 12.633  fft= 32x 32x 32(     8536 waves     2134 per task)
      wavefnc cutoff= 12.633  fft= 32x 32x 32(     8536 waves     2134 per task)
      smooth compensation (ewald) summation: cut radius=    1.50  and  1

 technical parameters:
      core integration lmax= 0
      time step=      5.80     ficticious mass=  400000.0
      tolerance=.100E-06 (energy)   0.100E-06 (electron)   0.100E-03 (ion)



          ================ iteration =========================
     >>>  ITERATION STARTED AT Fri Aug  6 13:59:52 2010  <<<
    iter.           Energy         DeltaE       DeltaRho 
    ------------------------------------------------------
      10   -0.7579996759E+02   -0.13069E+01    0.11886E-08    0.24620E-03
      20   -0.7579996782E+02   -0.38457E-08    0.15319E-08    0.14297E-03
      30   -0.7579996799E+02   -0.30876E-08    0.15073E-08    0.11284E-03
      40   -0.7579996816E+02   -0.27953E-08    0.14357E-08    0.10036E-03
      50   -0.7579996831E+02   -0.26110E-08    0.13683E-08    0.93291E-04
  *** tolerance ok.     iteration terminated.
     >>>  ITERATION ENDED   AT Fri Aug  6 13:59:56 2010  <<<



          =============  summary of results  =================
 final position of ions:
        1 O    (    0.00000    0.00000    0.01347 ) - atomic mass=  15.995 
        2 H    (   -1.49279    0.00000   -1.17218 ) - atomic mass=   1.008 
        3 H    (    1.49279    0.00000   -1.17218 ) - atomic mass=   1.008 
        G.C.   (    0.00000    0.00000   -0.77697 )
        C.O.M. (    0.00000    0.00000   -0.11922 )

 total charge of system:    0.00000 (pw=    7.59903 cmp=   -7.59903)  (real space)

 total     energy    :  -0.7579996831E+02 (   -0.25267E+02/ion)
 total orbital energy:  -0.3942045419E+01 (   -0.98551E+00/electron)
 hartree   energy    :  -0.1427030676E+03 (   -0.35676E+02/electron)
 exc-corr  energy    :  -0.8683376097E+01 (   -0.21708E+01/electron)

 kinetic (planewave) :   0.9719311710E+01 (    0.24298E+01/electron)
 coulomb (planewave) :  -0.6088093248E+01 (   -0.15220E+01/electron)
 exc-cor (planewave) :  -0.3693954701E+01 (   -0.92349E+00/electron)
 pseudo  (planewave) :   0.8385764800E+01 (    0.20964E+01/electron)

 kinetic (loc. basis):   0.6560927804E+02 (    0.16402E+02/electron)
 coulomb (loc. basis):  -0.2168456709E+03 (   -0.54211E+02/electron)
 exc-cor (loc. basis):  -0.4989421396E+01 (   -0.12474E+01/electron)
 pseudo (loc. basis) :  -0.8127879138E+01 (   -0.20320E+01/electron)

 coulomb (multipole) :   0.8023069657E+02 (    0.26744E+02/ion)

 orbital energies:
    -0.2566451E+00 (  -6.984eV)
    -0.3372759E+00 (  -9.178eV)
    -0.4585877E+00 ( -12.479eV)
    -0.9185140E+00 ( -24.994eV)

 Total PAW energy   :  -0.7579996831E+02

 output psi filename:./paw_test.movecs

 -----------------
 cputime in seconds
 prologue    :   0.453180074691772     
 main loop   :    4.31964397430420     
 epilogue    :   2.914094924926758E-002
 total       :    4.80196499824524     
 cputime/step:   8.639287948608398E-002

 -------------------------------
 Time spent doing:
   FFTs                       :   0.209384019956488     
   dot products               :    2.38521509681740     
   orthonormalization         :   0.416564450569041     
   exchange correlation       :   0.275421641415363     
   local pseudopotentials     :   2.411890029907227E-002
   non-local projectors       :   0.516130849642295     
   hartree potentials         :   1.135069854953485E-003
   structure factors          :   4.061007866781097E-002
   masking and packing        :   5.761533098697669E-002
   total energy evaluation    :   8.714199066162109E-003
   density                    :    0.00000000000000     
   allocate and deallocate    :   4.050940077405585E-003
   Hpsi and update            :   0.201961002496688     
   multipole calculation      :   0.302590847015381     
   gaunt coefficients         :   0.417977260111300     

     >>>  JOB COMPLETED     AT Fri Aug  6 13:59:56 2010  <<<

 Task  times  cpu:        4.6s     wall:        4.8s
 Summary of allocated global arrays
-----------------------------------
  No active global arrays



                         GA Statistics for process    0
                         ------------------------------

       create   destroy   get      put      acc     scatter   gather  read&inc
calls:    8        8       10        1        0        0        0        0     
number of processes/call 1.60e+00 4.00e+00 0.00e+00 0.00e+00 0.00e+00
bytes total:             9.60e+02 2.88e+02 0.00e+00 0.00e+00 0.00e+00 0.00e+00
bytes remote:            5.76e+02 1.92e+02 0.00e+00 0.00e+00 0.00e+00 0.00e+00
Max memory consumed for GA by this process: 768 bytes
MA_summarize_allocated_blocks: starting scan ...
MA_summarize_allocated_blocks: scan completed: 0 heap blocks, 0 stack blocks
MA usage statistics:

	allocation statistics:
					      heap	     stack
					      ----	     -----
	current number of blocks	         0	         0
	maximum number of blocks	       251	        25
	current total bytes		         0	         0
	maximum total bytes		  10717288	   1145144
	maximum total K-bytes		     10718	      1146
	maximum total M-bytes		        11	         2


                                NWChem Input Module
                                -------------------





                                     CITATION
                                     --------
                Please cite the following reference when publishing
                           results obtained with NWChem:

                 M. Valiev, E.J. Bylaska, N. Govind, K. Kowalski,
              T.P. Straatsma, H.J.J. van Dam, D. Wang, J. Nieplocha,
                        E. Apra, T.L. Windus, W.A. de Jong
                 "NWChem: a comprehensive and scalable open-source
                  solution for large scale molecular simulations"
                      Comput. Phys. Commun. 181, 1477 (2010)
                           doi:10.1016/j.cpc.2010.04.018

                              AUTHORS & CONTRIBUTORS
                              ----------------------
      E. J. Bylaska, W. A. de Jong, N. Govind, K. Kowalski, T. P. Straatsma,
     M. Valiev, H. J. J. Van Dam, D. Wang, E. Apra, T. L. Windus, J. Hammond,
     J. Autschbach, P. Nichols, S. Hirata, M. T. Hackler, Y. Zhao, P.-D. Fan,
      R. J. Harrison, M. Dupuis, D. M. A. Smith, J. Nieplocha, V. Tipparaju,
          M. Krishnan, A. Vazquez-Mayagoitia, L. Jensen, M. Swart, Q. Wu,
          T. Van Voorhis, A. A. Auer, M. Nooijen, L. D. Crosby, E. Brown,
             G. Cisneros, G. I. Fann, H. Fruchtl, J. Garza, K. Hirao,
        R. Kendall, J. A. Nichols, K. Tsemekhman, K. Wolinski, J. Anchell,
       D. Bernholdt, P. Borowski, T. Clark, D. Clerc, H. Dachsel, M. Deegan,
        K. Dyall, D. Elwood, E. Glendening, M. Gutowski, A. Hess, J. Jaffe,
        B. Johnson, J. Ju, R. Kobayashi, R. Kutteh, Z. Lin, R. Littlefield,
    X. Long, B. Meng, T. Nakajima, S. Niu, L. Pollack, M. Rosing, G. Sandrone,
       M. Stave, H. Taylor, G. Thomas, J. H. van Lenthe, A. Wong, Z. Zhang.

 Total times  cpu:      112.8s     wall:      113.7s
