 argument  1 = pspw.nw
                                         
                                         


              Northwest Computational Chemistry Package (NWChem) 6.0
              ------------------------------------------------------


                    Environmental Molecular Sciences Laboratory
                       Pacific Northwest National Laboratory
                                Richland, WA 99352

                              Copyright (c) 1994-2010
                       Pacific Northwest National Laboratory
                            Battelle Memorial Institute

             NWChem is an open-source computational chemistry package
                        distributed under the terms of the
                      Educational Community License (ECL) 2.0
             A copy of the license is included with this distribution
                              in the LICENSE.TXT file

                                  ACKNOWLEDGMENT
                                  --------------

            This software and its documentation were developed at the
            EMSL at Pacific Northwest National Laboratory, a multiprogram
            national laboratory, operated for the U.S. Department of Energy
            by Battelle under Contract Number DE-AC05-76RL01830. Support
            for this work was provided by the Department of Energy Office
            of Biological and Environmental Research, Office of Basic
            Energy Sciences, and the Office of Advanced Scientific Computing.


           Job information
           ---------------

    hostname      = arcen
    program       = /home/d3y133/nwchem-releases/nwchem-6.0-gfortran/bin/LINUX64/nwchem
    date          = Tue Aug 10 08:43:19 2010

    compiled      = Tue_Aug_10_08:43:14_2010
    source        = /home/d3y133/nwchem-releases/nwchem-6.0-gfortran
    nwchem branch = 6.0
    input         = pspw.nw
    prefix        = ch3cl.pspw.
    data base     = ./ch3cl.pspw.db
    status        = startup
    nproc         =        4
    time left     =     -1s



           Memory information
           ------------------

    heap     =   13107201 doubles =    100.0 Mbytes
    stack    =   13107201 doubles =    100.0 Mbytes
    global   =   26214400 doubles =    200.0 Mbytes (distinct from heap & stack)
    total    =   52428802 doubles =    400.0 Mbytes
    verify   = yes
    hardfail = no 


           Directory information
           ---------------------

  0 permanent = .
  0 scratch   = .




                                NWChem Input Module
                                -------------------


                                CH3Cl optimization
                                ------------------

 Scaling coordinates for geometry "geometry" by  1.889725989
 (inverse scale =  0.529177249)

 C3  symmetry detected

          ------
          auto-z
          ------
  Looking for out-of-plane bends


                             Geometry "geometry" -> ""
                             -------------------------

 Output coordinates in angstroms (scale by  1.889725989 to convert to a.u.)

  No.       Tag          Charge          X              Y              Z
 ---- ---------------- ---------- -------------- -------------- --------------
    1 C                    6.0000     0.00000000     0.00000000     1.14126965
    2 Cl                  17.0000     0.00000000     0.00000000    -0.66454035
    3 H                    1.0000    -0.58835670     0.85075363     1.48318932
    4 H                    1.0000    -0.44259590    -0.93490866     1.48318932
    5 H                    1.0000     1.03095260     0.08415503     1.48318932

      Atomic Mass 
      ----------- 

      C                 12.000000
      Cl                34.968850
      H                  1.007825


 Effective nuclear repulsion energy (a.u.)      50.8408707965

            Nuclear Dipole moment (a.u.) 
            ----------------------------
        X                 Y               Z
 ---------------- ---------------- ----------------
     0.0000000000     0.0000000000     0.0000000000

      Symmetry information
      --------------------

 Group name             C3        
 Group number              5
 Group order               3
 No. of unique centers     3

      Symmetry unique atoms

     1    2    3



                                Z-matrix (autoz)
                                -------- 

 Units are Angstrom for bonds and degrees for angles

      Type          Name      I     J     K     L     M      Value
      ----------- --------  ----- ----- ----- ----- ----- ----------
    1 Stretch                  1     2                       1.80581
    2 Stretch                  1     3                       1.08943
    3 Stretch                  1     4                       1.08943
    4 Stretch                  1     5                       1.08943
    5 Bend                     2     1     3               108.29154
    6 Bend                     2     1     4               108.29154
    7 Bend                     2     1     5               108.29154
    8 Bend                     3     1     4               110.62470
    9 Bend                     3     1     5               110.62470
   10 Bend                     4     1     5               110.62470


            XYZ format geometry
            -------------------
     5
 geometry
 C                     0.00000000     0.00000000     1.14126965
 Cl                    0.00000000     0.00000000    -0.66454035
 H                    -0.58835670     0.85075363     1.48318932
 H                    -0.44259590    -0.93490866     1.48318932
 H                     1.03095260     0.08415503     1.48318932

 ==============================================================================
                                internuclear distances
 ------------------------------------------------------------------------------
       center one      |      center two      | atomic units |  angstroms
 ------------------------------------------------------------------------------
    2 Cl               |   1 C                |     3.41249  |     1.80581
    3 H                |   1 C                |     2.05872  |     1.08943
    4 H                |   1 C                |     2.05872  |     1.08943
    5 H                |   1 C                |     2.05872  |     1.08943
 ------------------------------------------------------------------------------
                         number of included internuclear distances:          4
 ==============================================================================



 ==============================================================================
                                 internuclear angles
 ------------------------------------------------------------------------------
        center 1       |       center 2       |       center 3       |  degrees
 ------------------------------------------------------------------------------
    2 Cl               |   1 C                |   3 H                |   108.29
    2 Cl               |   1 C                |   4 H                |   108.29
    2 Cl               |   1 C                |   5 H                |   108.29
    3 H                |   1 C                |   4 H                |   110.62
    3 H                |   1 C                |   5 H                |   110.62
    4 H                |   1 C                |   5 H                |   110.62
 ------------------------------------------------------------------------------
                            number of included internuclear angles:          6
 ==============================================================================



          ****************************************************
          *                                                  *
          *               NWPW PSPW Calculation              *
          *                                                  *
          *  [ (Grassman/Stiefel manifold implementation) ]  *
          *                                                  *
          *      [ NorthWest Chemistry implementation ]      *
          *                                                  *
          *            version #5.10   06/12/02              *
          *                                                  *
          *    This code was developed by Eric J. Bylaska,   *
          *    and was based upon algorithms and code        *
          *    developed by the group of Prof. John H. Weare *
          *                                                  *
          ****************************************************
     >>>  JOB STARTED       AT Tue Aug 10 08:43:19 2010  <<<
          ================ input data ========================
  library name resolved from: compiled reference
  NWCHEM_NWPW_LIBRARY set to: </home/d3y133/nwchem-releases/nwchem-6.0-gfortran/src/nwpw/libraryps/>
 Generating 1d pseudopotential for C   

 Generated formatted_filename: ./C.vpp
  library name resolved from: compiled reference
  NWCHEM_NWPW_LIBRARY set to: </home/d3y133/nwchem-releases/nwchem-6.0-gfortran/src/nwpw/libraryps/>
 Generating 1d pseudopotential for Cl  

 Generated formatted_filename: ./Cl.vpp
  library name resolved from: compiled reference
  NWCHEM_NWPW_LIBRARY set to: </home/d3y133/nwchem-releases/nwchem-6.0-gfortran/src/nwpw/libraryps/>
 Generating 1d pseudopotential for H   

 Generated formatted_filename: ./H.vpp
  library name resolved from: compiled reference
  NWCHEM_NWPW_LIBRARY set to: </home/d3y133/nwchem-releases/nwchem-6.0-gfortran/src/nwpw/libraryps/>

 Generated formatted atomic orbitals, filename: ./C.aorb
  library name resolved from: compiled reference
  NWCHEM_NWPW_LIBRARY set to: </home/d3y133/nwchem-releases/nwchem-6.0-gfortran/src/nwpw/libraryps/>

 Generated formatted atomic orbitals, filename: ./Cl.aorb
  library name resolved from: compiled reference
  NWCHEM_NWPW_LIBRARY set to: </home/d3y133/nwchem-releases/nwchem-6.0-gfortran/src/nwpw/libraryps/>

 Generated formatted atomic orbitals, filename: ./H.aorb

 lcao guess, initial psi:ch3cl.pspw.movecs             
 -   spin, nalpha, nbeta:                    1                    7                    0

 input psi filename:./ch3cl.pspw.movecs

 number of processors used:         4
 processor grid           :   4 x   1
 parallel mapping         :      slab
 parallel mapping         :  balanced

 options:
      boundary conditions  = periodic    (version3)
      electron spin        = restricted
      exchange-correlation = LDA (Vosko et al) parameterization

 elements involved in the cluster:
      1: C     core charge:  4.0000  lmax=  2
             comment    : Parameterized (J.Phys.Chem., vol 100, page 6966) Hamman psp
             pseudpotential type            :   0
             highest angular component      :   2
             local potential used           :   2
             number of non-local projections:   4
             cutoff =   0.800   0.850   0.850

      2: Cl    core charge:  7.0000  lmax=  2
             comment    : Troullier-Martins pseudopotential
             pseudpotential type            :   0
             highest angular component      :   2
             local potential used           :   2
             number of non-local projections:   4
             semicore corrections included  :  1.300 (radius)  0.080 (charge)
             cutoff =   1.340   1.450   1.450

      3: H     core charge:  1.0000  lmax=  1
             comment    : Parameterized (Chem.Phys.Lett., vol 322, page 447) Hamman psp
             pseudpotential type            :   0
             highest angular component      :   1
             local potential used           :   1
             number of non-local projections:   1
             cutoff =   0.800   0.800


 total charge:   0.000

 atomic composition:
     C   :  1     Cl  :  1     H   :  3

 number of electrons: spin up=     7 (   7 per task)  down=     7 (   7 per task) (fourier space)
 number of orbitals : spin up=     7 (   7 per task)  down=     7 (   7 per task) (fourier space)

 supercell:
      cell_name:  cell_default                  
      lattice:    a1=<  20.000   0.000   0.000 >
                  a2=<   0.000  20.000   0.000 >
                  a3=<   0.000   0.000  20.000 >
      reciprocal: b1=<   0.314   0.000   0.000 >
                  b2=<   0.000   0.314   0.000 >
                  b3=<   0.000   0.000   0.314 >
      lattice:    a=      20.000 b=     20.000 c=      20.000
                  alpha=  90.000 beta=  90.000 gamma=  90.000
                  omega=      8000.0

      density cutoff=  0.790  fft=  8x  8x  8(      126 waves       31 per task)
      wavefnc cutoff=  0.790  fft=  8x  8x  8(      126 waves       31 per task)
      ewald summation: cut radius=    6.37  and  1
                        madelung= 1.76011888

 technical parameters:
      time step=      5.80     ficticious mass=  400000.0
      tolerance=.100E-06 (energy)   0.100E-06 (density)
      maximum iterations =    1000 (   10 inner  100 outer )





== Energy Calculation ==


          ============ Grassmann lmbfgs iteration ============
     >>>  ITERATION STARTED AT Tue Aug 10 08:43:21 2010  <<<
    iter.           Energy         DeltaE       DeltaRho 
    ------------------------------------------------------
     -  15 steepest descent iterations performed
      10   -0.1507142701E+02   -0.26842E-03    0.24565E-02
      20   -0.1507169622E+02   -0.41943E-06    0.27746E-04
      30   -0.1507169845E+02   -0.10939E-08    0.55716E-06
      40   -0.1507169845E+02   -0.41670E-09    0.29571E-11
  *** tolerance ok. iteration terminated
     >>>  ITERATION ENDED   AT Tue Aug 10 08:43:21 2010  <<<


==  Summary Of Results  ==

 number of electrons: spin up=    7.00000  down=    7.00000 (real space)

 total     energy    :  -0.1507169845E+02 (   -0.30143E+01/ion)
 total orbital energy:  -0.1013779858E+02 (   -0.14483E+01/electron)
 hartree   energy    :   0.1192283296E+02 (    0.17033E+01/electron)
 exc-corr  energy    :  -0.3667919720E+01 (   -0.52399E+00/electron)
 ion-ion   energy    :   0.5903932939E+01 (    0.11808E+01/ion)

 kinetic (planewave) :   0.4768066962E+01 (    0.68115E+00/electron)
 V_local (planewave) :  -0.3533475306E+02 (   -0.50478E+01/electron)
 V_nl    (planewave) :   0.1336141468E+01 (    0.19088E+00/electron)
 V_Coul  (planewave) :   0.2384566592E+02 (    0.34065E+01/electron)
 V_xc.   (planewave) :  -0.4752919865E+01 (   -0.67899E+00/electron)
 Virial Coefficient  :  -0.3126186285E+01

 orbital energies:
    -0.3032950E+00 (  -8.253eV)
    -0.3067241E+00 (  -8.346eV)
    -0.6249169E+00 ( -17.005eV)
    -0.6551419E+00 ( -17.827eV)
    -0.6605739E+00 ( -17.975eV)
    -0.9094439E+00 ( -24.747eV)
    -0.1608804E+01 ( -43.778eV)

 Total PSPW energy   :  -0.1507169845E+02


=== Spin Contamination ===

 <Sexact^2> =    0.00000000000000     
 <S^2>      =    0.00000000000000     



== Center of Charge ==

spin up     (   -0.0063,    0.0022,    0.4981 )
spin down   (   -0.0063,    0.0022,    0.4981 )
     total  (   -0.0063,    0.0022,    0.4981 )
ionic       (    0.0000,    0.0000,    0.5889 )
crystal     (    0.0147,   -0.0036,   -0.1858 )


== Crystal Dipole ==

mu   =  (    0.2942,   -0.0805,   -9.5744 ) au
|mu| =     9.5793 au,      24.3467 Debye


== Molecular Dipole wrt Center of Mass ==

mu   =  (    0.0886,   -0.0304,    1.2718 ) au
|mu| =     1.2752 au,       3.2411 Debye

 output psi filename:./ch3cl.pspw.movecs


== Timing ==

cputime in seconds
  prologue    :   0.190134E+01
  main loop   :   0.606330E+00
  epilogue    :   0.194001E-02
  total       :   0.250961E+01
  cputime/step:   0.713329E-02       (      85 evalulations,      31 linesearches)


Time spent doing                        total          step
  FFTs                       :   0.218227E-01  0.256737E-03
  dot products               :   0.776683E-02  0.913744E-04
  geodesic                   :   0.249850E-01  0.293942E-03
  ffm_dgemm                  :   0.145276E-02  0.170913E-04
  fmf_dgemm                  :   0.343061E-02  0.403602E-04
  m_diagonalize              :   0.921461E-03  0.108407E-04
    - m_tredq                :   0.000000E+00  0.000000E+00
    - m_getdiags             :   0.000000E+00  0.000000E+00
    - m_tqliq                :   0.000000E+00  0.000000E+00
    - m_eigsrt               :   0.000000E+00  0.000000E+00
  exchange correlation       :   0.565147E-02  0.664879E-04
  local pseudopotentials     :   0.698566E-04  0.821843E-06
  non-local pseudopotentials :   0.109148E-01  0.128409E-03
  hartree potentials         :   0.181513E-02  0.213545E-04
  ion-ion interaction        :   0.468731E-03  0.551448E-05
  structure factors          :   0.831616E-02  0.978372E-04
  phase factors              :   0.221729E-04  0.260858E-06
  masking and packing        :   0.546390E-01  0.642812E-03
  queue fft                  :   0.166967E-01  0.196431E-03
  queue fft (serial)         :   0.581752E-02  0.684414E-04
  queue fft (message passing):   0.886675E-02  0.104315E-03
  HFX potential              :   0.000000E+00  0.000000E+00
  qmmm LJ                    :   0.000000E+00  0.000000E+00
  qmmm residual Q            :   0.000000E+00  0.000000E+00

     >>>  JOB COMPLETED     AT Tue Aug 10 08:43:21 2010  <<<

 Task  times  cpu:        2.0s     wall:        2.5s


                                NWChem Input Module
                                -------------------


          ****************************************************
          *                                                  *
          *               NWPW PSPW Calculation              *
          *                                                  *
          *  [ (Grassman/Stiefel manifold implementation) ]  *
          *                                                  *
          *      [ NorthWest Chemistry implementation ]      *
          *                                                  *
          *            version #5.10   06/12/02              *
          *                                                  *
          *    This code was developed by Eric J. Bylaska,   *
          *    and was based upon algorithms and code        *
          *    developed by the group of Prof. John H. Weare *
          *                                                  *
          ****************************************************
     >>>  JOB STARTED       AT Tue Aug 10 08:43:21 2010  <<<
          ================ input data ========================
 pseudopotential is not correctly formatted:C.vpp               

 Generated formatted_filename: ./C.vpp
 pseudopotential is not correctly formatted:Cl.vpp              

 Generated formatted_filename: ./Cl.vpp
 pseudopotential is not correctly formatted:H.vpp               

 Generated formatted_filename: ./H.vpp
 Error reading psi - bad grid
 Error reading psi - bad unitcell
  - Ignored if the following  parameter is set
  - set nwpw:psi_nolattice .true.
 Error reading psi - bad grid
 Error reading psi - bad unitcell
  - Ignored if the following  parameter is set
  - set nwpw:psi_nolattice .true.
 Error reading psi - bad grid
 Error reading psi - bad unitcell
  - Ignored if the following  parameter is set
  - set nwpw:psi_nolattice .true.

 Grid is being converted:
 ------------------------

 To turn off automatic grid conversion:

 set nwpw:psi_nogrid .false.

 old_filename: ch3cl.pspw.movecs             
 new_filename: ch3cl.pspw.movecs             
 converting  :   8x  8x  8 -->  16x 16x 16
 converting .... psi:                    1  spin:                    1
 converting .... psi:                    2  spin:                    1
 converting .... psi:                    3  spin:                    1
 converting .... psi:                    4  spin:                    1
 converting .... psi:                    5  spin:                    1
 converting .... psi:                    6  spin:                    1
 converting .... psi:                    7  spin:                    1

 input psi filename:./ch3cl.pspw.movecs

 number of processors used:         4
 processor grid           :   4 x   1
 parallel mapping         :      slab
 parallel mapping         :  balanced

 options:
      boundary conditions  = periodic    (version3)
      electron spin        = restricted
      exchange-correlation = LDA (Vosko et al) parameterization

 elements involved in the cluster:
      1: C     core charge:  4.0000  lmax=  2
             comment    : Parameterized (J.Phys.Chem., vol 100, page 6966) Hamman psp
             pseudpotential type            :   0
             highest angular component      :   2
             local potential used           :   2
             number of non-local projections:   4
             cutoff =   0.800   0.850   0.850

      2: Cl    core charge:  7.0000  lmax=  2
             comment    : Troullier-Martins pseudopotential
             pseudpotential type            :   0
             highest angular component      :   2
             local potential used           :   2
             number of non-local projections:   4
             semicore corrections included  :  1.300 (radius)  0.244 (charge)
             cutoff =   1.340   1.450   1.450

      3: H     core charge:  1.0000  lmax=  1
             comment    : Parameterized (Chem.Phys.Lett., vol 322, page 447) Hamman psp
             pseudpotential type            :   0
             highest angular component      :   1
             local potential used           :   1
             number of non-local projections:   1
             cutoff =   0.800   0.800


 total charge:   0.000

 atomic composition:
     C   :  1     Cl  :  1     H   :  3

 number of electrons: spin up=     7 (   7 per task)  down=     7 (   7 per task) (fourier space)
 number of orbitals : spin up=     7 (   7 per task)  down=     7 (   7 per task) (fourier space)

 supercell:
      cell_name:  cell_default                  
      lattice:    a1=<  16.000  16.000   0.000 >
                  a2=<  16.000   0.000  16.000 >
                  a3=<   0.000  16.000  16.000 >
      reciprocal: b1=<   0.196   0.196  -0.196 >
                  b2=<   0.196  -0.196   0.196 >
                  b3=<  -0.196   0.196   0.196 >
      lattice:    a=      22.627 b=     22.627 c=      22.627
                  alpha=  60.000 beta=  60.000 gamma=  60.000
                  omega=      8192.0

      density cutoff=  3.701  fft= 16x 16x 16(     1091 waves      272 per task)
      wavefnc cutoff=  3.701  fft= 16x 16x 16(     1091 waves      272 per task)
      ewald summation: cut radius=    7.20  and  1
                        madelung= 1.79174723

 technical parameters:
      time step=      5.80     ficticious mass=  400000.0
      tolerance=.100E-06 (energy)   0.100E-06 (density)
      maximum iterations =    1000 (   10 inner  100 outer )





== Energy Calculation ==


          ============ Grassmann lmbfgs iteration ============
     >>>  ITERATION STARTED AT Tue Aug 10 08:43:21 2010  <<<
    iter.           Energy         DeltaE       DeltaRho 
    ------------------------------------------------------
      10   -0.2280980598E+02   -0.71945E-02    0.10409E+01
     -  10 steepest descent iterations performed
      20   -0.2281402104E+02   -0.15932E-06    0.19825E-04
      30   -0.2281402108E+02   -0.46575E-07    0.26586E-09
  *** tolerance ok. iteration terminated
     >>>  ITERATION ENDED   AT Tue Aug 10 08:43:22 2010  <<<


==  Summary Of Results  ==

 number of electrons: spin up=    7.00000  down=    7.00000 (real space)

 total     energy    :  -0.2281402108E+02 (   -0.45628E+01/ion)
 total orbital energy:  -0.6899653934E+01 (   -0.98566E+00/electron)
 hartree   energy    :   0.2323820340E+02 (    0.33197E+01/electron)
 exc-corr  energy    :  -0.5615214706E+01 (   -0.80217E+00/electron)
 ion-ion   energy    :   0.5753475498E+01 (    0.11507E+01/ion)

 kinetic (planewave) :   0.1047019761E+02 (    0.14957E+01/electron)
 V_local (planewave) :  -0.5996780574E+02 (   -0.85668E+01/electron)
 V_nl    (planewave) :   0.3307122849E+01 (    0.47245E+00/electron)
 V_Coul  (planewave) :   0.4647640680E+02 (    0.66395E+01/electron)
 V_xc.   (planewave) :  -0.7185575459E+01 (   -0.10265E+01/electron)
 Virial Coefficient  :  -0.1658980297E+01

 orbital energies:
    -0.3538839E+00 (  -9.630eV)
    -0.3582571E+00 (  -9.749eV)
    -0.4262085E+00 ( -11.598eV)
    -0.4428496E+00 ( -12.051eV)
    -0.4821783E+00 ( -13.121eV)
    -0.5992477E+00 ( -16.306eV)
    -0.7872018E+00 ( -21.421eV)

 Total PSPW energy   :  -0.2281402108E+02


=== Spin Contamination ===

 <Sexact^2> =    0.00000000000000     
 <S^2>      =    0.00000000000000     



== Center of Charge ==

spin up     (   -0.0037,   -0.0008,    0.4891 )
spin down   (   -0.0037,   -0.0008,    0.4891 )
     total  (   -0.0037,   -0.0008,    0.4891 )
ionic       (    0.0000,    0.0000,    0.5889 )
crystal     (   -0.0330,   -0.0346,    0.0777 )


== Crystal Dipole ==

mu   =  (   -0.4100,   -0.4733,   -5.7594 ) au
|mu| =     5.7933 au,      14.7244 Debye


== Molecular Dipole wrt Center of Mass ==

mu   =  (    0.0522,    0.0112,    1.3970 ) au
|mu| =     1.3980 au,       3.5531 Debye

 output psi filename:./ch3cl.pspw.movecs


== Timing ==

cputime in seconds
  prologue    :   0.312610E+00
  main loop   :   0.176693E+00
  epilogue    :   0.245094E-02
  total       :   0.491754E+00
  cputime/step:   0.304643E-02       (      58 evalulations,      21 linesearches)


Time spent doing                        total          step
  FFTs                       :   0.909442E-02  0.156800E-03
  dot products               :   0.964555E-02  0.166303E-03
  geodesic                   :   0.409372E-01  0.705813E-03
  ffm_dgemm                  :   0.401026E-02  0.691423E-04
  fmf_dgemm                  :   0.285271E-01  0.491847E-03
  m_diagonalize              :   0.689973E-03  0.118961E-04
    - m_tredq                :   0.000000E+00  0.000000E+00
    - m_getdiags             :   0.000000E+00  0.000000E+00
    - m_tqliq                :   0.000000E+00  0.000000E+00
    - m_eigsrt               :   0.000000E+00  0.000000E+00
  exchange correlation       :   0.220344E-01  0.379904E-03
  local pseudopotentials     :   0.548363E-04  0.945453E-06
  non-local pseudopotentials :   0.215385E-01  0.371353E-03
  hartree potentials         :   0.126100E-02  0.217413E-04
  ion-ion interaction        :   0.547886E-03  0.944631E-05
  structure factors          :   0.937222E-03  0.161590E-04
  phase factors              :   0.882049E-05  0.152077E-06
  masking and packing        :   0.999363E-02  0.172304E-03
  queue fft                  :   0.375803E-01  0.647936E-03
  queue fft (serial)         :   0.227279E-01  0.391861E-03
  queue fft (message passing):   0.129584E-01  0.223421E-03
  HFX potential              :   0.000000E+00  0.000000E+00
  qmmm LJ                    :   0.000000E+00  0.000000E+00
  qmmm residual Q            :   0.000000E+00  0.000000E+00

     >>>  JOB COMPLETED     AT Tue Aug 10 08:43:22 2010  <<<

 Task  times  cpu:        0.5s     wall:        0.5s


                                NWChem Input Module
                                -------------------


          ****************************************************
          *                                                  *
          *               NWPW PSPW Calculation              *
          *                                                  *
          *  [ (Grassman/Stiefel manifold implementation) ]  *
          *                                                  *
          *      [ NorthWest Chemistry implementation ]      *
          *                                                  *
          *            version #5.10   06/12/02              *
          *                                                  *
          *    This code was developed by Eric J. Bylaska,   *
          *    and was based upon algorithms and code        *
          *    developed by the group of Prof. John H. Weare *
          *                                                  *
          ****************************************************
     >>>  JOB STARTED       AT Tue Aug 10 08:43:22 2010  <<<
          ================ input data ========================
 pseudopotential is not correctly formatted:C.vpp               

 Generated formatted_filename: ./C.vpp
 pseudopotential is not correctly formatted:Cl.vpp              

 Generated formatted_filename: ./Cl.vpp
 pseudopotential is not correctly formatted:H.vpp               

 Generated formatted_filename: ./H.vpp
 Error reading psi - bad unitcell
  - Ignored if the following  parameter is set
  - set nwpw:psi_nolattice .true.
 Error reading psi - bad unitcell
  - Ignored if the following  parameter is set
  - set nwpw:psi_nolattice .true.
 Error reading psi - bad unitcell
  - Ignored if the following  parameter is set
  - set nwpw:psi_nolattice .true.

 input psi filename:./ch3cl.pspw.movecs
 Warning - Gram-Schmidt being performed on psi:   7.00000000000000        6.78371356078785        7.00000000000000       0.216286439212147     

 number of processors used:         4
 processor grid           :   4 x   1
 parallel mapping         :      slab
 parallel mapping         :  balanced

 options:
      boundary conditions  = periodic    (version3)
      electron spin        = restricted
      exchange-correlation = LDA (Vosko et al) parameterization

 elements involved in the cluster:
      1: C     core charge:  4.0000  lmax=  2
             comment    : Parameterized (J.Phys.Chem., vol 100, page 6966) Hamman psp
             pseudpotential type            :   0
             highest angular component      :   2
             local potential used           :   2
             number of non-local projections:   4
             cutoff =   0.800   0.850   0.850

      2: Cl    core charge:  7.0000  lmax=  2
             comment    : Troullier-Martins pseudopotential
             pseudpotential type            :   0
             highest angular component      :   2
             local potential used           :   2
             number of non-local projections:   4
             semicore corrections included  :  1.300 (radius)  0.261 (charge)
             cutoff =   1.340   1.450   1.450

      3: H     core charge:  1.0000  lmax=  1
             comment    : Parameterized (Chem.Phys.Lett., vol 322, page 447) Hamman psp
             pseudpotential type            :   0
             highest angular component      :   1
             local potential used           :   1
             number of non-local projections:   1
             cutoff =   0.800   0.800


 total charge:   0.000

 atomic composition:
     C   :  1     Cl  :  1     H   :  3

 number of electrons: spin up=     7 (   7 per task)  down=     7 (   7 per task) (fourier space)
 number of orbitals : spin up=     7 (   7 per task)  down=     7 (   7 per task) (fourier space)

 supercell:
      cell_name:  cell_default                  
      lattice:    a1=<  18.000   0.000   0.000 >
                  a2=<   0.000  18.200   0.000 >
                  a3=<   0.000   0.000  18.200 >
      reciprocal: b1=<   0.349   0.000   0.000 >
                  b2=<   0.000   0.345   0.000 >
                  b3=<   0.000   0.000   0.345 >
      lattice:    a=      18.000 b=     18.200 c=      18.200
                  alpha=  90.000 beta=  90.000 gamma=  90.000
                  omega=      5962.3

      density cutoff=  3.814  fft= 16x 16x 16(     1052 waves      263 per task)
      wavefnc cutoff=  3.814  fft= 16x 16x 16(     1052 waves      263 per task)
      ewald summation: cut radius=    5.73  and  1
                        madelung= 1.76004621

 technical parameters:
      time step=      5.80     ficticious mass=  400000.0
      tolerance=.100E-06 (energy)   0.100E-06 (density)
      maximum iterations =    1000 (   10 inner  100 outer )





== Energy Calculation ==


          ============ Grassmann lmbfgs iteration ============
     >>>  ITERATION STARTED AT Tue Aug 10 08:43:22 2010  <<<
    iter.           Energy         DeltaE       DeltaRho 
    ------------------------------------------------------
      10   -0.2232866546E+02   -0.50144E-02    0.13626E+01
     -  10 steepest descent iterations performed
      20   -0.2233198848E+02   -0.73150E-06    0.18638E-04
      30   -0.2233198894E+02   -0.52254E-07    0.44839E-08
  *** tolerance ok. iteration terminated
     >>>  ITERATION ENDED   AT Tue Aug 10 08:43:22 2010  <<<


==  Summary Of Results  ==

 number of electrons: spin up=    7.00000  down=    7.00000 (real space)

 total     energy    :  -0.2233198894E+02 (   -0.44664E+01/ion)
 total orbital energy:  -0.6302439657E+01 (   -0.90035E+00/electron)
 hartree   energy    :   0.2216348419E+02 (    0.31662E+01/electron)
 exc-corr  energy    :  -0.5680256259E+01 (   -0.81147E+00/electron)
 ion-ion   energy    :   0.4548110529E+01 (    0.90962E+00/ion)

 kinetic (planewave) :   0.1022422840E+02 (    0.14606E+01/electron)
 V_local (planewave) :  -0.5701716598E+02 (   -0.81453E+01/electron)
 V_nl    (planewave) :   0.3429610181E+01 (    0.48994E+00/electron)
 V_Coul  (planewave) :   0.4432696838E+02 (    0.63324E+01/electron)
 V_xc.   (planewave) :  -0.7266080631E+01 (   -0.10380E+01/electron)
 Virial Coefficient  :  -0.1616422033E+01

 orbital energies:
    -0.2746754E+00 (  -7.474eV)
    -0.2755789E+00 (  -7.499eV)
    -0.3990652E+00 ( -10.859eV)
    -0.4038702E+00 ( -10.990eV)
    -0.4054668E+00 ( -11.033eV)
    -0.6172996E+00 ( -16.798eV)
    -0.7752637E+00 ( -21.096eV)

 Total PSPW energy   :  -0.2233198894E+02


=== Spin Contamination ===

 <Sexact^2> =    0.00000000000000     
 <S^2>      =    0.00000000000000     



== Center of Charge ==

spin up     (   -0.0009,    0.0002,    0.4795 )
spin down   (   -0.0009,    0.0002,    0.4795 )
     total  (   -0.0009,    0.0002,    0.4795 )
ionic       (    0.0000,    0.0000,    0.5889 )
crystal     (    0.0175,   -0.0050,   -0.1060 )


== Crystal Dipole ==

mu   =  (    0.2588,   -0.0727,   -8.1966 ) au
|mu| =     8.2010 au,      20.8437 Debye


== Molecular Dipole wrt Center of Mass ==

mu   =  (    0.0132,   -0.0028,    1.5317 ) au
|mu| =     1.5318 au,       3.8932 Debye

 output psi filename:./ch3cl.pspw.movecs


== Timing ==

cputime in seconds
  prologue    :   0.303825E+00
  main loop   :   0.187115E+00
  epilogue    :   0.239611E-02
  total       :   0.493336E+00
  cputime/step:   0.297008E-02       (      63 evalulations,      23 linesearches)


Time spent doing                        total          step
  FFTs                       :   0.948686E-02  0.150585E-03
  dot products               :   0.102294E-01  0.162371E-03
  geodesic                   :   0.445556E-01  0.707232E-03
  ffm_dgemm                  :   0.410681E-02  0.651875E-04
  fmf_dgemm                  :   0.309055E-01  0.490564E-03
  m_diagonalize              :   0.757676E-03  0.120266E-04
    - m_tredq                :   0.000000E+00  0.000000E+00
    - m_getdiags             :   0.000000E+00  0.000000E+00
    - m_tqliq                :   0.000000E+00  0.000000E+00
    - m_eigsrt               :   0.000000E+00  0.000000E+00
  exchange correlation       :   0.240366E-01  0.381534E-03
  local pseudopotentials     :   0.488758E-04  0.775806E-06
  non-local pseudopotentials :   0.224469E-01  0.356300E-03
  hartree potentials         :   0.137854E-02  0.218816E-04
  ion-ion interaction        :   0.323057E-03  0.512789E-05
  structure factors          :   0.972504E-03  0.154366E-04
  phase factors              :   0.131130E-04  0.208143E-06
  masking and packing        :   0.107557E-01  0.170726E-03
  queue fft                  :   0.408254E-01  0.648022E-03
  queue fft (serial)         :   0.245354E-01  0.389451E-03
  queue fft (message passing):   0.142491E-01  0.226176E-03
  HFX potential              :   0.000000E+00  0.000000E+00
  qmmm LJ                    :   0.000000E+00  0.000000E+00
  qmmm residual Q            :   0.000000E+00  0.000000E+00

     >>>  JOB COMPLETED     AT Tue Aug 10 08:43:22 2010  <<<

 Task  times  cpu:        0.5s     wall:        0.5s


                                NWChem Input Module
                                -------------------


          ****************************************************
          *                                                  *
          *               NWPW PSPW Calculation              *
          *                                                  *
          *  [ (Grassman/Stiefel manifold implementation) ]  *
          *                                                  *
          *      [ NorthWest Chemistry implementation ]      *
          *                                                  *
          *            version #5.10   06/12/02              *
          *                                                  *
          *    This code was developed by Eric J. Bylaska,   *
          *    and was based upon algorithms and code        *
          *    developed by the group of Prof. John H. Weare *
          *                                                  *
          ****************************************************
     >>>  JOB STARTED       AT Tue Aug 10 08:43:22 2010  <<<
          ================ input data ========================
 pseudopotential is not correctly formatted:C.vpp               

 Generated formatted_filename: ./C.vpp
 pseudopotential is not correctly formatted:Cl.vpp              

 Generated formatted_filename: ./Cl.vpp
 pseudopotential is not correctly formatted:H.vpp               

 Generated formatted_filename: ./H.vpp
 Error reading psi - bad unitcell
  - Ignored if the following  parameter is set
  - set nwpw:psi_nolattice .true.
 Error reading psi - bad unitcell
  - Ignored if the following  parameter is set
  - set nwpw:psi_nolattice .true.
 Error reading psi - bad unitcell
  - Ignored if the following  parameter is set
  - set nwpw:psi_nolattice .true.

 input psi filename:./ch3cl.pspw.movecs

 number of processors used:         4
 processor grid           :   4 x   1
 parallel mapping         :      slab
 parallel mapping         :  balanced

 options:
      boundary conditions  = periodic    (version3)
      electron spin        = restricted
      exchange-correlation = LDA (Vosko et al) parameterization

 elements involved in the cluster:
      1: C     core charge:  4.0000  lmax=  2
             comment    : Parameterized (J.Phys.Chem., vol 100, page 6966) Hamman psp
             pseudpotential type            :   0
             highest angular component      :   2
             local potential used           :   2
             number of non-local projections:   4
             cutoff =   0.800   0.850   0.850

      2: Cl    core charge:  7.0000  lmax=  2
             comment    : Troullier-Martins pseudopotential
             pseudpotential type            :   0
             highest angular component      :   2
             local potential used           :   2
             number of non-local projections:   4
             semicore corrections included  :  1.300 (radius)  0.255 (charge)
             cutoff =   1.340   1.450   1.450

      3: H     core charge:  1.0000  lmax=  1
             comment    : Parameterized (Chem.Phys.Lett., vol 322, page 447) Hamman psp
             pseudpotential type            :   0
             highest angular component      :   1
             local potential used           :   1
             number of non-local projections:   1
             cutoff =   0.800   0.800


 total charge:   0.000

 atomic composition:
     C   :  1     Cl  :  1     H   :  3

 number of electrons: spin up=     7 (   7 per task)  down=     7 (   7 per task) (fourier space)
 number of orbitals : spin up=     7 (   7 per task)  down=     7 (   7 per task) (fourier space)

 supercell:
      cell_name:  cell_default                  
      lattice:    a1=<  19.000   0.000   0.000 >
                  a2=<   0.000  19.000   0.000 >
                  a3=<   0.000   0.000  19.000 >
      reciprocal: b1=<   0.331   0.000   0.000 >
                  b2=<   0.000   0.331   0.000 >
                  b3=<   0.000   0.000   0.331 >
      lattice:    a=      19.000 b=     19.000 c=      19.000
                  alpha=  90.000 beta=  90.000 gamma=  90.000
                  omega=      6859.0

      density cutoff=  3.499  fft= 16x 16x 16(     1052 waves      263 per task)
      wavefnc cutoff=  3.499  fft= 16x 16x 16(     1052 waves      263 per task)
      ewald summation: cut radius=    6.05  and  1
                        madelung= 1.76011888

 technical parameters:
      time step=      5.80     ficticious mass=  400000.0
      tolerance=.100E-06 (energy)   0.100E-06 (density)
      maximum iterations =    1000 (   10 inner  100 outer )





== Energy Calculation ==


          ============ Grassmann lmbfgs iteration ============
     >>>  ITERATION STARTED AT Tue Aug 10 08:43:22 2010  <<<
    iter.           Energy         DeltaE       DeltaRho 
    ------------------------------------------------------
      10   -0.2229935645E+02   -0.61626E-06    0.18142E-01
      20   -0.2229935670E+02   -0.59991E-07    0.89451E-09
  *** tolerance ok. iteration terminated
     >>>  ITERATION ENDED   AT Tue Aug 10 08:43:22 2010  <<<


==  Summary Of Results  ==

 number of electrons: spin up=    7.00000  down=    7.00000 (real space)

 total     energy    :  -0.2229935670E+02 (   -0.44599E+01/ion)
 total orbital energy:  -0.6459297350E+01 (   -0.92276E+00/electron)
 hartree   energy    :   0.2263365791E+02 (    0.32334E+01/electron)
 exc-corr  energy    :  -0.5648018583E+01 (   -0.80686E+00/electron)
 ion-ion   energy    :   0.5210325721E+01 (    0.10421E+01/ion)

 kinetic (planewave) :   0.1011049038E+02 (    0.14444E+01/electron)
 V_local (planewave) :  -0.5791318016E+02 (   -0.82733E+01/electron)
 V_nl    (planewave) :   0.3307368032E+01 (    0.47248E+00/electron)
 V_Coul  (planewave) :   0.4526731581E+02 (    0.64668E+01/electron)
 V_xc.   (planewave) :  -0.7231291417E+01 (   -0.10330E+01/electron)
 Virial Coefficient  :  -0.1638870827E+01

 orbital energies:
    -0.2918393E+00 (  -7.941eV)
    -0.2922989E+00 (  -7.954eV)
    -0.3997470E+00 ( -10.878eV)
    -0.4019949E+00 ( -10.939eV)
    -0.4328896E+00 ( -11.780eV)
    -0.6345341E+00 ( -17.267eV)
    -0.7763449E+00 ( -21.126eV)

 Total PSPW energy   :  -0.2229935670E+02


=== Spin Contamination ===

 <Sexact^2> =    0.00000000000000     
 <S^2>      =    0.00000000000000     



== Center of Charge ==

spin up     (   -0.0012,    0.0003,    0.4931 )
spin down   (   -0.0012,    0.0003,    0.4931 )
     total  (   -0.0012,    0.0003,    0.4931 )
ionic       (    0.0000,    0.0000,    0.5889 )
crystal     (    0.0098,   -0.0051,   -0.2328 )


== Crystal Dipole ==

mu   =  (    0.1535,   -0.0746,  -10.1631 ) au
|mu| =    10.1645 au,      25.8341 Debye


== Molecular Dipole wrt Center of Mass ==

mu   =  (    0.0161,   -0.0037,    1.3413 ) au
|mu| =     1.3414 au,       3.4093 Debye

 output psi filename:./ch3cl.pspw.movecs


== Timing ==

cputime in seconds
  prologue    :   0.308269E+00
  main loop   :   0.973291E-01
  epilogue    :   0.239086E-02
  total       :   0.407989E+00
  cputime/step:   0.347604E-02       (      28 evalulations,      12 linesearches)


Time spent doing                        total          step
  FFTs                       :   0.429771E-02  0.153490E-03
  dot products               :   0.496369E-02  0.177274E-03
  geodesic                   :   0.230672E-01  0.823829E-03
  ffm_dgemm                  :   0.150755E-02  0.538410E-04
  fmf_dgemm                  :   0.156159E-01  0.557710E-03
  m_diagonalize              :   0.404826E-03  0.144581E-04
    - m_tredq                :   0.000000E+00  0.000000E+00
    - m_getdiags             :   0.000000E+00  0.000000E+00
    - m_tqliq                :   0.000000E+00  0.000000E+00
    - m_eigsrt               :   0.000000E+00  0.000000E+00
  exchange correlation       :   0.107872E-01  0.385259E-03
  local pseudopotentials     :   0.491142E-04  0.175408E-05
  non-local pseudopotentials :   0.106952E-01  0.381972E-03
  hartree potentials         :   0.733614E-03  0.262005E-04
  ion-ion interaction        :   0.221014E-03  0.789336E-05
  structure factors          :   0.512834E-03  0.183155E-04
  phase factors              :   0.128736E-04  0.459772E-06
  masking and packing        :   0.527756E-02  0.188484E-03
  queue fft                  :   0.178783E-01  0.638511E-03
  queue fft (serial)         :   0.109110E-01  0.389679E-03
  queue fft (message passing):   0.603374E-02  0.215491E-03
  HFX potential              :   0.000000E+00  0.000000E+00
  qmmm LJ                    :   0.000000E+00  0.000000E+00
  qmmm residual Q            :   0.000000E+00  0.000000E+00

     >>>  JOB COMPLETED     AT Tue Aug 10 08:43:23 2010  <<<

 Task  times  cpu:        0.4s     wall:        0.4s


                                NWChem Input Module
                                -------------------


          ****************************************************
          *                                                  *
          *               NWPW PSPW Calculation              *
          *                                                  *
          *  [ (Grassman/Stiefel manifold implementation) ]  *
          *                                                  *
          *      [ NorthWest Chemistry implementation ]      *
          *                                                  *
          *            version #5.10   06/12/02              *
          *                                                  *
          *    This code was developed by Eric J. Bylaska,   *
          *    and was based upon algorithms and code        *
          *    developed by the group of Prof. John H. Weare *
          *                                                  *
          ****************************************************
     >>>  JOB STARTED       AT Tue Aug 10 08:43:23 2010  <<<
          ================ input data ========================
 pseudopotential is not correctly formatted:C.vpp               

 Generated formatted_filename: ./C.vpp
 pseudopotential is not correctly formatted:Cl.vpp              

 Generated formatted_filename: ./Cl.vpp
 pseudopotential is not correctly formatted:H.vpp               

 Generated formatted_filename: ./H.vpp
 Error reading psi - bad unitcell
  - Ignored if the following  parameter is set
  - set nwpw:psi_nolattice .true.
 Error reading psi - bad unitcell
  - Ignored if the following  parameter is set
  - set nwpw:psi_nolattice .true.
 Error reading psi - bad unitcell
  - Ignored if the following  parameter is set
  - set nwpw:psi_nolattice .true.

 input psi filename:./ch3cl.pspw.movecs
 Warning - Gram-Schmidt being performed on psi:   7.00000000000000        6.91095119698404        7.00000000000000       8.904880301595508E-002

 number of processors used:         4
 processor grid           :   4 x   1
 parallel mapping         :      slab
 parallel mapping         :  balanced

 options:
      boundary conditions  = periodic    (version3)
      electron spin        = restricted
      exchange-correlation = LDA (Vosko et al) parameterization

 elements involved in the cluster:
      1: C     core charge:  4.0000  lmax=  2
             comment    : Parameterized (J.Phys.Chem., vol 100, page 6966) Hamman psp
             pseudpotential type            :   0
             highest angular component      :   2
             local potential used           :   2
             number of non-local projections:   4
             cutoff =   0.800   0.850   0.850

      2: Cl    core charge:  7.0000  lmax=  2
             comment    : Troullier-Martins pseudopotential
             pseudpotential type            :   0
             highest angular component      :   2
             local potential used           :   2
             number of non-local projections:   4
             semicore corrections included  :  1.300 (radius)  0.199 (charge)
             cutoff =   1.340   1.450   1.450

      3: H     core charge:  1.0000  lmax=  1
             comment    : Parameterized (Chem.Phys.Lett., vol 322, page 447) Hamman psp
             pseudpotential type            :   0
             highest angular component      :   1
             local potential used           :   1
             number of non-local projections:   1
             cutoff =   0.800   0.800


 total charge:   0.000

 atomic composition:
     C   :  1     Cl  :  1     H   :  3

 number of electrons: spin up=     7 (   7 per task)  down=     7 (   7 per task) (fourier space)
 number of orbitals : spin up=     7 (   7 per task)  down=     7 (   7 per task) (fourier space)

 supercell:
      cell_name:  cell_default                  
      lattice:    a1=<  16.000  16.000  16.000 >
                  a2=< -16.000  16.000  16.000 >
                  a3=<  16.000  16.000 -16.000 >
      reciprocal: b1=<   0.196   0.000   0.196 >
                  b2=<  -0.196   0.196   0.000 >
                  b3=<   0.000   0.196  -0.196 >
      lattice:    a=      27.713 b=     27.713 c=      27.713
                  alpha= 109.471 beta=  70.529 gamma=  70.529
                  omega=     16384.0

      density cutoff=  2.467  fft= 16x 16x 16(     1186 waves      296 per task)
      wavefnc cutoff=  2.467  fft= 16x 16x 16(     1186 waves      296 per task)
      ewald summation: cut radius=    8.82  and  1
                        madelung= 1.79185851

 technical parameters:
      time step=      5.80     ficticious mass=  400000.0
      tolerance=.100E-06 (energy)   0.100E-06 (density)
      maximum iterations =    1000 (   10 inner  100 outer )





== Energy Calculation ==


          ============ Grassmann lmbfgs iteration ============
     >>>  ITERATION STARTED AT Tue Aug 10 08:43:23 2010  <<<
    iter.           Energy         DeltaE       DeltaRho 
    ------------------------------------------------------
      10   -0.2160660341E+02   -0.80054E-02    0.79496E+00
     -  10 steepest descent iterations performed
      20   -0.2161073533E+02   -0.12425E-06    0.39689E-04
      30   -0.2161073536E+02   -0.36655E-07    0.20536E-09
  *** tolerance ok. iteration terminated
     >>>  ITERATION ENDED   AT Tue Aug 10 08:43:23 2010  <<<


==  Summary Of Results  ==

 number of electrons: spin up=    7.00000  down=    7.00000 (real space)

 total     energy    :  -0.2161073536E+02 (   -0.43221E+01/ion)
 total orbital energy:  -0.8236826291E+01 (   -0.11767E+01/electron)
 hartree   energy    :   0.2338171002E+02 (    0.33402E+01/electron)
 exc-corr  energy    :  -0.5134694612E+01 (   -0.73353E+00/electron)
 ion-ion   energy    :   0.8543175950E+01 (    0.17086E+01/ion)

 kinetic (planewave) :   0.8835820106E+01 (    0.12623E+01/electron)
 V_local (planewave) :  -0.5990912747E+02 (   -0.85584E+01/electron)
 V_nl    (planewave) :   0.2672380640E+01 (    0.38177E+00/electron)
 V_Coul  (planewave) :   0.4676342003E+02 (    0.66805E+01/electron)
 V_xc.   (planewave) :  -0.6599319605E+01 (   -0.94276E+00/electron)
 Virial Coefficient  :  -0.1932208464E+01

 orbital energies:
    -0.3595656E+00 (  -9.784eV)
    -0.3720165E+00 ( -10.123eV)
    -0.4602087E+00 ( -12.523eV)
    -0.5188588E+00 ( -14.119eV)
    -0.6952412E+00 ( -18.919eV)
    -0.7144996E+00 ( -19.443eV)
    -0.9980227E+00 ( -27.158eV)


== Virtual Orbital Calculation ==

 random planewave guess, initial psi:ch3cl.pspw.emovecs            
 -   spin, nalpha, nbeta:                    1                    4                    0

 input epsi filename:./ch3cl.pspw.emovecs

 virtual orbital energies:
     0.1138094E-01 (   0.310eV)
    -0.3686338E-02 (  -0.100eV)
    -0.1974198E-01 (  -0.537eV)
    -0.1084882E+00 (  -2.952eV)



 output epsi filename:./ch3cl.pspw.emovecs

 Total PSPW energy   :  -0.2161073536E+02


=== Spin Contamination ===

 <Sexact^2> =    0.00000000000000     
 <S^2>      =    0.00000000000000     



== Center of Charge ==

spin up     (    0.0073,   -0.0051,    0.5273 )
spin down   (    0.0073,   -0.0051,    0.5273 )
     total  (    0.0073,   -0.0051,    0.5273 )
ionic       (    0.0000,    0.0000,    0.5889 )
crystal     (    0.0678,   -0.0651,    0.1056 )


== Crystal Dipole ==

mu   =  (    0.8463,   -0.8406,   -5.9038 ) au
|mu| =     6.0231 au,      15.3083 Debye


== Molecular Dipole wrt Center of Mass ==

mu   =  (   -0.1025,    0.0709,    0.8623 ) au
|mu| =     0.8712 au,       2.2143 Debye

 output psi filename:./ch3cl.pspw.movecs


== Timing ==

cputime in seconds
  prologue    :   0.307703E+00
  main loop   :   0.407668E+00
  epilogue    :   0.237799E-02
  total       :   0.717749E+00
  cputime/step:   0.702876E-02       (      58 evalulations,      21 linesearches)


Time spent doing                        total          step
  FFTs                       :   0.790956E-01  0.136372E-02
  dot products               :   0.380255E-01  0.655612E-03
  geodesic                   :   0.433097E-01  0.746718E-03
  ffm_dgemm                  :   0.428348E-02  0.738532E-04
  fmf_dgemm                  :   0.303980E-01  0.524103E-03
  m_diagonalize              :   0.686391E-03  0.118343E-04
    - m_tredq                :   0.000000E+00  0.000000E+00
    - m_getdiags             :   0.000000E+00  0.000000E+00
    - m_tqliq                :   0.000000E+00  0.000000E+00
    - m_eigsrt               :   0.000000E+00  0.000000E+00
  exchange correlation       :   0.226915E-01  0.391233E-03
  local pseudopotentials     :   0.560284E-04  0.966006E-06
  non-local pseudopotentials :   0.104158E+00  0.179583E-02
  hartree potentials         :   0.125980E-02  0.217208E-04
  ion-ion interaction        :   0.332355E-03  0.573027E-05
  structure factors          :   0.700068E-02  0.120701E-03
  phase factors              :   0.121583E-04  0.209627E-06
  masking and packing        :   0.456754E-01  0.787507E-03
  queue fft                  :   0.383196E-01  0.660683E-03
  queue fft (serial)         :   0.232519E-01  0.400895E-03
  queue fft (message passing):   0.131005E-01  0.225870E-03
  HFX potential              :   0.000000E+00  0.000000E+00
  qmmm LJ                    :   0.000000E+00  0.000000E+00
  qmmm residual Q            :   0.000000E+00  0.000000E+00

     >>>  JOB COMPLETED     AT Tue Aug 10 08:43:23 2010  <<<

 Task  times  cpu:        0.7s     wall:        0.7s


                                NWChem Input Module
                                -------------------


          ****************************************************
          *                                                  *
          *               NWPW PSPW Calculation              *
          *                                                  *
          *  [ (Grassman/Stiefel manifold implementation) ]  *
          *                                                  *
          *      [ NorthWest Chemistry implementation ]      *
          *                                                  *
          *            version #5.10   06/12/02              *
          *                                                  *
          *    This code was developed by Eric J. Bylaska,   *
          *    and was based upon algorithms and code        *
          *    developed by the group of Prof. John H. Weare *
          *                                                  *
          ****************************************************
     >>>  JOB STARTED       AT Tue Aug 10 08:43:23 2010  <<<
          ================ input data ========================
 pseudopotential is not correctly formatted:C.vpp               

 Generated formatted_filename: ./C.vpp
 pseudopotential is not correctly formatted:Cl.vpp              

 Generated formatted_filename: ./Cl.vpp
 pseudopotential is not correctly formatted:H.vpp               

 Generated formatted_filename: ./H.vpp
 Error reading psi - bad unitcell
  - Ignored if the following  parameter is set
  - set nwpw:psi_nolattice .true.
 Error reading psi - bad unitcell
  - Ignored if the following  parameter is set
  - set nwpw:psi_nolattice .true.
 Error reading psi - bad unitcell
  - Ignored if the following  parameter is set
  - set nwpw:psi_nolattice .true.

 input psi filename:./ch3cl.pspw.movecs
 Warning - Gram-Schmidt being performed on psi:   7.00000000000000        6.69782830953540        7.00000000000000       0.302171690464598     

 number of processors used:         4
 processor grid           :   4 x   1
 parallel mapping         :      slab
 parallel mapping         :  balanced

 options:
      boundary conditions  = periodic    (version3)
      electron spin        = restricted
      exchange-correlation = LDA (Vosko et al) parameterization

 elements involved in the cluster:
      1: C     core charge:  4.0000  lmax=  2
             comment    : Parameterized (J.Phys.Chem., vol 100, page 6966) Hamman psp
             pseudpotential type            :   0
             highest angular component      :   2
             local potential used           :   2
             number of non-local projections:   4
             cutoff =   0.800   0.850   0.850

      2: Cl    core charge:  7.0000  lmax=  2
             comment    : Troullier-Martins pseudopotential
             pseudpotential type            :   0
             highest angular component      :   2
             local potential used           :   2
             number of non-local projections:   4
             semicore corrections included  :  1.300 (radius)  0.247 (charge)
             cutoff =   1.340   1.450   1.450

      3: H     core charge:  1.0000  lmax=  1
             comment    : Parameterized (Chem.Phys.Lett., vol 322, page 447) Hamman psp
             pseudpotential type            :   0
             highest angular component      :   1
             local potential used           :   1
             number of non-local projections:   1
             cutoff =   0.800   0.800


 total charge:   0.000

 atomic composition:
     C   :  1     Cl  :  1     H   :  3

 number of electrons: spin up=     7 (   7 per task)  down=     7 (   7 per task) (fourier space)
 number of orbitals : spin up=     7 (   7 per task)  down=     7 (   7 per task) (fourier space)

 supercell:
      cell_name:  cell_default                  
      lattice:    a1=<  20.000   0.000   0.000 >
                  a2=<   0.000  20.000   0.000 >
                  a3=<   0.000   0.000  20.000 >
      reciprocal: b1=<   0.314   0.000   0.000 >
                  b2=<   0.000   0.314   0.000 >
                  b3=<   0.000   0.000   0.314 >
      lattice:    a=      20.000 b=     20.000 c=      20.000
                  alpha=  90.000 beta=  90.000 gamma=  90.000
                  omega=      8000.0

      density cutoff=  3.158  fft= 16x 16x 16(     1052 waves      263 per task)
      wavefnc cutoff=  3.158  fft= 16x 16x 16(     1052 waves      263 per task)
      ewald summation: cut radius=    6.37  and  1
                        madelung= 1.76011888

 technical parameters:
      time step=      5.80     ficticious mass=  400000.0
      tolerance=.100E-06 (energy)   0.100E-06 (density)
      maximum iterations =    1000 (   10 inner  100 outer )





== Energy Calculation ==


          ============ Grassmann lmbfgs iteration ============
     >>>  ITERATION STARTED AT Tue Aug 10 08:43:24 2010  <<<
    iter.           Energy         DeltaE       DeltaRho 
    ------------------------------------------------------
      10   -0.2226697374E+02   -0.14120E-01    0.14466E+01
     -  10 steepest descent iterations performed
      20   -0.2227485796E+02   -0.45035E-06    0.10450E-03
      30   -0.2227485818E+02   -0.48896E-07    0.35383E-08
  *** tolerance ok. iteration terminated
     >>>  ITERATION ENDED   AT Tue Aug 10 08:43:24 2010  <<<


==  Summary Of Results  ==

 number of electrons: spin up=    7.00000  down=    7.00000 (real space)

 total     energy    :  -0.2227485818E+02 (   -0.44550E+01/ion)
 total orbital energy:  -0.6716195352E+01 (   -0.95946E+00/electron)
 hartree   energy    :   0.2303855891E+02 (    0.32912E+01/electron)
 exc-corr  energy    :  -0.5598646182E+01 (   -0.79981E+00/electron)
 ion-ion   energy    :   0.5903932944E+01 (    0.11808E+01/ion)

 kinetic (planewave) :   0.9974813348E+01 (    0.14250E+01/electron)
 V_local (planewave) :  -0.5877071084E+02 (   -0.83958E+01/electron)
 V_nl    (planewave) :   0.3177193644E+01 (    0.45388E+00/electron)
 V_Coul  (planewave) :   0.4607711781E+02 (    0.65824E+01/electron)
 V_xc.   (planewave) :  -0.7174609319E+01 (   -0.10249E+01/electron)
 Virial Coefficient  :  -0.1673315391E+01

 orbital energies:
    -0.3060931E+00 (  -8.329eV)
    -0.3068895E+00 (  -8.351eV)
    -0.3993425E+00 ( -10.867eV)
    -0.4012943E+00 ( -10.920eV)
    -0.4984586E+00 ( -13.564eV)
    -0.6565970E+00 ( -17.867eV)
    -0.7894226E+00 ( -21.481eV)


== Virtual Orbital Calculation ==

 Error reading psi - bad unitcell
  - Ignored if the following  parameter is set
  - set nwpw:psi_nolattice .true.
 Error reading psi - bad unitcell
  - Ignored if the following  parameter is set
  - set nwpw:psi_nolattice .true.
 Error reading psi - bad unitcell
  - Ignored if the following  parameter is set
  - set nwpw:psi_nolattice .true.

 input epsi filename:./ch3cl.pspw.emovecs

 virtual orbital energies:
     0.2534182E-01 (   0.690eV)
     0.1505945E-01 (   0.410eV)
    -0.2262783E-01 (  -0.616eV)
    -0.4395835E-01 (  -1.196eV)



 output epsi filename:./ch3cl.pspw.emovecs

 Total PSPW energy   :  -0.2227485818E+02


=== Spin Contamination ===

 <Sexact^2> =    0.00000000000000     
 <S^2>      =    0.00000000000000     



== Center of Charge ==

spin up     (   -0.0014,    0.0003,    0.5142 )
spin down   (   -0.0014,    0.0003,    0.5142 )
     total  (   -0.0014,    0.0003,    0.5142 )
ionic       (    0.0000,    0.0000,    0.5889 )
crystal     (    0.0147,   -0.0036,   -0.1858 )


== Crystal Dipole ==

mu   =  (    0.2254,   -0.0550,   -9.8010 ) au
|mu| =     9.8037 au,      24.9172 Debye


== Molecular Dipole wrt Center of Mass ==

mu   =  (    0.0197,   -0.0049,    1.0452 ) au
|mu| =     1.0454 au,       2.6570 Debye

 output psi filename:./ch3cl.pspw.movecs


== Timing ==

cputime in seconds
  prologue    :   0.308367E+00
  main loop   :   0.407522E+00
  epilogue    :   0.237679E-02
  total       :   0.718266E+00
  cputime/step:   0.657294E-02       (      62 evalulations,      22 linesearches)


Time spent doing                        total          step
  FFTs                       :   0.798037E-01  0.128716E-02
  dot products               :   0.365427E-01  0.589398E-03
  geodesic                   :   0.434050E-01  0.700081E-03
  ffm_dgemm                  :   0.400930E-02  0.646661E-04
  fmf_dgemm                  :   0.297094E-01  0.479184E-03
  m_diagonalize              :   0.717625E-03  0.115746E-04
    - m_tredq                :   0.000000E+00  0.000000E+00
    - m_getdiags             :   0.000000E+00  0.000000E+00
    - m_tqliq                :   0.000000E+00  0.000000E+00
    - m_eigsrt               :   0.000000E+00  0.000000E+00
  exchange correlation       :   0.246034E-01  0.396828E-03
  local pseudopotentials     :   0.491142E-04  0.792165E-06
  non-local pseudopotentials :   0.931222E-01  0.150197E-02
  hartree potentials         :   0.134230E-02  0.216500E-04
  ion-ion interaction        :   0.328064E-03  0.529135E-05
  structure factors          :   0.660777E-02  0.106577E-03
  phase factors              :   0.128736E-04  0.207639E-06
  masking and packing        :   0.469103E-01  0.756618E-03
  queue fft                  :   0.404124E-01  0.651813E-03
  queue fft (serial)         :   0.247605E-01  0.399363E-03
  queue fft (message passing):   0.136531E-01  0.220211E-03
  HFX potential              :   0.000000E+00  0.000000E+00
  qmmm LJ                    :   0.000000E+00  0.000000E+00
  qmmm residual Q            :   0.000000E+00  0.000000E+00

     >>>  JOB COMPLETED     AT Tue Aug 10 08:43:24 2010  <<<

 Task  times  cpu:        0.7s     wall:        0.7s


                                NWChem Input Module
                                -------------------


          ****************************************************
          *                                                  *
          *               NWPW PSPW Calculation              *
          *                                                  *
          *  [ (Grassman/Stiefel manifold implementation) ]  *
          *                                                  *
          *      [ NorthWest Chemistry implementation ]      *
          *                                                  *
          *            version #5.10   06/12/02              *
          *                                                  *
          *    This code was developed by Eric J. Bylaska,   *
          *    and was based upon algorithms and code        *
          *    developed by the group of Prof. John H. Weare *
          *                                                  *
          ****************************************************
     >>>  JOB STARTED       AT Tue Aug 10 08:43:24 2010  <<<
          ================ input data ========================
 pseudopotential is not correctly formatted:C.vpp               

 Generated formatted_filename: ./C.vpp
 pseudopotential is not correctly formatted:Cl.vpp              

 Generated formatted_filename: ./Cl.vpp
 pseudopotential is not correctly formatted:H.vpp               

 Generated formatted_filename: ./H.vpp
 Error reading psi - bad grid
 Error reading psi - bad grid
 Error reading psi - bad grid

 Grid is being converted:
 ------------------------

 To turn off automatic grid conversion:

 set nwpw:psi_nogrid .false.

 old_filename: ch3cl.pspw.movecs             
 new_filename: ch3cl.pspw.movecs             
 converting  :  16x 16x 16 -->  32x 32x 32
 converting .... psi:                    1  spin:                    1
 converting .... psi:                    2  spin:                    1
 converting .... psi:                    3  spin:                    1
 converting .... psi:                    4  spin:                    1
 converting .... psi:                    5  spin:                    1
 converting .... psi:                    6  spin:                    1
 converting .... psi:                    7  spin:                    1

 input psi filename:./ch3cl.pspw.movecs

 number of processors used:         4
 processor grid           :   4 x   1
 parallel mapping         :      slab
 parallel mapping         :  balanced

 options:
      boundary conditions  = periodic    (version3)
      electron spin        = restricted
      exchange-correlation = LDA (Vosko et al) parameterization

 elements involved in the cluster:
      1: C     core charge:  4.0000  lmax=  2
             comment    : Parameterized (J.Phys.Chem., vol 100, page 6966) Hamman psp
             pseudpotential type            :   0
             highest angular component      :   2
             local potential used           :   2
             number of non-local projections:   4
             cutoff =   0.800   0.850   0.850

      2: Cl    core charge:  7.0000  lmax=  2
             comment    : Troullier-Martins pseudopotential
             pseudpotential type            :   0
             highest angular component      :   2
             local potential used           :   2
             number of non-local projections:   4
             semicore corrections included  :  1.300 (radius)  0.278 (charge)
             cutoff =   1.340   1.450   1.450

      3: H     core charge:  1.0000  lmax=  1
             comment    : Parameterized (Chem.Phys.Lett., vol 322, page 447) Hamman psp
             pseudpotential type            :   0
             highest angular component      :   1
             local potential used           :   1
             number of non-local projections:   1
             cutoff =   0.800   0.800


 total charge:   0.000

 atomic composition:
     C   :  1     Cl  :  1     H   :  3

 number of electrons: spin up=     7 (   7 per task)  down=     7 (   7 per task) (fourier space)
 number of orbitals : spin up=     7 (   7 per task)  down=     7 (   7 per task) (fourier space)

 supercell:
      cell_name:  cell_default                  
      lattice:    a1=<  20.000   0.000   0.000 >
                  a2=<   0.000  20.000   0.000 >
                  a3=<   0.000   0.000  20.000 >
      reciprocal: b1=<   0.314   0.000   0.000 >
                  b2=<   0.000   0.314   0.000 >
                  b3=<   0.000   0.000   0.314 >
      lattice:    a=      20.000 b=     20.000 c=      20.000
                  alpha=  90.000 beta=  90.000 gamma=  90.000
                  omega=      8000.0

      density cutoff= 12.633  fft= 32x 32x 32(     8536 waves     2134 per task)
      wavefnc cutoff= 12.633  fft= 32x 32x 32(     8536 waves     2134 per task)
      ewald summation: cut radius=    6.37  and  1
                        madelung= 1.76011888

 technical parameters:
      time step=      5.80     ficticious mass=  400000.0
      tolerance=.100E-06 (energy)   0.100E-06 (density)
      maximum iterations =    1000 (   10 inner  100 outer )





== Energy Calculation ==


          ============ Grassmann lmbfgs iteration ============
     >>>  ITERATION STARTED AT Tue Aug 10 08:43:25 2010  <<<
    iter.           Energy         DeltaE       DeltaRho 
    ------------------------------------------------------
      10   -0.2254184089E+02   -0.37324E-03    0.13446E+00
      20   -0.2254228084E+02   -0.11987E-05    0.63809E-05
      30   -0.2254228228E+02   -0.71161E-07    0.19976E-08
  *** tolerance ok. iteration terminated
     >>>  ITERATION ENDED   AT Tue Aug 10 08:43:26 2010  <<<


==  Summary Of Results  ==

 number of electrons: spin up=    7.00000  down=    7.00000 (real space)

 total     energy    :  -0.2254228228E+02 (   -0.45085E+01/ion)
 total orbital energy:  -0.6114774991E+01 (   -0.87354E+00/electron)
 hartree   energy    :   0.2391264075E+02 (    0.34161E+01/electron)
 exc-corr  energy    :  -0.5747038443E+01 (   -0.82101E+00/electron)
 ion-ion   energy    :   0.5903932944E+01 (    0.11808E+01/ion)

 kinetic (planewave) :   0.1104958396E+02 (    0.15785E+01/electron)
 V_local (planewave) :  -0.6055674299E+02 (   -0.86510E+01/electron)
 V_nl    (planewave) :   0.2895341498E+01 (    0.41362E+00/electron)
 V_Coul  (planewave) :   0.4782528150E+02 (    0.68322E+01/electron)
 V_xc.   (planewave) :  -0.7328238956E+01 (   -0.10469E+01/electron)
 Virial Coefficient  :  -0.1553394138E+01

 orbital energies:
    -0.2521700E+00 (  -6.862eV)
    -0.2521787E+00 (  -6.862eV)
    -0.3687100E+00 ( -10.033eV)
    -0.3946207E+00 ( -10.738eV)
    -0.3947238E+00 ( -10.741eV)
    -0.6150269E+00 ( -16.736eV)
    -0.7799575E+00 ( -21.224eV)


== Virtual Orbital Calculation ==

 Error reading psi - bad grid
 Error reading psi - bad grid
 Error reading psi - bad grid

 Grid is being converted:
 ------------------------

 To turn off automatic grid conversion:

 set nwpw:psi_nogrid .false.

 old_filename: ch3cl.pspw.emovecs            
 new_filename: ch3cl.pspw.emovecs            
 converting  :  16x 16x 16 -->  32x 32x 32
 converting .... psi:                    1  spin:                    1
 converting .... psi:                    2  spin:                    1
 converting .... psi:                    3  spin:                    1
 converting .... psi:                    4  spin:                    1

 input epsi filename:./ch3cl.pspw.emovecs

 virtual orbital energies:
     0.3367544E-01 (   0.916eV)
     0.3086295E-01 (   0.840eV)
    -0.1264813E-01 (  -0.344eV)
    -0.2736712E-01 (  -0.745eV)



 output epsi filename:./ch3cl.pspw.emovecs

 Total PSPW energy   :  -0.2254228228E+02


=== Spin Contamination ===

 <Sexact^2> =    0.00000000000000     
 <S^2>      =    0.00000000000000     



== Center of Charge ==

spin up     (   -0.0001,    0.0000,    0.5341 )
spin down   (   -0.0001,    0.0000,    0.5341 )
     total  (   -0.0001,    0.0000,    0.5341 )
ionic       (    0.0000,    0.0000,    0.5889 )
crystal     (    0.0147,   -0.0036,   -0.1858 )


== Crystal Dipole ==

mu   =  (    0.2066,   -0.0502,  -10.0792 ) au
|mu| =    10.0814 au,      25.6230 Debye


== Molecular Dipole wrt Center of Mass ==

mu   =  (    0.0010,    0.0000,    0.7670 ) au
|mu| =     0.7670 au,       1.9495 Debye

 output psi filename:./ch3cl.pspw.movecs


== Timing ==

cputime in seconds
  prologue    :   0.109787E+01
  main loop   :   0.287205E+01
  epilogue    :   0.532198E-02
  total       :   0.397524E+01
  cputime/step:   0.512866E-01       (      56 evalulations,      25 linesearches)


Time spent doing                        total          step
  FFTs                       :   0.726654E+00  0.129760E-01
  dot products               :   0.315921E+00  0.564144E-02
  geodesic                   :   0.320790E+00  0.572839E-02
  ffm_dgemm                  :   0.231834E-01  0.413989E-03
  fmf_dgemm                  :   0.294886E+00  0.526582E-02
  m_diagonalize              :   0.103162E-02  0.184217E-04
    - m_tredq                :   0.000000E+00  0.000000E+00
    - m_getdiags             :   0.000000E+00  0.000000E+00
    - m_tqliq                :   0.000000E+00  0.000000E+00
    - m_eigsrt               :   0.000000E+00  0.000000E+00
  exchange correlation       :   0.170118E+00  0.303782E-02
  local pseudopotentials     :   0.200033E-03  0.357202E-05
  non-local pseudopotentials :   0.858966E+00  0.153387E-01
  hartree potentials         :   0.413418E-02  0.738246E-04
  ion-ion interaction        :   0.677824E-03  0.121040E-04
  structure factors          :   0.871816E-01  0.155681E-02
  phase factors              :   0.166883E-04  0.298005E-06
  masking and packing        :   0.156462E+00  0.279397E-02
  queue fft                  :   0.315045E+00  0.562581E-02
  queue fft (serial)         :   0.213194E+00  0.380704E-02
  queue fft (message passing):   0.885857E-01  0.158189E-02
  HFX potential              :   0.000000E+00  0.000000E+00
  qmmm LJ                    :   0.000000E+00  0.000000E+00
  qmmm residual Q            :   0.000000E+00  0.000000E+00

     >>>  JOB COMPLETED     AT Tue Aug 10 08:43:28 2010  <<<

 Task  times  cpu:        3.9s     wall:        4.0s


                                NWChem Input Module
                                -------------------


 >>>> PSPW Parallel Module - steepest_descent <<<<
          ****************************************************
          *                                                  *
          *     Car-Parrinello microcluster calculation      *
          *                                                  *
          *     [     steepest descent minimization   ]      *
          *                                                  *
          *     [ NorthWest Chemistry implementation ]       *
          *                                                  *
          *            version #5.00   06/01/99              *
          *                                                  *
          *    This code was developed by Eric J. Bylaska,   *
          *    and was based upon algorithms and code        *
          *    developed by the group of Prof. John H. Weare *
          *                                                  *
          ****************************************************
     >>>  JOB STARTED       AT Tue Aug 10 08:43:28 2010  <<<
          ================ PSPW input data ===================

 input psi filename:./ch3cl.pspw.movecs

 number of processors used:         4
 processor grid           :   4 x   1
 parallel mapping         : slab
 parallel mapping         : balanced

 options:
      ionic motion         = no
      boundary conditions  = periodic    (version3)
      electron spin        = restricted
      exchange-correlation = LDA (Vosko et al) parameterization

 elements involved in the cluster:
      1: C     core charge: 4.0  lmax=2
             highest angular component      :  2
             local potential used           :  2
             number of non-local projections:  4
             cutoff =   0.800   0.850   0.850
      2: Cl    core charge: 7.0  lmax=2
             highest angular component      :  2
             local potential used           :  2
             number of non-local projections:  4
             semicore corrections included  :  1.300 (radius)  0.278 (charge)
             cutoff =   1.340   1.450   1.450
      3: H     core charge: 1.0  lmax=1
             highest angular component      :  1
             local potential used           :  1
             number of non-local projections:  1
             cutoff =   0.800   0.800

 total charge=   0.000

 atomic composition:
     C :  1     Cl:  1     H :  3

 initial position of ions:
        1 C    (    0.00000    0.00000    2.15669 ) - atomic mass=  12.000          
        2 Cl   (    0.00000    0.00000   -1.25580 ) - atomic mass=  34.969          
        3 H    (   -1.11183    1.60769    2.80282 ) - atomic mass=   1.008          
        4 H    (   -0.83638   -1.76672    2.80282 ) - atomic mass=   1.008          
        5 H    (    1.94822    0.15903    2.80282 ) - atomic mass=   1.008          
        G.C.   (    0.00000    0.00000    1.86187 )
        C.O.M. (    0.00000    0.00000   -0.19122 )

 number of electrons: spin up=     7 (   7 per task)  down=     7 (   7 per task) (fourier space)
 number of orbitals : spin up=     7 (   7 per task)  down=     7 (   7 per task) (fourier space)

 supercell:
      lattice:    a1=<  20.000   0.000   0.000 >
                  a2=<   0.000  20.000   0.000 >
                  a3=<   0.000   0.000  20.000 >
      reciprocal: b1=<   0.314   0.000   0.000 >
                  b2=<   0.000   0.314   0.000 >
                  b3=<   0.000   0.000   0.314 >
      volume :       8000.0
      density cutoff= 12.633  fft= 32x 32x 32(     8536 waves     2134 per task)
      wavefnc cutoff= 12.633  fft= 32x 32x 32(     8536 waves     2134 per task)
      ewald summation: cut radius=    6.37  and  1
                        madelung= 1.76011888

 technical parameters:
      translation contrained
      time step=     51.80     ficticious mass=  400000.0
      tolerance=.100E-08 (energy)   0.100E-08 (electron)   0.100E-03 (ion)
      maximum iterations =     100 (   10 inner   10 outer )



          ================ iteration =========================
     >>>  ITERATION STARTED AT Tue Aug 10 08:43:28 2010  <<<
    iter.           Energy         DeltaE       DeltaRho 
    ------------------------------------------------------
      10   -0.2254228234E+02   -0.43518E-01    0.22771E-09    0.00000E+00
      20   -0.2254228236E+02   -0.33936E-10    0.90302E-10    0.00000E+00
  *** tolerance ok.     iteration terminated.
     >>>  ITERATION ENDED   AT Tue Aug 10 08:43:28 2010  <<<



          =============  summary of results  =================
 final position of ions:
        1 C    (    0.00000    0.00000    2.15669 ) - atomic mass=  12.000          
        2 Cl   (    0.00000    0.00000   -1.25580 ) - atomic mass=  34.969          
        3 H    (   -1.11183    1.60769    2.80282 ) - atomic mass=   1.008          
        4 H    (   -0.83638   -1.76672    2.80282 ) - atomic mass=   1.008          
        5 H    (    1.94822    0.15903    2.80282 ) - atomic mass=   1.008          
        G.C.   (    0.00000    0.00000    1.86187 )
        C.O.M. (    0.00000    0.00000   -0.19122 )

 number of electrons: spin up=    7.00000  down=    7.00000 (real space)


 total     energy    :  -0.2254228236E+02 (   -0.45085E+01/ion)
 total orbital energy:  -0.6114777984E+01 (   -0.87354E+00/electron)
 hartree   energy    :   0.2391263741E+02 (    0.34161E+01/electron)
[...]
                                s
 4   H      0    0.26053    0.51042
                                s
 5   H      0    0.65289   -0.80802


=== DISTRIBUTION ===

     1(C   )   0.0093     2(Cl  )   0.0142     3(H   )   0.0631     4(H   )   0.2605
     5(H   )   0.6529


== ANGULAR MOMENTUM POPULATIONS ===

      s         p         d         f
    0.9765    0.0235    0.0000    0.0000


------------------------------------------------------------------------------


*** ORBITAL=   4***  SPIN=BOTH    SUM= 0.47457E-01 E= 0.16363E-01 (   0.445eV)

NO  ATOM  L  POPULATION
                                s
 1   C      0    0.00127   -0.03568
                               px         py         pz
 1   C      1    0.29050   -0.00391   -0.00067    0.53896
                                s
 2   Cl     0    0.00120    0.03470
                               px         py         pz
 2   Cl     1    0.01538    0.00577   -0.00593   -0.12376
                                s
 3   H      0    0.28685    0.53559
                                s
 4   H      0    0.20803    0.45611
                                s
 5   H      0    0.19675    0.44357


=== DISTRIBUTION ===

     1(C   )   0.2918     2(Cl  )   0.0166     3(H   )   0.2869     4(H   )   0.2080
     5(H   )   0.1968


== ANGULAR MOMENTUM POPULATIONS ===

      s         p         d         f
    0.6941    0.3059    0.0000    0.0000


 ========================================
 |   POPULATION ANALYSIS ON EACH ATOM   |
 ========================================


NO  ATOM  SPIN    TOTAL       s          p          d          f
 1   C      UP      1.21137    0.04584    1.16553
 1   C      DOWN    1.21137    0.04584    1.16553
 2   Cl     UP      0.56631    0.01313    0.55319
 2   Cl     DOWN    0.56631    0.01313    0.55319
 3   H      UP      0.53415    0.53415
 3   H      DOWN    0.53415    0.53415
 4   H      UP      0.65339    0.65339
 4   H      DOWN    0.65339    0.65339
 5   H      UP      1.03477    1.03477
 5   H      DOWN    1.03477    1.03477



=== TOTAL ANGULAR MOMENTUM POPULATION ===

 SPIN       s           p           d           f
  UP       57.03%      42.97%       0.00%       0.00% 
  UP       57.03%      42.97%       0.00%       0.00% 
 TOTAL     57.03%      42.97%       0.00%       0.00% 

 output epsi filename:./ch3cl.pspw.emovecs

 Total PSPW energy   :  -0.2265842571E+02


=== Spin Contamination ===

 <Sexact^2> =    0.00000000000000     
 <S^2>      =    0.00000000000000     



== Center of Charge ==

spin up     (    0.0000,    0.0000,    0.5357 )
spin down   (    0.0000,    0.0000,    0.5357 )
     total  (    0.0000,    0.0000,    0.5357 )
ionic       (    0.0000,    0.0000,    0.5889 )
crystal     (    0.0147,   -0.0036,   -0.1858 )


== Crystal Dipole ==

mu   =  (    0.2059,   -0.0500,  -10.1007 ) au
|mu| =    10.1029 au,      25.6776 Debye


== Molecular Dipole wrt Center of Mass ==

mu   =  (    0.0003,    0.0002,    0.7455 ) au
|mu| =     0.7455 au,       1.8948 Debye



 *************************************************************
 **                                                         **
 **                  PSPW Mulliken analysis                 **
 **                                                         **
 ** Population analysis algorithm devloped by Ryoichi Kawai **
 **                                                         **
 **                   Tue Aug 10 08:43                      **
 **                                                         **
 *************************************************************


== XYZ OUTPUT ==


                    5

C             0.000000      0.000000      1.141269
Cl            0.000000      0.000000     -0.664540
H            -0.588356      0.850753      1.483189
H            -0.442596     -0.934908      1.483189
H             1.030952      0.084155      1.483189


 =====================================================
 | POPULATION ANALYSIS OF FILLED MOLECULAR ORBITALS  |
 =====================================================


== Using pseudoatomic orbital expansion          ==


------------------------------------------------------------------------------


*** ORBITAL=   1***  SPIN=BOTH    SUM= 0.90226E+00 E=-0.26260E+00 (  -7.146eV)

NO  ATOM  L  POPULATION
                                s
 1   C      0    0.00000   -0.00004
                               px         py         pz
 1   C      1    0.02495   -0.02051    0.15660   -0.00001
                                s
 2   Cl     0    0.00000    0.00001
                               px         py         pz
 2   Cl     1    0.93259    0.12512   -0.95757    0.00003
                                s
 3   H      0    0.02239   -0.14962
                                s
 4   H      0    0.02001    0.14145
                                s
 5   H      0    0.00007    0.00815


=== DISTRIBUTION ===

     1(C   )   0.0249     2(Cl  )   0.9326     3(H   )   0.0224     4(H   )   0.0200
     5(H   )   0.0001


== ANGULAR MOMENTUM POPULATIONS ===

      s         p         d         f
    0.0425    0.9575    0.0000    0.0000


------------------------------------------------------------------------------


*** ORBITAL=   2***  SPIN=BOTH    SUM= 0.90231E+00 E=-0.26263E+00 (  -7.146eV)

NO  ATOM  L  POPULATION
                                s
 1   C      0    0.00000   -0.00004
                               px         py         pz
 1   C      1    0.02485   -0.15631   -0.02041   -0.00005
                                s
 2   Cl     0    0.00000    0.00007
                               px         py         pz
 2   Cl     1    0.93280    0.95767    0.12514    0.00013
                                s
 3   H      0    0.00591   -0.07688
                                s
 4   H      0    0.00829   -0.09103
                                s
 5   H      0    0.02816    0.16780


=== DISTRIBUTION ===

     1(C   )   0.0248     2(Cl  )   0.9328     3(H   )   0.0059     4(H   )   0.0083
     5(H   )   0.0282


== ANGULAR MOMENTUM POPULATIONS ===

      s         p         d         f
    0.0424    0.9576    0.0000    0.0000


------------------------------------------------------------------------------


*** ORBITAL=   3***  SPIN=BOTH    SUM= 0.11616E+01 E=-0.37777E+00 ( -10.280eV)

NO  ATOM  L  POPULATION
                                s
 1   C      0    0.00063   -0.02504
                               px         py         pz
 1   C      1    0.36286   -0.00018    0.00029    0.60238
                                s
 2   Cl     0    0.01869   -0.13672
                               px         py         pz
 2   Cl     1    0.53137    0.00004    0.00011   -0.72895
                                s
 3   H      0    0.02887   -0.16991
                                s
 4   H      0    0.02878   -0.16964
                                s
 5   H      0    0.02880   -0.16970


=== DISTRIBUTION ===

     1(C   )   0.3635     2(Cl  )   0.5501     3(H   )   0.0289     4(H   )   0.0288
     5(H   )   0.0288


== ANGULAR MOMENTUM POPULATIONS ===

      s         p         d         f
    0.1058    0.8942    0.0000    0.0000


------------------------------------------------------------------------------


*** ORBITAL=   4***  SPIN=BOTH    SUM= 0.14802E+01 E=-0.40814E+00 ( -11.106eV)

NO  ATOM  L  POPULATION
                                s
 1   C      0    0.00000    0.00005
                               px         py         pz
 1   C      1    0.58495    0.13534   -0.75275    0.00018
                                s
 2   Cl     0    0.00000   -0.00003
                               px         py         pz
 2   Cl     1    0.10311    0.05680   -0.31604   -0.00025
                                s
 3   H      0    0.17225    0.41503
                                s
 4   H      0    0.13776   -0.37116
                                s
 5   H      0    0.00193   -0.04389


=== DISTRIBUTION ===

     1(C   )   0.5850     2(Cl  )   0.1031     3(H   )   0.1723     4(H   )   0.1378
     5(H   )   0.0019


== ANGULAR MOMENTUM POPULATIONS ===

      s         p         d         f
    0.3119    0.6881    0.0000    0.0000


------------------------------------------------------------------------------


*** ORBITAL=   5***  SPIN=BOTH    SUM= 0.14802E+01 E=-0.40834E+00 ( -11.112eV)

NO  ATOM  L  POPULATION
                                s
 1   C      0    0.00000    0.00000
                               px         py         pz
 1   C      1    0.58518    0.75290    0.13533    0.00006
                                s
 2   Cl     0    0.00000   -0.00001
                               px         py         pz
 2   Cl     1    0.10294    0.31578    0.05676   -0.00010
                                s
 3   H      0    0.03569    0.18891
                                s
 4   H      0    0.07025    0.26505
                                s
 5   H      0    0.20594   -0.45381


=== DISTRIBUTION ===

     1(C   )   0.5852     2(Cl  )   0.1029     3(H   )   0.0357     4(H   )   0.0703
     5(H   )   0.2059


== ANGULAR MOMENTUM POPULATIONS ===

      s         p         d         f
    0.3119    0.6881    0.0000    0.0000


------------------------------------------------------------------------------


*** ORBITAL=   6***  SPIN=BOTH    SUM= 0.18504E+01 E=-0.62721E+00 ( -17.067eV)

NO  ATOM  L  POPULATION
                                s
 1   C      0    0.30410    0.55146
                               px         py         pz
 1   C      1    0.06641   -0.00003    0.00003   -0.25769
                                s
 2   Cl     0    0.09449   -0.30739
                               px         py         pz
 2   Cl     1    0.06886    0.00004    0.00000   -0.26242
                                s
 3   H      0    0.15534    0.39413
                                s
 4   H      0    0.15539    0.39420
                                s
 5   H      0    0.15540    0.39421


=== DISTRIBUTION ===

     1(C   )   0.3705     2(Cl  )   0.1634     3(H   )   0.1553     4(H   )   0.1554
     5(H   )   0.1554


== ANGULAR MOMENTUM POPULATIONS ===

      s         p         d         f
    0.8647    0.1353    0.0000    0.0000


------------------------------------------------------------------------------


*** ORBITAL=   7***  SPIN=BOTH    SUM= 0.17797E+01 E=-0.79034E+00 ( -21.506eV)

NO  ATOM  L  POPULATION
                                s
 1   C      0    0.21565   -0.46438
                               px         py         pz
 1   C      1    0.07884    0.00001   -0.00002   -0.28079
                                s
 2   Cl     0    0.44754   -0.66898
                               px         py         pz
 2   Cl     1    0.03894    0.00002   -0.00001    0.19734
                                s
 3   H      0    0.07300   -0.27018
                                s
 4   H      0    0.07302   -0.27022
                                s
 5   H      0    0.07301   -0.27021


=== DISTRIBUTION ===

     1(C   )   0.2945     2(Cl  )   0.4865     3(H   )   0.0730     4(H   )   0.0730
     5(H   )   0.0730


== ANGULAR MOMENTUM POPULATIONS ===

      s         p         d         f
    0.8822    0.1178    0.0000    0.0000


 ========================================
 |   POPULATION ANALYSIS ON EACH ATOM   |
 ========================================


NO  ATOM  SPIN    TOTAL       s          p          d          f
 1   C      UP      2.24841    0.52038    1.72803
 1   C      DOWN    2.24841    0.52038    1.72803
 2   Cl     UP      3.27134    0.56072    2.71062
 2   Cl     DOWN    3.27134    0.56072    2.71062
 3   H      UP      0.49344    0.49344
 3   H      DOWN    0.49344    0.49344
 4   H      UP      0.49350    0.49350
 4   H      DOWN    0.49350    0.49350
 5   H      UP      0.49331    0.49331
 5   H      DOWN    0.49331    0.49331



=== TOTAL ANGULAR MOMENTUM POPULATION ===

 SPIN       s           p           d           f
  UP       36.59%      63.41%       0.00%       0.00% 
  UP       36.59%      63.41%       0.00%       0.00% 
 TOTAL     36.59%      63.41%       0.00%       0.00% 

 *************************************************************
 **                                                         **
 **          PSPW Atomic Point Charge (APC) Analysis        **
 **                                                         **
 **   Point charge analysis based on paper by P.E. Blochl   **
 **         (J. Chem. Phys. vol 103, page 7422, 1995)       **
 **                                                         **
 *************************************************************

 pspw_APC data structure
 -----------------------
 nga, ngs:                    3                   15
 Gc      :   2.50000000000000     
 APC gamma:                    1  0.600000000000000     
 APC gamma:                    2  0.900000000000000     
 APC gamma:                    3   1.35000000000000     

 charge analysis on each atom
 ----------------------------

    no  atom        Qelc        Qion      Qtotal
    --  ----     -------     -------     -------
     1  C         -3.791       4.000       0.209
     2  Cl        -7.166       7.000      -0.166
     3  H         -1.014       1.000      -0.014
     4  H         -1.014       1.000      -0.014
     5  H         -1.014       1.000      -0.014
     Total Q     -14.000      14.000       0.000


 gaussian coefficients of model density
 --------------------------------------

    no  atom     g=0.000     g=0.600     g=0.900     g=1.350
    --  ----     -------     -------     -------     -------
     1  C          4.000       0.257      -0.930      -3.118
     2  Cl         7.000      -3.847       8.967     -12.287
     3  H          1.000      -0.983       1.106      -1.137
     4  H          1.000      -0.984       1.108      -1.138
     5  H          1.000      -0.987       1.114      -1.141


=== Electric Field at Atoms ===

      1 C    Atomic Electric Field =(    0.00064   -0.00028    0.10113 )
                    (ion)          =(    0.00000    0.00000    0.37896 )
                    (electronic)   =(    0.00064   -0.00028   -0.27783 )
      2 Cl   Atomic Electric Field =(   -0.00027    0.00006   -0.05526 )
                    (ion)          =(    0.00000    0.00000   -0.47668 )
                    (electronic)   =(   -0.00027    0.00006    0.42142 )
      3 H    Atomic Electric Field =(   -0.02432    0.02419   -0.00739 )
                    (ion)          =(   -0.68078    0.98439    0.60698 )
                    (electronic)   =(    0.65645   -0.96020   -0.61437 )
      4 H    Atomic Electric Field =(   -0.01735   -0.02923   -0.00750 )
                    (ion)          =(   -0.51212   -1.08176    0.60698 )
                    (electronic)   =(    0.49476    1.05253   -0.61448 )
      5 H    Atomic Electric Field =(    0.03476   -0.00397   -0.00663 )
                    (ion)          =(    1.19289    0.09737    0.60698 )
                    (electronic)   =(   -1.15813   -0.10134   -0.61361 )

 output psi filename:./ch3cl.pspw.movecs


== Timing ==

cputime in seconds
  prologue    :   0.495548E-01
  main loop   :   0.229544E+00
  epilogue    :   0.472629E-01
  total       :   0.326362E+00
  cputime/step:   0.573860E-01       (       4 evalulations,       1 linesearches)


Time spent doing                        total          step
  FFTs                       :   0.729730E-01  0.182432E-01
  dot products               :   0.105120E-01  0.262799E-02
  geodesic                   :   0.965214E-02  0.241303E-02
  ffm_dgemm                  :   0.109291E-02  0.273228E-03
  fmf_dgemm                  :   0.978469E-02  0.244617E-02
  m_diagonalize              :   0.777245E-04  0.194311E-04
    - m_tredq                :   0.000000E+00  0.000000E+00
    - m_getdiags             :   0.000000E+00  0.000000E+00
    - m_tqliq                :   0.000000E+00  0.000000E+00
    - m_eigsrt               :   0.000000E+00  0.000000E+00
  exchange correlation       :   0.490077E-01  0.122519E-01
  local pseudopotentials     :   0.181820E-01  0.454551E-02
  non-local pseudopotentials :   0.220058E-01  0.550145E-02
  hartree potentials         :   0.000000E+00  0.000000E+00
  ion-ion interaction        :   0.000000E+00  0.000000E+00
  structure factors          :   0.320220E-01  0.800549E-02
  phase factors              :   0.541190E-04  0.135298E-04
  masking and packing        :   0.151017E-01  0.377542E-02
  queue fft                  :   0.217133E-01  0.542831E-02
  queue fft (serial)         :   0.151795E-01  0.379488E-02
  queue fft (message passing):   0.557677E-02  0.139419E-02
  HFX potential              :   0.000000E+00  0.000000E+00
  qmmm LJ                    :   0.000000E+00  0.000000E+00
  qmmm residual Q            :   0.000000E+00  0.000000E+00

     >>>  JOB COMPLETED     AT Tue Aug 10 08:43:41 2010  <<<

 Task  times  cpu:        0.3s     wall:        0.3s
 Summary of allocated global arrays
-----------------------------------
  No active global arrays



                         GA Statistics for process    0
                         ------------------------------

       create   destroy   get      put      acc     scatter   gather  read&inc
calls:    8        8       97       10        0        0        0        0     
number of processes/call 1.62e+00 4.00e+00 0.00e+00 0.00e+00 0.00e+00
bytes total:             2.61e+04 9.68e+03 0.00e+00 0.00e+00 0.00e+00 0.00e+00
bytes remote:            1.80e+04 7.04e+03 0.00e+00 0.00e+00 0.00e+00 0.00e+00
Max memory consumed for GA by this process: 2112 bytes
MA_summarize_allocated_blocks: starting scan ...
MA_summarize_allocated_blocks: scan completed: 0 heap blocks, 0 stack blocks
MA usage statistics:

	allocation statistics:
					      heap	     stack
					      ----	     -----
	current number of blocks	         0	         0
	maximum number of blocks	       209	        19
	current total bytes		         0	         0
	maximum total bytes		   8649360	   2170744
	maximum total K-bytes		      8650	      2171
	maximum total M-bytes		         9	         3


                                NWChem Input Module
                                -------------------





                                     CITATION
                                     --------
                Please cite the following reference when publishing
                           results obtained with NWChem:

                 M. Valiev, E.J. Bylaska, N. Govind, K. Kowalski,
              T.P. Straatsma, H.J.J. van Dam, D. Wang, J. Nieplocha,
                        E. Apra, T.L. Windus, W.A. de Jong
                 "NWChem: a comprehensive and scalable open-source
                  solution for large scale molecular simulations"
                      Comput. Phys. Commun. 181, 1477 (2010)
                           doi:10.1016/j.cpc.2010.04.018

                              AUTHORS & CONTRIBUTORS
                              ----------------------
      E. J. Bylaska, W. A. de Jong, N. Govind, K. Kowalski, T. P. Straatsma,
     M. Valiev, H. J. J. Van Dam, D. Wang, E. Apra, T. L. Windus, J. Hammond,
     J. Autschbach, P. Nichols, S. Hirata, M. T. Hackler, Y. Zhao, P.-D. Fan,
      R. J. Harrison, M. Dupuis, D. M. A. Smith, J. Nieplocha, V. Tipparaju,
          M. Krishnan, A. Vazquez-Mayagoitia, L. Jensen, M. Swart, Q. Wu,
          T. Van Voorhis, A. A. Auer, M. Nooijen, L. D. Crosby, E. Brown,
             G. Cisneros, G. I. Fann, H. Fruchtl, J. Garza, K. Hirao,
        R. Kendall, J. A. Nichols, K. Tsemekhman, K. Wolinski, J. Anchell,
       D. Bernholdt, P. Borowski, T. Clark, D. Clerc, H. Dachsel, M. Deegan,
        K. Dyall, D. Elwood, E. Glendening, M. Gutowski, A. Hess, J. Jaffe,
        B. Johnson, J. Ju, R. Kobayashi, R. Kutteh, Z. Lin, R. Littlefield,
    X. Long, B. Meng, T. Nakajima, S. Niu, L. Pollack, M. Rosing, G. Sandrone,
       M. Stave, H. Taylor, G. Thomas, J. H. van Lenthe, A. Wong, Z. Zhang.

 Total times  cpu:       21.2s     wall:       22.1s
