 argument  1 = pspw_stress.nw
                                         
                                         


              Northwest Computational Chemistry Package (NWChem) 6.0
              ------------------------------------------------------


                    Environmental Molecular Sciences Laboratory
                       Pacific Northwest National Laboratory
                                Richland, WA 99352

                              Copyright (c) 1994-2010
                       Pacific Northwest National Laboratory
                            Battelle Memorial Institute

             NWChem is an open-source computational chemistry package
                        distributed under the terms of the
                      Educational Community License (ECL) 2.0
             A copy of the license is included with this distribution
                              in the LICENSE.TXT file

                                  ACKNOWLEDGMENT
                                  --------------

            This software and its documentation were developed at the
            EMSL at Pacific Northwest National Laboratory, a multiprogram
            national laboratory, operated for the U.S. Department of Energy
            by Battelle under Contract Number DE-AC05-76RL01830. Support
            for this work was provided by the Department of Energy Office
            of Biological and Environmental Research, Office of Basic
            Energy Sciences, and the Office of Advanced Scientific Computing.


           Job information
           ---------------

    hostname      = arcen
    program       = /home/d3y133/nwchem-releases/nwchem-6.0-gfortran/bin/LINUX64/nwchem
    date          = Fri Aug  6 14:00:06 2010

    compiled      = Fri_Aug_06_13:42:42_2010
    source        = /home/d3y133/nwchem-releases/nwchem-6.0-gfortran
    nwchem branch = 6.0
    input         = pspw_stress.nw
    prefix        = SiC.stress.
    data base     = ./SiC.stress.db
    status        = startup
    nproc         =        4
    time left     =     -1s



           Memory information
           ------------------

    heap     =   13107201 doubles =    100.0 Mbytes
    stack    =   13107201 doubles =    100.0 Mbytes
    global   =   26214400 doubles =    200.0 Mbytes (distinct from heap & stack)
    total    =   52428802 doubles =    400.0 Mbytes
    verify   = yes
    hardfail = no 


           Directory information
           ---------------------

  0 permanent = .
  0 scratch   = .




                                NWChem Input Module
                                -------------------


                          testing unit cell optimization
                          ------------------------------

  !!!!!!!!!  geom_3d NEEDS TESTING !!!!!!!!!! 


                             Geometry "geometry" -> ""
                             -------------------------

 Output coordinates in a.u. (scale by  1.000000000 to convert to a.u.)

  No.       Tag          Charge          X              Y              Z
 ---- ---------------- ---------- -------------- -------------- --------------
    1 Si                  14.0000     4.13850000     4.13850000     4.13850000
    2 Si                  14.0000     0.00000000     0.00000000     4.13850000
    3 Si                  14.0000     0.00000000     4.13850000     0.00000000
    4 Si                  14.0000     4.13850000     0.00000000     0.00000000
    5 C                    6.0000     6.20775000     6.20775000     6.20775000
    6 C                    6.0000     2.06925000     2.06925000     6.20775000
    7 C                    6.0000     2.06925000     6.20775000     2.06925000
    8 C                    6.0000     6.20775000     2.06925000     2.06925000

      Lattice Parameters 
      ------------------ 

      lattice vectors in a.u. (scale by  1.000000000 to convert to a.u.)

      a1=<   8.277   0.000   0.000 >
      a2=<   0.000   8.277   0.000 >
      a3=<   0.000   0.000   8.277 >
      a=       8.277 b=      8.277 c=       8.277
      alpha=  90.000 beta=  90.000 gamma=  90.000
      omega=   567.0

      reciprocal lattice vectors in a.u.

      b1=<   0.759   0.000   0.000 >
      b2=<   0.000   0.759   0.000 >
      b3=<   0.000   0.000   0.759 >

      Atomic Mass 
      ----------- 

      Si                27.976930
      C                 12.000000


 ==============================================================================
                                internuclear distances
 ------------------------------------------------------------------------------
       center one      |      center two      | atomic units |       a.u.
 ------------------------------------------------------------------------------
    5 C                |   1 Si               |     3.58405  |     3.58405
    6 C                |   1 Si               |     3.58405  |     3.58405
    6 C                |   2 Si               |     3.58405  |     3.58405
    7 C                |   1 Si               |     3.58405  |     3.58405
    7 C                |   3 Si               |     3.58405  |     3.58405
    8 C                |   1 Si               |     3.58405  |     3.58405
    8 C                |   4 Si               |     3.58405  |     3.58405
 ------------------------------------------------------------------------------
                         number of included internuclear distances:          7
 ==============================================================================



 ==============================================================================
                                 internuclear angles
 ------------------------------------------------------------------------------
        center 1       |       center 2       |       center 3       |  degrees
 ------------------------------------------------------------------------------
    5 C                |   1 Si               |   6 C                |   109.47
    5 C                |   1 Si               |   7 C                |   109.47
    5 C                |   1 Si               |   8 C                |   109.47
    6 C                |   1 Si               |   7 C                |   109.47
    6 C                |   1 Si               |   8 C                |   109.47
    7 C                |   1 Si               |   8 C                |   109.47
    1 Si               |   6 C                |   2 Si               |   109.47
    1 Si               |   7 C                |   3 Si               |   109.47
    1 Si               |   8 C                |   4 Si               |   109.47
 ------------------------------------------------------------------------------
                            number of included internuclear angles:          9
 ==============================================================================



          ****************************************************
          *                                                  *
          *               NWPW PSPW Calculation              *
          *                                                  *
          *  [ (Grassman/Stiefel manifold implementation) ]  *
          *                                                  *
          *      [ NorthWest Chemistry implementation ]      *
          *                                                  *
          *            version #5.10   06/12/02              *
          *                                                  *
          *    This code was developed by Eric J. Bylaska,   *
          *    and was based upon algorithms and code        *
          *    developed by the group of Prof. John H. Weare *
          *                                                  *
          ****************************************************
     >>>  JOB STARTED       AT Fri Aug  6 14:00:06 2010  <<<
          ================ input data ========================
  library name resolved from: compiled reference
  NWCHEM_NWPW_LIBRARY set to: </home/d3y133/nwchem-releases/nwchem-6.0-gfortran/src/nwpw/libraryps/>
 Generating 1d pseudopotential for Si  

 Generated formatted_filename: ./Si.vpp
  library name resolved from: compiled reference
  NWCHEM_NWPW_LIBRARY set to: </home/d3y133/nwchem-releases/nwchem-6.0-gfortran/src/nwpw/libraryps/>
 Generating 1d pseudopotential for C   

 Generated formatted_filename: ./C.vpp
  library name resolved from: compiled reference
  NWCHEM_NWPW_LIBRARY set to: </home/d3y133/nwchem-releases/nwchem-6.0-gfortran/src/nwpw/libraryps/>

 Generated formatted atomic orbitals, filename: ./Si.aorb
  library name resolved from: compiled reference
  NWCHEM_NWPW_LIBRARY set to: </home/d3y133/nwchem-releases/nwchem-6.0-gfortran/src/nwpw/libraryps/>

 Generated formatted atomic orbitals, filename: ./C.aorb

 lcao guess, initial psi:SiC.stress.movecs             
 -   spin, nalpha, nbeta:                    1                   16                    0

 input psi filename:./SiC.stress.movecs

 initializing pspw_APC data structure
 ------------------------------------
 nga, ngs:                    3                   24
 Gc      :   2.50000000000000     
 APC gamma:                    1  0.600000000000000     
 APC gamma:                    2  0.900000000000000     
 APC gamma:                    3   1.35000000000000     

 number of processors used:         4
 processor grid           :   4 x   1
 parallel mapping         :      slab
 parallel mapping         :  balanced

 options:
      boundary conditions  = periodic    (version3)
      electron spin        = restricted
      exchange-correlation = LDA (Vosko et al) parameterization

 elements involved in the cluster:
      1: Si    core charge:  4.0000  lmax=  2
             comment    : Hamann pseudopotential
             pseudpotential type            :   0
             highest angular component      :   2
             local potential used           :   2
             number of non-local projections:   4
             cutoff =   1.059   1.286   1.286

      2: C     core charge:  4.0000  lmax=  2
             comment    : Parameterized (J.Phys.Chem., vol 100, page 6966) Hamman psp
             pseudpotential type            :   0
             highest angular component      :   2
             local potential used           :   2
             number of non-local projections:   4
             cutoff =   0.800   0.850   0.850


 total charge:   0.000

 atomic composition:
     Si  :  4     C   :  4

 number of electrons: spin up=    16 (  16 per task)  down=    16 (  16 per task) (fourier space)
 number of orbitals : spin up=    16 (  16 per task)  down=    16 (  16 per task) (fourier space)

 supercell:
      cell_name:  cell_default                  
      lattice:    a1=<   8.277   0.000   0.000 >
                  a2=<   0.000   8.277   0.000 >
                  a3=<   0.000   0.000   8.277 >
      reciprocal: b1=<   0.759   0.000   0.000 >
                  b2=<   0.000   0.759   0.000 >
                  b3=<   0.000   0.000   0.759 >
      lattice:    a=       8.277 b=      8.277 c=       8.277
                  alpha=  90.000 beta=  90.000 gamma=  90.000
                  omega=       567.0

      density cutoff= 18.440  fft= 16x 16x 16(     1052 waves      263 per task)
      wavefnc cutoff= 18.440  fft= 16x 16x 16(     1052 waves      263 per task)
      ewald summation: cut radius=    2.63  and  8
                        madelung= 1.76011888

 technical parameters:
      time step=      5.80     ficticious mass=  400000.0
      tolerance=.100E-06 (energy)   0.100E-06 (density)
      maximum iterations =    1000 (   10 inner  100 outer )





== Energy Calculation ==


          ============ Grassmann lmbfgs iteration ============
     >>>  ITERATION STARTED AT Fri Aug  6 14:00:09 2010  <<<
    iter.           Energy         DeltaE       DeltaRho 
    ------------------------------------------------------
     -  15 steepest descent iterations performed
      10   -0.3835150261E+02   -0.85586E-03    0.12924E-01
      20   -0.3835360240E+02   -0.80679E-05    0.33850E-04
      30   -0.3835361562E+02   -0.15680E-07    0.14719E-06
      40   -0.3835361563E+02   -0.54827E-08    0.24747E-10
  *** tolerance ok. iteration terminated
     >>>  ITERATION ENDED   AT Fri Aug  6 14:00:10 2010  <<<


==  Summary Of Results  ==

 number of electrons: spin up=   16.00000  down=   16.00000 (real space)

 total     energy    :  -0.3835361563E+02 (   -0.47942E+01/ion)
 total orbital energy:   0.4621733919E+01 (    0.28886E+00/electron)
 hartree   energy    :   0.5074238643E+01 (    0.31714E+00/electron)
 exc-corr  energy    :  -0.1221472384E+02 (   -0.76342E+00/electron)
 ion-ion   energy    :  -0.4165217770E+02 (   -0.52065E+01/ion)

 kinetic (planewave) :   0.2392885543E+02 (    0.14956E+01/electron)
 V_local (planewave) :  -0.1609684846E+02 (   -0.10061E+01/electron)
 V_nl    (planewave) :   0.2607040296E+01 (    0.16294E+00/electron)
 V_Coul  (planewave) :   0.1014847729E+02 (    0.63428E+00/electron)
 V_xc.   (planewave) :  -0.1596579064E+02 (   -0.99786E+00/electron)
 Virial Coefficient  :  -0.8068552032E+00

 orbital energies:
     0.3523749E+00 (   9.589eV)
     0.3523749E+00 (   9.589eV)
     0.3523748E+00 (   9.589eV)
     0.2299283E+00 (   6.257eV)
     0.2299281E+00 (   6.257eV)
     0.2299280E+00 (   6.257eV)
     0.2299277E+00 (   6.257eV)
     0.2299275E+00 (   6.257eV)
     0.2299275E+00 (   6.257eV)
     0.5604713E-01 (   1.525eV)
     0.5604639E-01 (   1.525eV)
     0.5604563E-01 (   1.525eV)
    -0.2570483E-01 (  -0.699eV)
    -0.2570488E-01 (  -0.699eV)
    -0.2570491E-01 (  -0.699eV)
    -0.2168492E+00 (  -5.901eV)

 Total PSPW energy   :  -0.3835361563E+02


=== Spin Contamination ===

 <Sexact^2> =    0.00000000000000     
 <S^2>      =    0.00000000000000     



== Center of Charge ==

spin up     (    0.0000,    0.0000,    0.0000 )
spin down   (    0.0000,    0.0000,    0.0000 )
     total  (    0.0000,    0.0000,    0.0000 )
ionic       (    1.0346,    1.0346,    1.0346 )
crystal     (    0.0000,    0.0000,    0.0000 )


== Crystal Dipole ==

mu   =  (    0.0000,    0.0000,    0.0000 ) au
|mu| =     0.0000 au,       0.0000 Debye


== Molecular Dipole wrt Center of Mass ==

mu   =  (   33.1080,   33.1080,   33.1080 ) au
|mu| =    57.3447 au,     145.7474 Debye

== Si.psp1   expansion coefficients ==

ATOM       S            P            D            F
Si :   0.21389E+00 -0.31100E-03



== C.psp1   expansion coefficients ==

ATOM       S            P            D            F
C  :   0.68658E+00 -0.40340E-02





 *************************************************************
 **                                                         **
 **                  PSPW Mulliken analysis                 **
 **                                                         **
 ** Population analysis algorithm devloped by Ryoichi Kawai **
 **                                                         **
 **                   Fri Aug  6 14:00                      **
 **                                                         **
 *************************************************************


== XYZ OUTPUT ==


                    8

Si            2.189999      2.189999      2.189999
Si            0.000000      0.000000      2.189999
Si            0.000000      2.189999      0.000000
Si            2.189999      0.000000      0.000000
C            -1.095000     -1.095000     -1.095000
C             1.095000      1.095000     -1.095000
C             1.095000     -1.095000      1.095000
C            -1.095000      1.095000      1.095000


 =====================================================
 | POPULATION ANALYSIS OF FILLED MOLECULAR ORBITALS  |
 =====================================================


== Using pseudoatomic orbital expansion          ==


------------------------------------------------------------------------------


*** ORBITAL=   1***  SPIN=BOTH    SUM= 0.70492E+00 E= 0.35237E+00 (   9.589eV)

NO  ATOM  L  POPULATION
                                s
 1   Si     0    0.00000    0.00000
                               px         py         pz
 1   Si     1    0.01400    0.08338   -0.04807   -0.06882
                                s
 2   Si     0    0.00000    0.00000
                               px         py         pz
 2   Si     1    0.01398    0.08323   -0.04813   -0.06882
                                s
 3   Si     0    0.00000    0.00000
                               px         py         pz
 3   Si     1    0.01399    0.08323   -0.04807   -0.06891
                                s
 4   Si     0    0.00000    0.00000
                               px         py         pz
 4   Si     1    0.01402    0.08338   -0.04813   -0.06891
                                s
 5   C      0    0.00000    0.00005
                               px         py         pz
 5   C      1    0.23600   -0.34208    0.19751    0.28279
                                s
 6   C      0    0.00000   -0.00002
                               px         py         pz
 6   C      1    0.23601   -0.34208    0.19752    0.28280
                                s
 7   C      0    0.00000   -0.00002
                               px         py         pz
 7   C      1    0.23600   -0.34208    0.19752    0.28280
                                s
 8   C      0    0.00000    0.00000
                               px         py         pz
 8   C      1    0.23601   -0.34208    0.19752    0.28280


=== DISTRIBUTION ===

     1(Si  )   0.0140     2(Si  )   0.0140     3(Si  )   0.0140     4(Si  )   0.0140
     5(C   )   0.2360     6(C   )   0.2360     7(C   )   0.2360     8(C   )   0.2360


== ANGULAR MOMENTUM POPULATIONS ===

      s         p         d         f
    0.0000    1.0000    0.0000    0.0000


------------------------------------------------------------------------------


*** ORBITAL=   2***  SPIN=BOTH    SUM= 0.70492E+00 E= 0.35237E+00 (   9.589eV)

NO  ATOM  L  POPULATION
                                s
 1   Si     0    0.00000    0.00000
                               px         py         pz
 1   Si     1    0.01399    0.00032   -0.09675    0.06803
                                s
 2   Si     0    0.00000    0.00000
                               px         py         pz
 2   Si     1    0.01400    0.00039   -0.09682    0.06802
                                s
 3   Si     0    0.00000    0.00000
                               px         py         pz
 3   Si     1    0.01399    0.00039   -0.09675    0.06804
                                s
 4   Si     0    0.00000    0.00000
                               px         py         pz
 4   Si     1    0.01400    0.00032   -0.09681    0.06804
                                s
 5   C      0    0.00000    0.00000
                               px         py         pz
 5   C      1    0.23601   -0.00147    0.39744   -0.27937
                                s
 6   C      0    0.00000   -0.00001
                               px         py         pz
 6   C      1    0.23601   -0.00147    0.39744   -0.27937
                                s
 7   C      0    0.00000    0.00002
                               px         py         pz
 7   C      1    0.23600   -0.00148    0.39744   -0.27937
                                s
 8   C      0    0.00000   -0.00002
                               px         py         pz
 8   C      1    0.23600   -0.00147    0.39744   -0.27937


=== DISTRIBUTION ===

     1(Si  )   0.0140     2(Si  )   0.0140     3(Si  )   0.0140     4(Si  )   0.0140
     5(C   )   0.2360     6(C   )   0.2360     7(C   )   0.2360     8(C   )   0.2360


== ANGULAR MOMENTUM POPULATIONS ===

      s         p         d         f
    0.0000    1.0000    0.0000    0.0000


------------------------------------------------------------------------------


*** ORBITAL=   3***  SPIN=BOTH    SUM= 0.70492E+00 E= 0.35237E+00 (   9.589eV)

NO  ATOM  L  POPULATION
                                s
 1   Si     0    0.00000    0.00000
                               px         py         pz
 1   Si     1    0.01399    0.08393    0.04812    0.06805
                                s
 2   Si     0    0.00000    0.00000
                               px         py         pz
 2   Si     1    0.01401    0.08407    0.04811    0.06805
                                s
 3   Si     0    0.00000    0.00000
                               px         py         pz
 3   Si     1    0.01400    0.08407    0.04812    0.06796
                                s
 4   Si     0    0.00000    0.00000
                               px         py         pz
 4   Si     1    0.01398    0.08393    0.04811    0.06796
                                s
 5   C      0    0.00000   -0.00001
                               px         py         pz
 5   C      1    0.23601   -0.34494   -0.19757   -0.27926
                                s
 6   C      0    0.00000    0.00003
                               px         py         pz
 6   C      1    0.23600   -0.34494   -0.19757   -0.27926
                                s
 7   C      0    0.00000    0.00001
                               px         py         pz
 7   C      1    0.23601   -0.34494   -0.19757   -0.27926
                                s
 8   C      0    0.00000   -0.00003
                               px         py         pz
 8   C      1    0.23600   -0.34494   -0.19758   -0.27926


=== DISTRIBUTION ===

     1(Si  )   0.0140     2(Si  )   0.0140     3(Si  )   0.0140     4(Si  )   0.0140
     5(C   )   0.2360     6(C   )   0.2360     7(C   )   0.2360     8(C   )   0.2360


== ANGULAR MOMENTUM POPULATIONS ===

      s         p         d         f
    0.0000    1.0000    0.0000    0.0000


------------------------------------------------------------------------------


*** ORBITAL=   4***  SPIN=BOTH    SUM= 0.13416E+01 E= 0.22993E+00 (   6.257eV)

NO  ATOM  L  POPULATION
                                s
 1   Si     0    0.00000    0.00000
                               px         py         pz
 1   Si     1    0.10705   -0.27116    0.12158   -0.13688
                                s
 2   Si     0    0.00000    0.00000
                               px         py         pz
 2   Si     1    0.04602   -0.15492   -0.05730    0.13688
                                s
 3   Si     0    0.00000    0.00000
                               px         py         pz
 3   Si     1    0.10764    0.15491   -0.12158   -0.26241
                                s
 4   Si     0    0.00000    0.00000
                               px         py         pz
 4   Si     1    0.14568    0.27117    0.05731    0.26242
                                s
 5   C      0    0.00000    0.00000
                               px         py         pz
 5   C      1    0.07540    0.20245    0.18162   -0.03785
                                s
 6   C      0    0.00000   -0.00001
                               px         py         pz
 6   C      1    0.19103   -0.28014    0.33334    0.03785
                                s
 7   C      0    0.00000    0.00000
                               px         py         pz
 7   C      1    0.14327    0.28014   -0.18162    0.17835
                                s
 8   C      0    0.00000    0.00001
                               px         py         pz
 8   C      1    0.18391   -0.20245   -0.33334   -0.17835


=== DISTRIBUTION ===

     1(Si  )   0.1070     2(Si  )   0.0460     3(Si  )   0.1076     4(Si  )   0.1457
     5(C   )   0.0754     6(C   )   0.1910     7(C   )   0.1433     8(C   )   0.1839


== ANGULAR MOMENTUM POPULATIONS ===

      s         p         d         f
    0.0000    1.0000    0.0000    0.0000


------------------------------------------------------------------------------


*** ORBITAL=   5***  SPIN=BOTH    SUM= 0.13416E+01 E= 0.22993E+00 (   6.257eV)

NO  ATOM  L  POPULATION
                                s
 1   Si     0    0.00000    0.00000
                               px         py         pz
 1   Si     1    0.14410   -0.16651   -0.30201    0.15866
                                s
 2   Si     0    0.00000    0.00000
                               px         py         pz
 2   Si     1    0.06226    0.18513   -0.05311   -0.15865
                                s
 3   Si     0    0.00000    0.00000
                               px         py         pz
 3   Si     1    0.14748   -0.18513    0.30200   -0.14831
                                s
 4   Si     0    0.00000    0.00000
                               px         py         pz
 4   Si     1    0.05254    0.16651    0.05311    0.14831
                                s
 5   C      0    0.00000    0.00000
                               px         py         pz
 5   C      1    0.21382    0.20834   -0.19675    0.36290
                                s
 6   C      0    0.00000    0.00000
                               px         py         pz
 6   C      1    0.21083    0.22085    0.17424   -0.36290
                                s
 7   C      0    0.00000    0.00000
                               px         py         pz
 7   C      1    0.09134   -0.22085    0.19675    0.06209
                                s
 8   C      0    0.00000    0.00000
                               px         py         pz
 8   C      1    0.07762   -0.20834   -0.17424   -0.06209


=== DISTRIBUTION ===

     1(Si  )   0.1441     2(Si  )   0.0623     3(Si  )   0.1475     4(Si  )   0.0525
     5(C   )   0.2138     6(C   )   0.2108     7(C   )   0.0913     8(C   )   0.0776


== ANGULAR MOMENTUM POPULATIONS ===

      s         p         d         f
    0.0000    1.0000    0.0000    0.0000


------------------------------------------------------------------------------


*** ORBITAL=   6***  SPIN=BOTH    SUM= 0.13416E+01 E= 0.22993E+00 (   6.257eV)

NO  ATOM  L  POPULATION
                                s
 1   Si     0    0.00000    0.00000
                               px         py         pz
 1   Si     1    0.16136   -0.06447    0.30915    0.24826
                                s
 2   Si     0    0.00000    0.00000
                               px         py         pz
 2   Si     1    0.10242    0.20035   -0.02541   -0.24825
                                s
 3   Si     0    0.00000    0.00000
                               px         py         pz
 3   Si     1    0.13676   -0.20035   -0.30915   -0.03237
                                s
 4   Si     0    0.00000    0.00000
                               px         py         pz
 4   Si     1    0.00585    0.06447    0.02541    0.03236
                                s
 5   C      0    0.00000    0.00000
                               px         py         pz
 5   C      1    0.15628   -0.30192   -0.25169   -0.04215
                                s
 6   C      0    0.00000    0.00000
                               px         py         pz
 6   C      1    0.01111   -0.04100    0.08747    0.04215
                                s
 7   C      0    0.00000    0.00000
                               px         py         pz
 7   C      1    0.19622    0.04100    0.25169    0.36220
                                s
 8   C      0    0.00000    0.00000
                               px         py         pz
 8   C      1    0.23000    0.30192   -0.08747   -0.36220


=== DISTRIBUTION ===

     1(Si  )   0.1614     2(Si  )   0.1024     3(Si  )   0.1368     4(Si  )   0.0058
     5(C   )   0.1563     6(C   )   0.0111     7(C   )   0.1962     8(C   )   0.2300


== ANGULAR MOMENTUM POPULATIONS ===

      s         p         d         f
    0.0000    1.0000    0.0000    0.0000


------------------------------------------------------------------------------


*** ORBITAL=   7***  SPIN=BOTH    SUM= 0.13416E+01 E= 0.22993E+00 (   6.257eV)

NO  ATOM  L  POPULATION
                                s
 1   Si     0    0.00000    0.00000
                               px         py         pz
 1   Si     1    0.04679    0.15497   -0.01293    0.15036
                                s
 2   Si     0    0.00000    0.00000
                               px         py         pz
 2   Si     1    0.12200   -0.11796    0.29237   -0.15034
                                s
 3   Si     0    0.00000    0.00000
                               px         py         pz
 3   Si     1    0.07110    0.11796    0.01294   -0.23878
                                s
 4   Si     0    0.00000    0.00000
                               px         py         pz
 4   Si     1    0.16650   -0.15498   -0.29237    0.23876
                                s
 5   C      0    0.00000    0.00000
                               px         py         pz
 5   C      1    0.08002   -0.11543   -0.25751    0.01956
                                s
 6   C      0    0.00000    0.00000
                               px         py         pz
 6   C      1    0.09507   -0.22229    0.21278   -0.01956
                                s
 7   C      0    0.00000    0.00001
                               px         py         pz
 7   C      1    0.23783    0.22229    0.25751   -0.34943
                                s
 8   C      0    0.00000    0.00000
                               px         py         pz
 8   C      1    0.18070    0.11543   -0.21278    0.34943


=== DISTRIBUTION ===

     1(Si  )   0.0468     2(Si  )   0.1220     3(Si  )   0.0711     4(Si  )   0.1665
     5(C   )   0.0800     6(C   )   0.0951     7(C   )   0.2378     8(C   )   0.1807


== ANGULAR MOMENTUM POPULATIONS ===

      s         p         d         f
    0.0000    1.0000    0.0000    0.0000


------------------------------------------------------------------------------


*** ORBITAL=   8***  SPIN=BOTH    SUM= 0.13416E+01 E= 0.22993E+00 (   6.257eV)

NO  ATOM  L  POPULATION
                                s
 1   Si     0    0.00000    0.00000
                               px         py         pz
 1   Si     1    0.05680   -0.16035    0.01766   -0.17543
                                s
 2   Si     0    0.00000    0.00000
                               px         py         pz
 2   Si     1    0.17047    0.19239    0.32044    0.17542
                                s
 3   Si     0    0.00000    0.00000
                               px         py         pz
 3   Si     1    0.04403   -0.19240   -0.01765    0.08184
                                s
 4   Si     0    0.00000    0.00000
                               px         py         pz
 4   Si     1    0.13509    0.16036   -0.32044   -0.08182
                                s
 5   C      0    0.00000    0.00000
                               px         py         pz
 5   C      1    0.19728   -0.14775    0.13610    0.39614
                                s
 6   C      0    0.00000    0.00000
                               px         py         pz
 6   C      1    0.25554   -0.26087   -0.17482   -0.39614
                                s
 7   C      0    0.00000    0.00000
                               px         py         pz
 7   C      1    0.08749    0.26087   -0.13610    0.03020
                                s
 8   C      0    0.00000    0.00000
                               px         py         pz
 8   C      1    0.05330    0.14775    0.17482   -0.03020


=== DISTRIBUTION ===

     1(Si  )   0.0568     2(Si  )   0.1705     3(Si  )   0.0440     4(Si  )   0.1351
     5(C   )   0.1973     6(C   )   0.2555     7(C   )   0.0875     8(C   )   0.0533


== ANGULAR MOMENTUM POPULATIONS ===

      s         p         d         f
    0.0000    1.0000    0.0000    0.0000


------------------------------------------------------------------------------


*** ORBITAL=   9***  SPIN=BOTH    SUM= 0.13416E+01 E= 0.22993E+00 (   6.257eV)

NO  ATOM  L  POPULATION
                                s
 1   Si     0    0.00000    0.00000
                               px         py         pz
 1   Si     1    0.09348   -0.21921   -0.03398    0.21042
                                s
 2   Si     0    0.00000    0.00000
                               px         py         pz
 2   Si     1    0.10640   -0.23205    0.09100   -0.21042
                                s
 3   Si     0    0.00000    0.00000
                               px         py         pz
 3   Si     1    0.10259    0.23206    0.03398    0.21813
                                s
 4   Si     0    0.00000    0.00000
                               px         py         pz
 4   Si     1    0.10391    0.21920   -0.09099   -0.21814
                                s
 5   C      0    0.00000    0.00001
                               px         py         pz
 5   C      1    0.16762   -0.29343    0.27736    0.06776
                                s
 6   C      0    0.00000   -0.00001
                               px         py         pz
 6   C      1    0.12684    0.22452    0.26803   -0.06775
                                s
 7   C      0    0.00000   -0.00001
                               px         py         pz
 7   C      1    0.13427   -0.22452   -0.27736   -0.08329
                                s
 8   C      0    0.00000    0.00000
                               px         py         pz
 8   C      1    0.16488    0.29343   -0.26803    0.08329


=== DISTRIBUTION ===

     1(Si  )   0.0935     2(Si  )   0.1064     3(Si  )   0.1026     4(Si  )   0.1039
     5(C   )   0.1676     6(C   )   0.1268     7(C   )   0.1343     8(C   )   0.1649


== ANGULAR MOMENTUM POPULATIONS ===

      s         p         d         f
    0.0000    1.0000    0.0000    0.0000


------------------------------------------------------------------------------


*** ORBITAL=  10***  SPIN=BOTH    SUM= 0.18283E+01 E= 0.56047E-01 (   1.525eV)

NO  ATOM  L  POPULATION
                                s
 1   Si     0    0.14169   -0.37642
                               px         py         pz
 1   Si     1    0.00000    0.00000    0.00000    0.00000
                                s
 2   Si     0    0.00008    0.00900
                               px         py         pz
 2   Si     1    0.00000    0.00000    0.00000    0.00000
                                s
 3   Si     0    0.12761    0.35723
                               px         py         pz
 3   Si     1    0.00000    0.00000    0.00000    0.00000
                                s
 4   Si     0    0.00010    0.01018
                               px         py         pz
 4   Si     1    0.00000    0.00000    0.00000    0.00000
                                s
 5   C      0    0.00000    0.00000
                               px         py         pz
 5   C      1    0.18263   -0.30149   -0.01580   -0.30246
                                s
 6   C      0    0.00000    0.00000
                               px         py         pz
 6   C      1    0.18263    0.30149    0.01580   -0.30246
                                s
 7   C      0    0.00000    0.00000
                               px         py         pz
 7   C      1    0.18263    0.30149   -0.01580    0.30246
                                s
 8   C      0    0.00000    0.00000
                               px         py         pz
 8   C      1    0.18263   -0.30149    0.01580    0.30246


=== DISTRIBUTION ===

     1(Si  )   0.1417     2(Si  )   0.0001     3(Si  )   0.1276     4(Si  )   0.0001
     5(C   )   0.1826     6(C   )   0.1826     7(C   )   0.1826     8(C   )   0.1826


== ANGULAR MOMENTUM POPULATIONS ===

      s         p         d         f
    0.2695    0.7305    0.0000    0.0000


------------------------------------------------------------------------------


*** ORBITAL=  11***  SPIN=BOTH    SUM= 0.18283E+01 E= 0.56046E-01 (   1.525eV)

NO  ATOM  L  POPULATION
                                s
 1   Si     0    0.05979   -0.24453
                               px         py         pz
 1   Si     1    0.00000    0.00000    0.00000    0.00000
                                s
 2   Si     0    0.04899    0.22135
                               px         py         pz
 2   Si     1    0.00000    0.00000    0.00000    0.00000
                                s
 3   Si     0    0.07379   -0.27165
                               px         py         pz
 3   Si     1    0.00000    0.00000    0.00000    0.00000
                                s
 4   Si     0    0.08691    0.29480
                               px         py         pz
 4   Si     1    0.00000    0.00000    0.00000    0.00000
                                s
 5   C      0    0.00000   -0.00001
                               px         py         pz
 5   C      1    0.18263    0.04140   -0.42491   -0.01907
                                s
 6   C      0    0.00000   -0.00001
                               px         py         pz
 6   C      1    0.18263   -0.04140    0.42491   -0.01907
                                s
 7   C      0    0.00000    0.00000
                               px         py         pz
 7   C      1    0.18263   -0.04140   -0.42491    0.01907
                                s
 8   C      0    0.00000    0.00000
                               px         py         pz
 8   C      1    0.18263    0.04140    0.42491    0.01907


=== DISTRIBUTION ===

     1(Si  )   0.0598     2(Si  )   0.0490     3(Si  )   0.0738     4(Si  )   0.0869
     5(C   )   0.1826     6(C   )   0.1826     7(C   )   0.1826     8(C   )   0.1826


== ANGULAR MOMENTUM POPULATIONS ===

      s         p         d         f
    0.2695    0.7305    0.0000    0.0000


------------------------------------------------------------------------------


*** ORBITAL=  12***  SPIN=BOTH    SUM= 0.18283E+01 E= 0.56046E-01 (   1.525eV)

NO  ATOM  L  POPULATION
                                s
 1   Si     0    0.00063   -0.02520
                               px         py         pz
 1   Si     1    0.00000    0.00000   -0.00001    0.00000
                                s
 2   Si     0    0.15304    0.39120
                               px         py         pz
 2   Si     1    0.00000    0.00000    0.00001    0.00000
                                s
 3   Si     0    0.00071   -0.02674
                               px         py         pz
 3   Si     1    0.00000    0.00000   -0.00001    0.00000
                                s
 4   Si     0    0.11510   -0.33927
                               px         py         pz
 4   Si     1    0.00000    0.00000    0.00001    0.00000
                                s
 5   C      0    0.00000    0.00000
                               px         py         pz
 5   C      1    0.18263   -0.30003   -0.04275    0.30130
                                s
 6   C      0    0.00000    0.00000
                               px         py         pz
 6   C      1    0.18263    0.30003    0.04275    0.30130
                                s
 7   C      0    0.00000    0.00000
                               px         py         pz
 7   C      1    0.18263    0.30003   -0.04275   -0.30130
                                s
 8   C      0    0.00000   -0.00001
                               px         py         pz
 8   C      1    0.18263   -0.30003    0.04275   -0.30130


=== DISTRIBUTION ===

     1(Si  )   0.0006     2(Si  )   0.1530     3(Si  )   0.0007     4(Si  )   0.1151
     5(C   )   0.1826     6(C   )   0.1826     7(C   )   0.1826     8(C   )   0.1826


== ANGULAR MOMENTUM POPULATIONS ===

      s         p         d         f
    0.2695    0.7305    0.0000    0.0000


------------------------------------------------------------------------------


*** ORBITAL=  13***  SPIN=BOTH    SUM= 0.25254E+01 E=-0.25705E-01 (  -0.699eV)

NO  ATOM  L  POPULATION
                                s
 1   Si     0    0.00000    0.00000
                               px         py         pz
 1   Si     1    0.17134   -0.27734    0.24631    0.18372
                                s
 2   Si     0    0.00000    0.00000
                               px         py         pz
 2   Si     1    0.17135    0.27735   -0.24631    0.18373
                                s
 3   Si     0    0.00000    0.00000
                               px         py         pz
 3   Si     1    0.17134    0.27734    0.24631   -0.18373
                                s
 4   Si     0    0.00000    0.00000
                               px         py         pz
 4   Si     1    0.17135   -0.27735   -0.24632   -0.18373
                                s
 5   C      0    0.01070   -0.10346
                               px         py         pz
 5   C      1    0.00000    0.00000    0.00000    0.00000
                                s
 6   C      0    0.02117   -0.14550
                               px         py         pz
 6   C      1    0.00000    0.00000    0.00000    0.00000
                                s
 7   C      0    0.05304   -0.23031
                               px         py         pz
 7   C      1    0.00000    0.00000    0.00000    0.00000
                                s
 8   C      0    0.22970    0.47927
                               px         py         pz
 8   C      1    0.00000    0.00000    0.00000    0.00000


=== DISTRIBUTION ===

     1(Si  )   0.1713     2(Si  )   0.1713     3(Si  )   0.1713     4(Si  )   0.1713
     5(C   )   0.0107     6(C   )   0.0212     7(C   )   0.0530     8(C   )   0.2297


== ANGULAR MOMENTUM POPULATIONS ===

      s         p         d         f
    0.3146    0.6854    0.0000    0.0000


------------------------------------------------------------------------------


*** ORBITAL=  14***  SPIN=BOTH    SUM= 0.25254E+01 E=-0.25705E-01 (  -0.699eV)

NO  ATOM  L  POPULATION
                                s
 1   Si     0    0.00000    0.00000
                               px         py         pz
 1   Si     1    0.17134   -0.03977    0.21664   -0.35047
                                s
 2   Si     0    0.00000    0.00000
                               px         py         pz
 2   Si     1    0.17135    0.03977   -0.21664   -0.35048
                                s
 3   Si     0    0.00000    0.00000
                               px         py         pz
 3   Si     1    0.17134    0.03977    0.21664    0.35047
                                s
 4   Si     0    0.00000    0.00000
                               px         py         pz
 4   Si     1    0.17135   -0.03977   -0.21664    0.35048
                                s
 5   C      0    0.01383    0.11762
                               px         py         pz
 5   C      1    0.00000    0.00000    0.00000    0.00000
                                s
 6   C      0    0.12766    0.35729
                               px         py         pz
 6   C      1    0.00000    0.00000    0.00001    0.00000
                                s
 7   C      0    0.16906   -0.41117
                               px         py         pz
 7   C      1    0.00000    0.00000    0.00000    0.00000
                                s
 8   C      0    0.00406   -0.06373
                               px         py         pz
 8   C      1    0.00000    0.00000    0.00000    0.00000


=== DISTRIBUTION ===

     1(Si  )   0.1713     2(Si  )   0.1713     3(Si  )   0.1713     4(Si  )   0.1713
     5(C   )   0.0138     6(C   )   0.1277     7(C   )   0.1691     8(C   )   0.0041


== ANGULAR MOMENTUM POPULATIONS ===

      s         p         d         f
    0.3146    0.6854    0.0000    0.0000


------------------------------------------------------------------------------


*** ORBITAL=  15***  SPIN=BOTH    SUM= 0.25254E+01 E=-0.25705E-01 (  -0.699eV)

NO  ATOM  L  POPULATION
                                s
 1   Si     0    0.00000    0.00000
                               px         py         pz
 1   Si     1    0.17134    0.30470    0.25247    0.12149
                                s
 2   Si     0    0.00000    0.00000
                               px         py         pz
 2   Si     1    0.17135   -0.30471   -0.25247    0.12149
                                s
 3   Si     0    0.00000    0.00000
                               px         py         pz
 3   Si     1    0.17134   -0.30470    0.25247   -0.12149
                                s
 4   Si     0    0.00000    0.00000
                               px         py         pz
 4   Si     1    0.17135    0.30471   -0.25247   -0.12149
                                s
 5   C      0    0.21143   -0.45981
                               px         py         pz
 5   C      1    0.00000    0.00000    0.00001    0.00000
                                s
 6   C      0    0.08714    0.29519
                               px         py         pz
 6   C      1    0.00000    0.00000    0.00000    0.00000
                                s
 7   C      0    0.01385    0.11770
                               px         py         pz
 7   C      1    0.00000    0.00000    0.00000    0.00000
                                s
 8   C      0    0.00220    0.04692
                               px         py         pz
 8   C      1    0.00000    0.00000    0.00000    0.00000


=== DISTRIBUTION ===

     1(Si  )   0.1713     2(Si  )   0.1713     3(Si  )   0.1713     4(Si  )   0.1713
     5(C   )   0.2114     6(C   )   0.0871     7(C   )   0.0139     8(C   )   0.0022


== ANGULAR MOMENTUM POPULATIONS ===

      s         p         d         f
    0.3146    0.6854    0.0000    0.0000


------------------------------------------------------------------------------


*** ORBITAL=  16***  SPIN=BOTH    SUM= 0.34619E+01 E=-0.21685E+00 (  -5.901eV)

NO  ATOM  L  POPULATION
                                s
 1   Si     0    0.15164    0.38941
                               px         py         pz
 1   Si     1    0.00000    0.00000    0.00000    0.00000
                                s
 2   Si     0    0.15164    0.38941
                               px         py         pz
 2   Si     1    0.00000    0.00000    0.00000    0.00000
                                s
 3   Si     0    0.15164    0.38941
                               px         py         pz
 3   Si     1    0.00000    0.00000    0.00000    0.00000
                                s
 4   Si     0    0.15164    0.38941
                               px         py         pz
 4   Si     1    0.00000    0.00000    0.00000    0.00000
                                s
 5   C      0    0.09836    0.31362
                               px         py         pz
 5   C      1    0.00000    0.00000    0.00000    0.00000
                                s
 6   C      0    0.09836    0.31362
                               px         py         pz
 6   C      1    0.00000    0.00000    0.00000    0.00000
                                s
 7   C      0    0.09836    0.31362
                               px         py         pz
 7   C      1    0.00000    0.00000    0.00000    0.00000
                                s
 8   C      0    0.09836    0.31362
                               px         py         pz
 8   C      1    0.00000    0.00000    0.00000    0.00000


=== DISTRIBUTION ===

     1(Si  )   0.1516     2(Si  )   0.1516     3(Si  )   0.1516     4(Si  )   0.1516
     5(C   )   0.0984     6(C   )   0.0984     7(C   )   0.0984     8(C   )   0.0984


== ANGULAR MOMENTUM POPULATIONS ===

      s         p         d         f
    1.0000    0.0000    0.0000    0.0000


 ========================================
 |   POPULATION ANALYSIS ON EACH ATOM   |
 ========================================


NO  ATOM  SPIN    TOTAL       s          p          d          f
 1   Si     UP      1.51936    0.35376    1.16560
 1   Si     DOWN    1.51936    0.35376    1.16560
 2   Si     UP      1.51936    0.35376    1.16560
 2   Si     DOWN    1.51936    0.35376    1.16560
 3   Si     UP      1.51936    0.35376    1.16560
 3   Si     DOWN    1.51936    0.35376    1.16560
 4   Si     UP      1.51938    0.35376    1.16562
 4   Si     DOWN    1.51938    0.35376    1.16562
 5   C      UP      2.48063    0.33432    2.14631
 5   C      DOWN    2.48063    0.33432    2.14631
 6   C      UP      2.48064    0.33432    2.14632
 6   C      DOWN    2.48064    0.33432    2.14632
 7   C      UP      2.48064    0.33432    2.14632
 7   C      DOWN    2.48064    0.33432    2.14632
 8   C      UP      2.48064    0.33432    2.14632
 8   C      DOWN    2.48064    0.33432    2.14632



=== TOTAL ANGULAR MOMENTUM POPULATION ===

 SPIN       s           p           d           f
  UP       17.20%      82.80%       0.00%       0.00% 
  UP       17.20%      82.80%       0.00%       0.00% 
 TOTAL     17.20%      82.80%       0.00%       0.00% 

 *************************************************************
 **                                                         **
 **          PSPW Atomic Point Charge (APC) Analysis        **
 **                                                         **
 **   Point charge analysis based on paper by P.E. Blochl   **
 **         (J. Chem. Phys. vol 103, page 7422, 1995)       **
 **                                                         **
 *************************************************************

 pspw_APC data structure
 -----------------------
 nga, ngs:                    3                   24
 Gc      :   2.50000000000000     
 APC gamma:                    1  0.600000000000000     
 APC gamma:                    2  0.900000000000000     
 APC gamma:                    3   1.35000000000000     

 charge analysis on each atom
 ----------------------------

    no  atom        Qelc        Qion      Qtotal
    --  ----     -------     -------     -------
     1  Si        -4.211       4.000      -0.211
     2  Si        -4.578       4.000      -0.578
     3  Si        -5.047       4.000      -1.047
     4  Si        -6.070       4.000      -2.070
     5  C         -9.031       4.000      -5.031
     6  C          2.813       4.000       6.813
     7  C         -2.969       4.000       1.031
     8  C         -2.406       4.000       1.594
     Total Q     -31.500      32.000       0.500


 gaussian coefficients of model density
 --------------------------------------

    no  atom     g=0.000     g=0.600     g=0.900     g=1.350
    --  ----     -------     -------     -------     -------
     1  Si         4.000       9.867     -12.281      -1.797
     2  Si         4.000       5.297      -3.969      -5.906
     3  Si         4.000      -2.984      10.906     -12.969
     4  Si         4.000     -18.242      38.188     -26.016
     5  C          4.000     -99.594     176.563     -86.000
     6  C          4.000      90.938    -166.500      78.375
     7  C          4.000      -4.656       5.000      -3.313
     8  C          4.000       6.156     -14.688       6.125


=== Electric Field at Atoms ===

      1 Si   Atomic Electric Field =(    0.00000    0.00000    0.00000 )
                    (ion)          =(    0.00000    0.00000    0.00000 )
                    (electronic)   =(    0.00000    0.00000    0.00000 )
      2 Si   Atomic Electric Field =(    0.00000    0.00000    0.00000 )
                    (ion)          =(    0.00000    0.00000    0.00000 )
                    (electronic)   =(    0.00000    0.00000    0.00000 )
      3 Si   Atomic Electric Field =(    0.00000    0.00000    0.00000 )
                    (ion)          =(    0.00000    0.00000    0.00000 )
                    (electronic)   =(    0.00000    0.00000    0.00000 )
      4 Si   Atomic Electric Field =(    0.00000    0.00000    0.00000 )
                    (ion)          =(    0.00000    0.00000    0.00000 )
                    (electronic)   =(    0.00000    0.00000    0.00000 )
      5 C    Atomic Electric Field =(    0.00003   -0.00003   -0.00003 )
                    (ion)          =(    0.00000    0.00000    0.00000 )
                    (electronic)   =(    0.00003   -0.00003   -0.00003 )
      6 C    Atomic Electric Field =(    0.00001    0.00003    0.00002 )
                    (ion)          =(    0.00000    0.00000    0.00000 )
                    (electronic)   =(    0.00001    0.00003    0.00002 )
      7 C    Atomic Electric Field =(   -0.00001   -0.00001    0.00003 )
                    (ion)          =(    0.00000    0.00000    0.00000 )
                    (electronic)   =(   -0.00001   -0.00001    0.00003 )
      8 C    Atomic Electric Field =(   -0.00002    0.00001   -0.00002 )
                    (ion)          =(    0.00000    0.00000    0.00000 )
                    (electronic)   =(   -0.00002    0.00001   -0.00002 )

 output psi filename:./SiC.stress.movecs


== Timing ==

cputime in seconds
  prologue    :   0.334466E+01
  main loop   :   0.589762E+00
  epilogue    :   0.660441E-01
  total       :   0.400046E+01
  cputime/step:   0.685770E-02       (      86 evalulations,      31 linesearches)


Time spent doing                        total          step
  FFTs                       :   0.131398E+00  0.152788E-02
  dot products               :   0.107984E+00  0.125563E-02
  geodesic                   :   0.142290E+00  0.165453E-02
  ffm_dgemm                  :   0.253566E-01  0.294844E-03
  fmf_dgemm                  :   0.106337E+00  0.123647E-02
  m_diagonalize              :   0.280473E-02  0.326132E-04
    - m_tredq                :   0.000000E+00  0.000000E+00
    - m_getdiags             :   0.000000E+00  0.000000E+00
    - m_tqliq                :   0.000000E+00  0.000000E+00
    - m_eigsrt               :   0.000000E+00  0.000000E+00
  exchange correlation       :   0.402977E-01  0.468578E-03
  local pseudopotentials     :   0.123978E-03  0.144160E-05
  non-local pseudopotentials :   0.138434E+00  0.160970E-02
  hartree potentials         :   0.226852E-02  0.263781E-04
  ion-ion interaction        :   0.755711E-01  0.878733E-03
  structure factors          :   0.700296E+00  0.814298E-02
  phase factors              :   0.879765E-04  0.102298E-05
  masking and packing        :   0.546517E+00  0.635485E-02
  queue fft                  :   0.124849E+00  0.145173E-02
  queue fft (serial)         :   0.766260E-01  0.891000E-03
  queue fft (message passing):   0.418338E-01  0.486440E-03
  HFX potential              :   0.000000E+00  0.000000E+00
  qmmm LJ                    :   0.000000E+00  0.000000E+00
  qmmm residual Q            :   0.000000E+00  0.000000E+00

     >>>  JOB COMPLETED     AT Fri Aug  6 14:00:10 2010  <<<

 Task  times  cpu:        4.0s     wall:        4.0s


                                NWChem Input Module
                                -------------------



  Deleted DRIVER restart files 



                           NWChem Geometry Optimization
                           ----------------------------




                          testing unit cell optimization


 maximum gradient threshold         (gmax) =   0.000450
 rms gradient threshold             (grms) =   0.000300
 maximum cartesian step threshold   (xmax) =   0.001800
 rms cartesian step threshold       (xrms) =   0.001200
 fixed trust radius                (trust) =   0.300000
 maximum step size to saddle      (sadstp) =   0.100000
 energy precision                  (eprec) =   1.0D-07
 maximum number of steps          (nptopt) =   20
 initial hessian option           (inhess) =    0
 line search option               (linopt) =    1
 hessian update option            (modupd) =    1
 saddle point option              (modsad) =    0
 initial eigen-mode to follow     (moddir) =    0
 initial variable to follow       (vardir) =    0
 follow first negative mode     (firstneg) =    T
 apply conjugacy                    (opcg) =    F
 source of zmatrix                         =           


          -------------------
          Energy Minimization
          -------------------

  INCLUDING STRESS !!!!!!!!!!!!!!!!

 Using diagonal initial Hessian 
  The initial hessian 

              1        2        3        4        5        6        7        8
    1   34.2544   0.0000   0.0000   0.0000   0.0000   0.0000   0.0000   0.0000
    2    0.0000  34.2544   0.0000   0.0000   0.0000   0.0000   0.0000   0.0000
    3    0.0000   0.0000  34.2544   0.0000   0.0000   0.0000   0.0000   0.0000
    4    0.0000   0.0000   0.0000  34.2544   0.0000   0.0000   0.0000   0.0000
    5    0.0000   0.0000   0.0000   0.0000  34.2544   0.0000   0.0000   0.0000
    6    0.0000   0.0000   0.0000   0.0000   0.0000  34.2544   0.0000   0.0000
    7    0.0000   0.0000   0.0000   0.0000   0.0000   0.0000  34.2544   0.0000
    8    0.0000   0.0000   0.0000   0.0000   0.0000   0.0000   0.0000  34.2544

              9       10       11       12       13       14       15       16
    9   34.2544   0.0000   0.0000   0.0000   0.0000   0.0000   0.0000   0.0000
   10    0.0000  34.2544   0.0000   0.0000   0.0000   0.0000   0.0000   0.0000
   11    0.0000   0.0000  34.2544   0.0000   0.0000   0.0000   0.0000   0.0000
   12    0.0000   0.0000   0.0000  34.2544   0.0000   0.0000   0.0000   0.0000
   13    0.0000   0.0000   0.0000   0.0000  34.2544   0.0000   0.0000   0.0000
   14    0.0000   0.0000   0.0000   0.0000   0.0000  34.2544   0.0000   0.0000
   15    0.0000   0.0000   0.0000   0.0000   0.0000   0.0000  34.2544   0.0000
   16    0.0000   0.0000   0.0000   0.0000   0.0000   0.0000   0.0000  34.2544

             17       18       19       20       21       22       23       24
   17   34.2544   0.0000   0.0000   0.0000   0.0000   0.0000   0.0000   0.0000
   18    0.0000  34.2544   0.0000   0.0000   0.0000   0.0000   0.0000   0.0000
   19    0.0000   0.0000  34.2544   0.0000   0.0000   0.0000   0.0000   0.0000
   20    0.0000   0.0000   0.0000  34.2544   0.0000   0.0000   0.0000   0.0000
   21    0.0000   0.0000   0.0000   0.0000  34.2544   0.0000   0.0000   0.0000
   22    0.0000   0.0000   0.0000   0.0000   0.0000  34.2544   0.0000   0.0000
   23    0.0000   0.0000   0.0000   0.0000   0.0000   0.0000  34.2544   0.0000
   24    0.0000   0.0000   0.0000   0.0000   0.0000   0.0000   0.0000  34.2544

             25       26       27       28       29       30       31       32
   25    0.5000   0.0000   0.0000   0.0000   0.0000   0.0000   0.0000   0.0000
   26    0.0000   0.5000   0.0000   0.0000   0.0000   0.0000   0.0000   0.0000
   27    0.0000   0.0000   0.5000   0.0000   0.0000   0.0000   0.0000   0.0000
   28    0.0000   0.0000   0.0000   0.5000   0.0000   0.0000   0.0000   0.0000
   29    0.0000   0.0000   0.0000   0.0000   0.5000   0.0000   0.0000   0.0000
   30    0.0000   0.0000   0.0000   0.0000   0.0000   0.5000   0.0000   0.0000
   31    0.0000   0.0000   0.0000   0.0000   0.0000   0.0000   0.5000   0.0000
   32    0.0000   0.0000   0.0000   0.0000   0.0000   0.0000   0.0000   0.5000

             33      
   33    0.5000

          --------
          Step   0
          --------


                         Geometry "geometry" -> "geometry"
                         ---------------------------------

 Output coordinates in a.u. (scale by  1.000000000 to convert to a.u.)

  No.       Tag          Charge          X              Y              Z
 ---- ---------------- ---------- -------------- -------------- --------------
    1 Si                  14.0000     4.13850000     4.13850000     4.13850000
    2 Si                  14.0000     0.00000000     0.00000000     4.13850000
    3 Si                  14.0000     0.00000000     4.13850000     0.00000000
    4 Si                  14.0000     4.13850000     0.00000000     0.00000000
    5 C                    6.0000     6.20775000     6.20775000     6.20775000
    6 C                    6.0000     2.06925000     2.06925000     6.20775000
    7 C                    6.0000     2.06925000     6.20775000     2.06925000
    8 C                    6.0000     6.20775000     2.06925000     2.06925000

      Lattice Parameters 
      ------------------ 

      lattice vectors in a.u. (scale by  1.000000000 to convert to a.u.)

      a1=<   8.277   0.000   0.000 >
      a2=<   0.000   8.277   0.000 >
      a3=<   0.000   0.000   8.277 >
      a=       8.277 b=      8.277 c=       8.277
      alpha=  90.000 beta=  90.000 gamma=  90.000
      omega=   567.0

      reciprocal lattice vectors in a.u.

      b1=<   0.759   0.000   0.000 >
      b2=<   0.000   0.759   0.000 >
      b3=<   0.000   0.000   0.759 >

      Atomic Mass 
      ----------- 

      Si                27.976930
      C                 12.000000


          ****************************************************
          *                                                  *
          *               NWPW PSPW Calculation              *
          *                                                  *
          *  [ (Grassman/Stiefel manifold implementation) ]  *
          *                                                  *
          *      [ NorthWest Chemistry implementation ]      *
          *                                                  *
          *            version #5.10   06/12/02              *
          *                                                  *
          *    This code was developed by Eric J. Bylaska,   *
          *    and was based upon algorithms and code        *
          *    developed by the group of Prof. John H. Weare *
          *                                                  *
          ****************************************************
     >>>  JOB STARTED       AT Fri Aug  6 14:00:10 2010  <<<
          ================ input data ========================

 input psi filename:./SiC.stress.movecs

 initializing pspw_APC data structure
 ------------------------------------
 nga, ngs:                    3                   24
 Gc      :   2.50000000000000     
 APC gamma:                    1  0.600000000000000     
 APC gamma:                    2  0.900000000000000     
 APC gamma:                    3   1.35000000000000     

 number of processors used:         4
 processor grid           :   4 x   1
 parallel mapping         :      slab
 parallel mapping         :  balanced

 options:
      boundary conditions  = periodic    (version3)
      electron spin        = restricted
      exchange-correlation = LDA (Vosko et al) parameterization

 elements involved in the cluster:
      1: Si    core charge:  4.0000  lmax=  2
             comment    : Hamann pseudopotential
             pseudpotential type            :   0
             highest angular component      :   2
             local potential used           :   2
             number of non-local projections:   4
             cutoff =   1.059   1.286   1.286

      2: C     core charge:  4.0000  lmax=  2
             comment    : Parameterized (J.Phys.Chem., vol 100, page 6966) Hamman psp
             pseudpotential type            :   0
             highest angular component      :   2
             local potential used           :   2
             number of non-local projections:   4
             cutoff =   0.800   0.850   0.850


 total charge:   0.000

 atomic composition:
     Si  :  4     C   :  4

 number of electrons: spin up=    16 (  16 per task)  down=    16 (  16 per task) (fourier space)
 number of orbitals : spin up=    16 (  16 per task)  down=    16 (  16 per task) (fourier space)

 supercell:
      cell_name:  cell_default                  
      lattice:    a1=<   8.277   0.000   0.000 >
                  a2=<   0.000   8.277   0.000 >
                  a3=<   0.000   0.000   8.277 >
      reciprocal: b1=<   0.759   0.000   0.000 >
                  b2=<   0.000   0.759   0.000 >
                  b3=<   0.000   0.000   0.759 >
      lattice:    a=       8.277 b=      8.277 c=       8.277
                  alpha=  90.000 beta=  90.000 gamma=  90.000
                  omega=       567.0

      density cutoff= 18.440  fft= 16x 16x 16(     1052 waves      263 per task)
      wavefnc cutoff= 18.440  fft= 16x 16x 16(     1052 waves      263 per task)
      ewald summation: cut radius=    2.63  and  8
                        madelung= 1.76011888

 technical parameters:
      time step=      5.80     ficticious mass=  400000.0
      tolerance=.100E-08 (energy)   0.100E-08 (density)
      maximum iterations =    1000 (   10 inner  100 outer )





== Energy Calculation ==


          ============ Grassmann lmbfgs iteration ============
     >>>  ITERATION STARTED AT Fri Aug  6 14:00:10 2010  <<<
    iter.           Energy         DeltaE       DeltaRho 
    ------------------------------------------------------
      10   -0.3835361563E+02   -0.92260E-09    0.79804E-10
  *** tolerance ok. iteration terminated
     >>>  ITERATION ENDED   AT Fri Aug  6 14:00:10 2010  <<<


==  Summary Of Results  ==

 number of electrons: spin up=   16.00000  down=   16.00000 (real space)

 total     energy    :  -0.3835361563E+02 (   -0.47942E+01/ion)
 total orbital energy:   0.4621696096E+01 (    0.28886E+00/electron)
 hartree   energy    :   0.5074196469E+01 (    0.31714E+00/electron)
 exc-corr  energy    :  -0.1221471012E+02 (   -0.76342E+00/electron)
 ion-ion   energy    :  -0.4165217770E+02 (   -0.52065E+01/ion)

 kinetic (planewave) :   0.2392882914E+02 (    0.14956E+01/electron)
 V_local (planewave) :  -0.1609674190E+02 (   -0.10060E+01/electron)
 V_nl    (planewave) :   0.2606988475E+01 (    0.16294E+00/electron)
 V_Coul  (planewave) :   0.1014839294E+02 (    0.63427E+00/electron)
 V_xc.   (planewave) :  -0.1596577256E+02 (   -0.99786E+00/electron)
 Virial Coefficient  :  -0.8068565717E+00

 orbital energies:
     0.3523733E+00 (   9.589eV)
     0.3523733E+00 (   9.589eV)
     0.3523732E+00 (   9.589eV)
     0.2299271E+00 (   6.257eV)
     0.2299270E+00 (   6.257eV)
     0.2299269E+00 (   6.257eV)
     0.2299266E+00 (   6.257eV)
     0.2299264E+00 (   6.257eV)
     0.2299264E+00 (   6.257eV)
     0.5604619E-01 (   1.525eV)
     0.5604554E-01 (   1.525eV)
     0.5604488E-01 (   1.525eV)
    -0.2570618E-01 (  -0.700eV)
    -0.2570622E-01 (  -0.700eV)
    -0.2570625E-01 (  -0.700eV)
    -0.2168501E+00 (  -5.901eV)

 Total PSPW energy   :  -0.3835361563E+02


=== Spin Contamination ===

 <Sexact^2> =    0.00000000000000     
 <S^2>      =    0.00000000000000     



== Center of Charge ==

spin up     (    0.0000,    0.0000,    0.0000 )
spin down   (    0.0000,    0.0000,    0.0000 )
     total  (    0.0000,    0.0000,    0.0000 )
ionic       (    1.0346,    1.0346,    1.0346 )
crystal     (    0.0000,    0.0000,    0.0000 )


== Crystal Dipole ==

mu   =  (    0.0000,    0.0000,    0.0000 ) au
|mu| =     0.0000 au,       0.0000 Debye


== Molecular Dipole wrt Center of Mass ==

mu   =  (   33.1080,   33.1080,   33.1080 ) au
|mu| =    57.3447 au,     145.7474 Debye


Translation force removed: (    0.00000    0.00000    0.00000)


          =============  Ion Gradients =================
 Ion Forces:
        1 Si   (    0.00000    0.00000    0.00000 )
        2 Si   (    0.00000    0.00000    0.00000 )
        3 Si   (    0.00000    0.00000    0.00000 )
        4 Si   (    0.00000    0.00000    0.00000 )
        5 C    (   -0.00002   -0.00001    0.00002 )
        6 C    (   -0.00001    0.00000   -0.00002 )
        7 C    (    0.00001   -0.00002   -0.00002 )
        8 C    (    0.00002    0.00002    0.00002 )
        C.O.M. (    0.00000    0.00000    0.00000 )
          ===============================================
          |F|       =   0.577797E-04
          |F|/nion  =   0.722247E-05
          max|Fatom|=   0.343118E-04 (   0.002eV/Angstrom)



 Outputing formatted_stress_filename: ./Si.vpp2

 Outputing formatted_stress_filename: ./C.vpp2


======================
= Stress calculation =
======================


          ============= total gradient ==============
      S =  (    0.02048    0.00000    0.00000 )
           (    0.00000    0.02048    0.00000 )
           (    0.00000    0.00000    0.02048 )
          ===================================================
          |S|      = 0.35465E-01
          pressure = 0.205E-01 au
                   = 0.602E+01 Mbar
                   = 0.602E+03 GPa
                   = 0.595E+07 atm


       dE/da     =     0.02048
       dE/db     =     0.02048
       dE/dc     =     0.02048
       dE/dalpha =     0.00000
       dE/dbeta  =     0.00000
       dE/dgamma =     0.00000




 *************************************************************
 **                                                         **
 **                  PSPW Mulliken analysis                 **
 **                                                         **
 ** Population analysis algorithm devloped by Ryoichi Kawai **
 **                                                         **
 **                   Fri Aug  6 14:00                      **
 **                                                         **
 *************************************************************


== XYZ OUTPUT ==


                    8

Si            2.189999      2.189999      2.189999
Si            0.000000      0.000000      2.189999
Si            0.000000      2.189999      0.000000
Si            2.189999      0.000000      0.000000
C            -1.095000     -1.095000     -1.095000
C             1.095000      1.095000     -1.095000
C             1.095000     -1.095000      1.095000
C            -1.095000      1.095000      1.095000


 =====================================================
 | POPULATION ANALYSIS OF FILLED MOLECULAR ORBITALS  |
 =====================================================


== Using pseudoatomic orbital expansion          ==


------------------------------------------------------------------------------


*** ORBITAL=   1***  SPIN=BOTH    SUM= 0.70491E+00 E= 0.35237E+00 (   9.589eV)

NO  ATOM  L  POPULATION
                                s
 1   Si     0    0.00000    0.00000
                               px         py         pz
 1   Si     1    0.01400    0.08413   -0.04739   -0.06837
                                s
 2   Si     0    0.00000    0.00000
                               px         py         pz
 2   Si     1    0.01398    0.08399   -0.04745   -0.06837
                                s
 3   Si     0    0.00000    0.00000
                               px         py         pz
 3   Si     1    0.01399    0.08399   -0.04739   -0.06846
                                s
 4   Si     0    0.00000    0.00000
                               px         py         pz
 4   Si     1    0.01401    0.08413   -0.04745   -0.06845
                                s
 5   C      0    0.00000    0.00004
                               px         py         pz
 5   C      1    0.23600   -0.34519    0.19474    0.28093
                                s
 6   C      0    0.00000   -0.00002
                               px         py         pz
 6   C      1    0.23601   -0.34519    0.19475    0.28093
                                s
 7   C      0    0.00000   -0.00002
                               px         py         pz
 7   C      1    0.23601   -0.34519    0.19475    0.28093
                                s
 8   C      0    0.00000    0.00000
                               px         py         pz
 8   C      1    0.23601   -0.34519    0.19475    0.28093


=== DISTRIBUTION ===

     1(Si  )   0.0140     2(Si  )   0.0140     3(Si  )   0.0140     4(Si  )   0.0140
     5(C   )   0.2360     6(C   )   0.2360     7(C   )   0.2360     8(C   )   0.2360


== ANGULAR MOMENTUM POPULATIONS ===

      s         p         d         f
    0.0000    1.0000    0.0000    0.0000


------------------------------------------------------------------------------


*** ORBITAL=   2***  SPIN=BOTH    SUM= 0.70491E+00 E= 0.35237E+00 (   9.589eV)

NO  ATOM  L  POPULATION
                                s
 1   Si     0    0.00000    0.00000
                               px         py         pz
 1   Si     1    0.01399   -0.00046   -0.09744    0.06703
                                s
 2   Si     0    0.00000    0.00000
                               px         py         pz
 2   Si     1    0.01400   -0.00040   -0.09750    0.06703
                                s
 3   Si     0    0.00000    0.00000
                               px         py         pz
 3   Si     1    0.01399   -0.00040   -0.09744    0.06705
                                s
 4   Si     0    0.00000    0.00000
                               px         py         pz
 4   Si     1    0.01400   -0.00046   -0.09750    0.06704
                                s
 5   C      0    0.00000    0.00000
                               px         py         pz
 5   C      1    0.23601    0.00177    0.40027   -0.27530
                                s
 6   C      0    0.00000    0.00000
                               px         py         pz
 6   C      1    0.23601    0.00177    0.40027   -0.27529
                                s
 7   C      0    0.00000    0.00002
                               px         py         pz
 7   C      1    0.23600    0.00177    0.40027   -0.27529
                                s
 8   C      0    0.00000   -0.00002
                               px         py         pz
 8   C      1    0.23600    0.00177    0.40027   -0.27529


=== DISTRIBUTION ===

     1(Si  )   0.0140     2(Si  )   0.0140     3(Si  )   0.0140     4(Si  )   0.0140
     5(C   )   0.2360     6(C   )   0.2360     7(C   )   0.2360     8(C   )   0.2360


== ANGULAR MOMENTUM POPULATIONS ===

      s         p         d         f
    0.0000    1.0000    0.0000    0.0000


------------------------------------------------------------------------------


*** ORBITAL=   3***  SPIN=BOTH    SUM= 0.70491E+00 E= 0.35237E+00 (   9.589eV)

NO  ATOM  L  POPULATION
                                s
 1   Si     0    0.00000    0.00000
                               px         py         pz
 1   Si     1    0.01399    0.08317    0.04739    0.06948
                                s
 2   Si     0    0.00000    0.00000
                               px         py         pz
 2   Si     1    0.01401    0.08330    0.04738    0.06947
                                s
 3   Si     0    0.00000    0.00000
                               px         py         pz
 3   Si     1    0.01400    0.08331    0.04739    0.06939
                                s
 4   Si     0    0.00000    0.00000
                               px         py         pz
 4   Si     1    0.01398    0.08317    0.04738    0.06939
                                s
 5   C      0    0.00000   -0.00001
                               px         py         pz
 5   C      1    0.23601   -0.34183   -0.19459   -0.28512
                                s
 6   C      0    0.00000    0.00003
                               px         py         pz
 6   C      1    0.23600   -0.34182   -0.19459   -0.28512
                                s
 7   C      0    0.00000    0.00001
                               px         py         pz
 7   C      1    0.23601   -0.34183   -0.19459   -0.28513
                                s
 8   C      0    0.00000   -0.00003
                               px         py         pz
 8   C      1    0.23601   -0.34183   -0.19459   -0.28512


=== DISTRIBUTION ===

     1(Si  )   0.0140     2(Si  )   0.0140     3(Si  )   0.0140     4(Si  )   0.0140
     5(C   )   0.2360     6(C   )   0.2360     7(C   )   0.2360     8(C   )   0.2360


== ANGULAR MOMENTUM POPULATIONS ===

      s         p         d         f
    0.0000    1.0000    0.0000    0.0000


------------------------------------------------------------------------------


*** ORBITAL=   4***  SPIN=BOTH    SUM= 0.13416E+01 E= 0.22993E+00 (   6.257eV)

NO  ATOM  L  POPULATION
                                s
 1   Si     0    0.00000    0.00000
                               px         py         pz
 1   Si     1    0.10658    0.24259   -0.13371    0.17277
                                s
 2   Si     0    0.00000    0.00000
                               px         py         pz
 2   Si     1    0.06902    0.19141    0.05032   -0.17277
                                s
 3   Si     0    0.00000    0.00000
                               px         py         pz
 3   Si     1    0.11196   -0.19141    0.13371    0.23968
                                s
 4   Si     0    0.00000    0.00000
                               px         py         pz
 4   Si     1    0.11883   -0.24259   -0.05033   -0.23968
                                s
 5   C      0    0.00000    0.00000
                               px         py         pz
 5   C      1    0.09520   -0.19885   -0.22183    0.08028
                                s
 6   C      0    0.00000    0.00001
                               px         py         pz
 6   C      1    0.18785    0.29963   -0.30270   -0.08028
                                s
 7   C      0    0.00000    0.00000
                               px         py         pz
 7   C      1    0.15919   -0.29963    0.22183   -0.14214
                                s
 8   C      0    0.00000    0.00000
                               px         py         pz
 8   C      1    0.15137    0.19885    0.30270    0.14214


=== DISTRIBUTION ===

     1(Si  )   0.1066     2(Si  )   0.0690     3(Si  )   0.1120     4(Si  )   0.1188
     5(C   )   0.0952     6(C   )   0.1878     7(C   )   0.1592     8(C   )   0.1514


== ANGULAR MOMENTUM POPULATIONS ===

      s         p         d         f
    0.0000    1.0000    0.0000    0.0000


------------------------------------------------------------------------------


*** ORBITAL=   5***  SPIN=BOTH    SUM= 0.13416E+01 E= 0.22993E+00 (   6.257eV)

NO  ATOM  L  POPULATION
                                s
 1   Si     0    0.00000    0.00000
                               px         py         pz
 1   Si     1    0.13277    0.20362    0.25859   -0.15634
                                s
 2   Si     0    0.00000    0.00000
                               px         py         pz
 2   Si     1    0.06127   -0.18191    0.06114    0.15634
                                s
 3   Si     0    0.00000    0.00000
                               px         py         pz
 3   Si     1    0.13355    0.18191   -0.25858    0.18329
                                s
 4   Si     0    0.00000    0.00000
                               px         py         pz
 4   Si     1    0.07880   -0.20363   -0.06115   -0.18329
                                s
 5   C      0    0.00000    0.00000
                               px         py         pz
 5   C      1    0.20490   -0.20950    0.19211   -0.35229
                                s
 6   C      0    0.00000    0.00000
                               px         py         pz
 6   C      1    0.20309   -0.17693   -0.21836    0.35229
                                s
 7   C      0    0.00000    0.00000
                               px         py         pz
 7   C      1    0.08113    0.17693   -0.19212   -0.11366
                                s
 8   C      0    0.00000    0.00000
                               px         py         pz
 8   C      1    0.10449    0.20950    0.21836    0.11366


=== DISTRIBUTION ===

     1(Si  )   0.1328     2(Si  )   0.0613     3(Si  )   0.1336     4(Si  )   0.0788
     5(C   )   0.2049     6(C   )   0.2031     7(C   )   0.0811     8(C   )   0.1045


== ANGULAR MOMENTUM POPULATIONS ===

      s         p         d         f
    0.0000    1.0000    0.0000    0.0000


------------------------------------------------------------------------------


*** ORBITAL=   6***  SPIN=BOTH    SUM= 0.13416E+01 E= 0.22993E+00 (   6.257eV)

NO  ATOM  L  POPULATION
                                s
 1   Si     0    0.00000    0.00000
                               px         py         pz
 1   Si     1    0.17154   -0.06160    0.34132    0.22637
                                s
 2   Si     0    0.00000    0.00000
                               px         py         pz
 2   Si     1    0.08109    0.17132   -0.02231   -0.22636
                                s
 3   Si     0    0.00000    0.00000
                               px         py         pz
[...]
 4   Si     1    0.17327   -0.09088   -0.39136   -0.10885
                                s
 5   C      0    0.07420   -0.27239
                               px         py         pz
 5   C      1    0.00000   -0.00001    0.00000    0.00001
                                s
 6   C      0    0.01626    0.12752
                               px         py         pz
 6   C      1    0.00000    0.00001    0.00000    0.00002
                                s
 7   C      0    0.06174   -0.24848
                               px         py         pz
 7   C      1    0.00000    0.00001    0.00001   -0.00002
                                s
 8   C      0    0.15473    0.39335
                               px         py         pz
 8   C      1    0.00000   -0.00001    0.00001   -0.00001


=== DISTRIBUTION ===

     1(Si  )   0.1733     2(Si  )   0.1733     3(Si  )   0.1733     4(Si  )   0.1733
     5(C   )   0.0742     6(C   )   0.0163     7(C   )   0.0617     8(C   )   0.1547


== ANGULAR MOMENTUM POPULATIONS ===

      s         p         d         f
    0.3069    0.6931    0.0000    0.0000


------------------------------------------------------------------------------


*** ORBITAL=  15***  SPIN=BOTH    SUM= 0.25577E+01 E=-0.12753E-01 (  -0.347eV)

NO  ATOM  L  POPULATION
                                s
 1   Si     0    0.00000    0.00000
                               px         py         pz
 1   Si     1    0.17327    0.01451    0.11460   -0.39991
                                s
 2   Si     0    0.00000    0.00001
                               px         py         pz
 2   Si     1    0.17327   -0.01451   -0.11460   -0.39991
                                s
 3   Si     0    0.00000   -0.00001
                               px         py         pz
 3   Si     1    0.17327   -0.01450    0.11460    0.39991
                                s
 4   Si     0    0.00000    0.00000
                               px         py         pz
 4   Si     1    0.17327    0.01450   -0.11460    0.39991
                                s
 5   C      0    0.03248    0.18021
                               px         py         pz
 5   C      1    0.00000    0.00000   -0.00001    0.00001
                                s
 6   C      0    0.12393    0.35204
                               px         py         pz
 6   C      1    0.00000    0.00000    0.00001    0.00000
                                s
 7   C      0    0.11071   -0.33273
                               px         py         pz
 7   C      1    0.00000    0.00000    0.00000    0.00000
                                s
 8   C      0    0.03981   -0.19951
                               px         py         pz
 8   C      1    0.00000    0.00000    0.00000   -0.00001


=== DISTRIBUTION ===

     1(Si  )   0.1733     2(Si  )   0.1733     3(Si  )   0.1733     4(Si  )   0.1733
     5(C   )   0.0325     6(C   )   0.1239     7(C   )   0.1107     8(C   )   0.0398


== ANGULAR MOMENTUM POPULATIONS ===

      s         p         d         f
    0.3069    0.6931    0.0000    0.0000


------------------------------------------------------------------------------


*** ORBITAL=  16***  SPIN=BOTH    SUM= 0.35593E+01 E=-0.21056E+00 (  -5.730eV)

NO  ATOM  L  POPULATION
                                s
 1   Si     0    0.15189    0.38973
                               px         py         pz
 1   Si     1    0.00000    0.00000    0.00000    0.00000
                                s
 2   Si     0    0.15189    0.38973
                               px         py         pz
 2   Si     1    0.00000    0.00000    0.00000    0.00000
                                s
 3   Si     0    0.15189    0.38973
                               px         py         pz
 3   Si     1    0.00000    0.00000    0.00000    0.00000
                                s
 4   Si     0    0.15189    0.38973
                               px         py         pz
 4   Si     1    0.00000    0.00000    0.00000    0.00000
                                s
 5   C      0    0.09811    0.31323
                               px         py         pz
 5   C      1    0.00000    0.00000    0.00000    0.00000
                                s
 6   C      0    0.09811    0.31323
                               px         py         pz
 6   C      1    0.00000    0.00000    0.00000    0.00000
                                s
 7   C      0    0.09811    0.31323
                               px         py         pz
 7   C      1    0.00000    0.00000    0.00000    0.00000
                                s
 8   C      0    0.09811    0.31323
                               px         py         pz
 8   C      1    0.00000    0.00000    0.00000    0.00000


=== DISTRIBUTION ===

     1(Si  )   0.1519     2(Si  )   0.1519     3(Si  )   0.1519     4(Si  )   0.1519
     5(C   )   0.0981     6(C   )   0.0981     7(C   )   0.0981     8(C   )   0.0981


== ANGULAR MOMENTUM POPULATIONS ===

      s         p         d         f
    1.0000    0.0000    0.0000    0.0000


 ========================================
 |   POPULATION ANALYSIS ON EACH ATOM   |
 ========================================


NO  ATOM  SPIN    TOTAL       s          p          d          f
 1   Si     UP      1.51131    0.34531    1.16600
 1   Si     DOWN    1.51131    0.34531    1.16600
 2   Si     UP      1.51132    0.34531    1.16601
 2   Si     DOWN    1.51132    0.34531    1.16601
 3   Si     UP      1.51131    0.34531    1.16600
 3   Si     DOWN    1.51131    0.34531    1.16600
 4   Si     UP      1.51132    0.34531    1.16601
 4   Si     DOWN    1.51132    0.34531    1.16601
 5   C      UP      2.48868    0.32830    2.16038
 5   C      DOWN    2.48868    0.32830    2.16038
 6   C      UP      2.48868    0.32830    2.16038
 6   C      DOWN    2.48868    0.32830    2.16038
 7   C      UP      2.48868    0.32830    2.16038
 7   C      DOWN    2.48868    0.32830    2.16038
 8   C      UP      2.48868    0.32830    2.16038
 8   C      DOWN    2.48868    0.32830    2.16038



=== TOTAL ANGULAR MOMENTUM POPULATION ===

 SPIN       s           p           d           f
  UP       16.84%      83.16%       0.00%       0.00% 
  UP       16.84%      83.16%       0.00%       0.00% 
 TOTAL     16.84%      83.16%       0.00%       0.00% 

 *************************************************************
 **                                                         **
 **          PSPW Atomic Point Charge (APC) Analysis        **
 **                                                         **
 **   Point charge analysis based on paper by P.E. Blochl   **
 **         (J. Chem. Phys. vol 103, page 7422, 1995)       **
 **                                                         **
 *************************************************************

 pspw_APC data structure
 -----------------------
 nga, ngs:                    3                   24
 Gc      :   2.50000000000000     
 APC gamma:                    1  0.600000000000000     
 APC gamma:                    2  0.900000000000000     
 APC gamma:                    3   1.35000000000000     

 charge analysis on each atom
 ----------------------------

    no  atom        Qelc        Qion      Qtotal
    --  ----     -------     -------     -------
     1  Si        -2.448       4.000       1.552
     2  Si        -2.446       4.000       1.554
     3  Si        -2.460       4.000       1.540
     4  Si        -2.442       4.000       1.558
     5  C         -5.559       4.000      -1.559
     6  C         -5.548       4.000      -1.548
     7  C         -5.548       4.000      -1.548
     8  C         -5.548       4.000      -1.548
     Total Q     -32.000      32.000       0.000


 gaussian coefficients of model density
 --------------------------------------

    no  atom     g=0.000     g=0.600     g=0.900     g=1.350
    --  ----     -------     -------     -------     -------
     1  Si         4.000       0.169       1.769      -4.385
     2  Si         4.000       0.198       1.717      -4.361
     3  Si         4.000      -0.026       2.121      -4.554
     4  Si         4.000       0.263       1.599      -4.304
     5  C          4.000      -2.608       5.523      -8.475
     6  C          4.000      -2.448       5.230      -8.331
     7  C          4.000      -2.449       5.232      -8.332
     8  C          4.000      -2.445       5.226      -8.329


=== Electric Field at Atoms ===

      1 Si   Atomic Electric Field =(    0.00000    0.00000    0.00000 )
                    (ion)          =(    0.00000    0.00001    0.00000 )
                    (electronic)   =(    0.00000   -0.00001    0.00000 )
      2 Si   Atomic Electric Field =(    0.00000    0.00001    0.00000 )
                    (ion)          =(    0.00000   -0.00003    0.00000 )
                    (electronic)   =(    0.00000    0.00004    0.00000 )
      3 Si   Atomic Electric Field =(    0.00000    0.00000    0.00000 )
                    (ion)          =(    0.00000   -0.00001   -0.00001 )
                    (electronic)   =(    0.00000    0.00001    0.00001 )
      4 Si   Atomic Electric Field =(    0.00000   -0.00001    0.00000 )
                    (ion)          =(    0.00000    0.00003    0.00001 )
                    (electronic)   =(    0.00000   -0.00004   -0.00001 )
      5 C    Atomic Electric Field =(    0.00000   -0.00002    0.00000 )
                    (ion)          =(    0.00001    0.00000   -0.00001 )
                    (electronic)   =(    0.00000   -0.00002    0.00000 )
      6 C    Atomic Electric Field =(    0.00000    0.00002    0.00000 )
                    (ion)          =(    0.00000    0.00000    0.00001 )
                    (electronic)   =(    0.00000    0.00002   -0.00001 )
      7 C    Atomic Electric Field =(    0.00000   -0.00001    0.00000 )
                    (ion)          =(    0.00000    0.00001    0.00001 )
                    (electronic)   =(    0.00000   -0.00002    0.00000 )
      8 C    Atomic Electric Field =(    0.00000    0.00001    0.00000 )
                    (ion)          =(   -0.00001   -0.00001   -0.00001 )
                    (electronic)   =(    0.00001    0.00002    0.00001 )

 output psi filename:./SiC.stress.movecs


== Timing ==

cputime in seconds
  prologue    :   0.193992E+00
  main loop   :   0.344024E+00
  epilogue    :   0.627820E-01
  total       :   0.600798E+00
  cputime/step:   0.860060E-01       (       4 evalulations,       1 linesearches)


Time spent doing                        total          step
  FFTs                       :   0.707386E-03  0.176846E-03
  dot products               :   0.106170E-01  0.265426E-02
  geodesic                   :   0.317025E-02  0.792563E-03
  ffm_dgemm                  :   0.596048E-03  0.149012E-03
  fmf_dgemm                  :   0.284409E-02  0.711022E-03
  m_diagonalize              :   0.163076E-03  0.407691E-04
    - m_tredq                :   0.000000E+00  0.000000E+00
    - m_getdiags             :   0.000000E+00  0.000000E+00
    - m_tqliq                :   0.000000E+00  0.000000E+00
    - m_eigsrt               :   0.000000E+00  0.000000E+00
  exchange correlation       :   0.159693E-02  0.399232E-03
  local pseudopotentials     :   0.598431E-03  0.149608E-03
  non-local pseudopotentials :   0.206716E-01  0.516790E-02
  hartree potentials         :   0.196694E-03  0.491736E-04
  ion-ion interaction        :   0.109548E+00  0.273870E-01
  structure factors          :   0.161914E-01  0.404785E-02
  phase factors              :   0.231256E-04  0.578140E-05
  masking and packing        :   0.155671E-01  0.389178E-02
  queue fft                  :   0.575638E-02  0.143909E-02
  queue fft (serial)         :   0.356190E-02  0.890475E-03
  queue fft (message passing):   0.190141E-02  0.475353E-03
  HFX potential              :   0.000000E+00  0.000000E+00
  qmmm LJ                    :   0.000000E+00  0.000000E+00
  qmmm residual Q            :   0.000000E+00  0.000000E+00

     >>>  JOB COMPLETED     AT Fri Aug  6 14:00:15 2010  <<<

  Step       Energy      Delta E   Gmax     Grms     Xrms     Xmax   Walltime
  ---- ---------------- -------- -------- -------- -------- -------- --------
@    3     -38.35684238 -1.1D-08  0.00003  0.00001  0.00005  0.00017      9.6
                                     ok       ok       ok       ok  


      ----------------------
      Optimization converged
      ----------------------


  Step       Energy      Delta E   Gmax     Grms     Xrms     Xmax   Walltime
  ---- ---------------- -------- -------- -------- -------- -------- --------
@    3     -38.35684238 -1.1D-08  0.00003  0.00001  0.00005  0.00017      9.6
                                     ok       ok       ok       ok  



                         Geometry "geometry" -> "geometry"
                         ---------------------------------

 Output coordinates in a.u. (scale by  1.000000000 to convert to a.u.)

  No.       Tag          Charge          X              Y              Z
 ---- ---------------- ---------- -------------- -------------- --------------
    1 Si                  14.0000     4.08676548     4.08676710     4.08676530
    2 Si                  14.0000    -0.00000065    -0.00001099     4.08676488
    3 Si                  14.0000     0.00000035     4.08676312    -0.00000406
    4 Si                  14.0000     4.08676448     0.00001089     0.00000388
    5 C                    6.0000     6.13009949     6.13014619     6.13020214
    6 C                    6.0000     2.04336181     2.04337747     6.13009146
    7 C                    6.0000     2.04340182     6.13011891     2.04332789
    8 C                    6.0000     6.13019620     2.04341756     2.04343844

      Lattice Parameters 
      ------------------ 

      lattice vectors in a.u. (scale by  1.000000000 to convert to a.u.)

      a1=<   8.174   0.000   0.000 >
      a2=<   0.000   8.174   0.000 >
      a3=<   0.000   0.000   8.174 >
      a=       8.174 b=      8.174 c=       8.174
      alpha=  90.000 beta=  90.000 gamma=  90.000
      omega=   546.0

      reciprocal lattice vectors in a.u.

      b1=<   0.769   0.000   0.000 >
      b2=<   0.000   0.769   0.000 >
      b3=<   0.000   0.000   0.769 >

      Atomic Mass 
      ----------- 

      Si                27.976930
      C                 12.000000


 ==============================================================================
                                internuclear distances
 ------------------------------------------------------------------------------
       center one      |      center two      | atomic units |       a.u.
 ------------------------------------------------------------------------------
    5 C                |   1 Si               |     3.53924  |     3.53924
    6 C                |   1 Si               |     3.53923  |     3.53923
    6 C                |   2 Si               |     3.53920  |     3.53920
    7 C                |   1 Si               |     3.53925  |     3.53925
    7 C                |   3 Si               |     3.53921  |     3.53921
    8 C                |   1 Si               |     3.53922  |     3.53922
    8 C                |   4 Si               |     3.53931  |     3.53931
 ------------------------------------------------------------------------------
                         number of included internuclear distances:          7
 ==============================================================================



 ==============================================================================
                                 internuclear angles
 ------------------------------------------------------------------------------
        center 1       |       center 2       |       center 3       |  degrees
 ------------------------------------------------------------------------------
    5 C                |   1 Si               |   6 C                |   109.47
    5 C                |   1 Si               |   7 C                |   109.47
    5 C                |   1 Si               |   8 C                |   109.47
    6 C                |   1 Si               |   7 C                |   109.47
    6 C                |   1 Si               |   8 C                |   109.47
    7 C                |   1 Si               |   8 C                |   109.47
    1 Si               |   6 C                |   2 Si               |   109.47
    1 Si               |   7 C                |   3 Si               |   109.47
    1 Si               |   8 C                |   4 Si               |   109.47
 ------------------------------------------------------------------------------
                            number of included internuclear angles:          9
 ==============================================================================




 Task  times  cpu:        5.5s     wall:        5.5s
 Summary of allocated global arrays
-----------------------------------
  No active global arrays



                         GA Statistics for process    0
                         ------------------------------

       create   destroy   get      put      acc     scatter   gather  read&inc
calls:    8        8      376       20        0        0        0        0     
number of processes/call 1.32e+00 4.00e+00 0.00e+00 0.00e+00 0.00e+00
bytes total:             4.14e+05 1.64e+05 0.00e+00 0.00e+00 0.00e+00 0.00e+00
bytes remote:            2.89e+05 1.23e+05 0.00e+00 0.00e+00 0.00e+00 0.00e+00
Max memory consumed for GA by this process: 16384 bytes
MA_summarize_allocated_blocks: starting scan ...
MA_summarize_allocated_blocks: scan completed: 0 heap blocks, 0 stack blocks
MA usage statistics:

	allocation statistics:
					      heap	     stack
					      ----	     -----
	current number of blocks	         0	         0
	maximum number of blocks	       199	        17
	current total bytes		         0	         0
	maximum total bytes		   1981400	    800096
	maximum total K-bytes		      1982	       801
	maximum total M-bytes		         2	         1


                                NWChem Input Module
                                -------------------





                                     CITATION
                                     --------
                Please cite the following reference when publishing
                           results obtained with NWChem:

                 M. Valiev, E.J. Bylaska, N. Govind, K. Kowalski,
              T.P. Straatsma, H.J.J. van Dam, D. Wang, J. Nieplocha,
                        E. Apra, T.L. Windus, W.A. de Jong
                 "NWChem: a comprehensive and scalable open-source
                  solution for large scale molecular simulations"
                      Comput. Phys. Commun. 181, 1477 (2010)
                           doi:10.1016/j.cpc.2010.04.018

                              AUTHORS & CONTRIBUTORS
                              ----------------------
      E. J. Bylaska, W. A. de Jong, N. Govind, K. Kowalski, T. P. Straatsma,
     M. Valiev, H. J. J. Van Dam, D. Wang, E. Apra, T. L. Windus, J. Hammond,
     J. Autschbach, P. Nichols, S. Hirata, M. T. Hackler, Y. Zhao, P.-D. Fan,
      R. J. Harrison, M. Dupuis, D. M. A. Smith, J. Nieplocha, V. Tipparaju,
          M. Krishnan, A. Vazquez-Mayagoitia, L. Jensen, M. Swart, Q. Wu,
          T. Van Voorhis, A. A. Auer, M. Nooijen, L. D. Crosby, E. Brown,
             G. Cisneros, G. I. Fann, H. Fruchtl, J. Garza, K. Hirao,
        R. Kendall, J. A. Nichols, K. Tsemekhman, K. Wolinski, J. Anchell,
       D. Bernholdt, P. Borowski, T. Clark, D. Clerc, H. Dachsel, M. Deegan,
        K. Dyall, D. Elwood, E. Glendening, M. Gutowski, A. Hess, J. Jaffe,
        B. Johnson, J. Ju, R. Kobayashi, R. Kutteh, Z. Lin, R. Littlefield,
    X. Long, B. Meng, T. Nakajima, S. Niu, L. Pollack, M. Rosing, G. Sandrone,
       M. Stave, H. Taylor, G. Thomas, J. H. van Lenthe, A. Wong, Z. Zhang.

 Total times  cpu:        9.4s     wall:        9.6s
