 argument  1 = scf_feco5.nw



============================== echo of input deck ==============================
echo

start scf_feco5

# Sequential test of semi-direct SCF ... to run in parallel it is
# necessary to reduce the file sizes below by a factor of NPROC.

#fe(co)5  SCF total energy -1816.677508 ... should vary by 1 or 2 in last D.P.

# There is a total of 2 million integrals

geometry units au
  symmetry group d3h

  fe 0.0 0.0 0.0

  c 0.0 0.0 3.414358
  o 0.0 0.0 5.591323

  c 2.4417087 2.4417087 0.0
  o 3.9810552 3.9810552 0.0
end

basis nosegment noprint
  fe library 3-21g
  o  library 3-21g
  c  library 3-21g
end

title "case s2: fe(co)5  --- Default SCF ... usually disk resident"
task scf

title "case s3a: fe(co)5 --- Semi-direct SCF ... 75% caching"
scf; vectors atomic; semidirect memsize 0 filesize 300000; end
task scf

title "case s3b: fe(co)5 --- Semi-direct SCF ... 50% caching"
scf; vectors atomic; semidirect memsize 0 filesize 200000; end
task scf

#title "case s3c: fe(co)5 --- Semi-direct SCF ... 25% caching"
#scf; vectors atomic; semidirect memsize 0 filesize 100000; end
#task scf

title "case s4: fe(co)5 --- Fully-direct SCF"
scf; vectors atomic; direct; end
task scf





================================================================================


                                         
                                         


              Northwest Computational Chemistry Package (NWChem) 6.0
              ------------------------------------------------------


                    Environmental Molecular Sciences Laboratory
                       Pacific Northwest National Laboratory
                                Richland, WA 99352

                              Copyright (c) 1994-2010
                       Pacific Northwest National Laboratory
                            Battelle Memorial Institute

             NWChem is an open-source computational chemistry package
                        distributed under the terms of the
                      Educational Community License (ECL) 2.0
             A copy of the license is included with this distribution
                              in the LICENSE.TXT file

                                  ACKNOWLEDGMENT
                                  --------------

            This software and its documentation were developed at the
            EMSL at Pacific Northwest National Laboratory, a multiprogram
            national laboratory, operated for the U.S. Department of Energy
            by Battelle under Contract Number DE-AC05-76RL01830. Support
            for this work was provided by the Department of Energy Office
            of Biological and Environmental Research, Office of Basic
            Energy Sciences, and the Office of Advanced Scientific Computing.


           Job information
           ---------------

    hostname      = arcen
    program       = /home/d3y133/nwchem-releases/nwchem-6.0-gfortran/bin/LINUX64/nwchem
    date          = Fri Aug  6 13:45:20 2010

    compiled      = Fri_Aug_06_13:42:42_2010
    source        = /home/d3y133/nwchem-releases/nwchem-6.0-gfortran
    nwchem branch = 6.0
    input         = scf_feco5.nw
    prefix        = scf_feco5.
    data base     = ./scf_feco5.db
    status        = startup
    nproc         =        4
    time left     =     -1s



           Memory information
           ------------------

    heap     =   13107201 doubles =    100.0 Mbytes
    stack    =   13107201 doubles =    100.0 Mbytes
    global   =   26214400 doubles =    200.0 Mbytes (distinct from heap & stack)
    total    =   52428802 doubles =    400.0 Mbytes
    verify   = yes
    hardfail = no 


           Directory information
           ---------------------

  0 permanent = .
  0 scratch   = .




                                NWChem Input Module
                                -------------------


 Turning off AUTOSYM since
 SYMMETRY directive was detected!


          ------
          auto-z
          ------
  Looking for out-of-plane bends


                             Geometry "geometry" -> ""
                             -------------------------

 Output coordinates in a.u. (scale by  1.000000000 to convert to a.u.)

  No.       Tag          Charge          X              Y              Z
 ---- ---------------- ---------- -------------- -------------- --------------
    1 fe                  26.0000     0.00000000     0.00000000     0.00000000
    2 c                    6.0000     0.00000000     0.00000000     3.41435800
    3 c                    6.0000     0.00000000     0.00000000    -3.41435800
    4 o                    8.0000     0.00000000     0.00000000     5.59132300
    5 o                    8.0000     0.00000000     0.00000000    -5.59132300
    6 c                    6.0000     2.44170870     2.44170870     0.00000000
    7 c                    6.0000    -3.33543611     0.89372741     0.00000000
    8 c                    6.0000     0.89372741    -3.33543611     0.00000000
    9 o                    8.0000     3.98105520     3.98105520     0.00000000
   10 o                    8.0000    -5.43822254     1.45716734     0.00000000
   11 o                    8.0000     1.45716734    -5.43822254     0.00000000

      Atomic Mass 
      ----------- 

      fe                55.934900
      c                 12.000000
      o                 15.994910


 Effective nuclear repulsion energy (a.u.)     798.4956180942

            Nuclear Dipole moment (a.u.) 
            ----------------------------
        X                 Y               Z
 ---------------- ---------------- ----------------
     0.0000000000     0.0000000000     0.0000000000

      Symmetry information
      --------------------

 Group name             D3h       
 Group number             27
 Group order              12
 No. of unique centers     5

      Symmetry unique atoms

     1    2    4    6    9



                                Z-matrix (autoz)
                                -------- 

 Units are Angstrom for bonds and degrees for angles

      Type          Name      I     J     K     L     M      Value
      ----------- --------  ----- ----- ----- ----- ----- ----------
    1 Stretch                  1     2                       1.80680
    2 Stretch                  1     3                       1.80680
    3 Stretch                  1     6                       1.82730
    4 Stretch                  1     7                       1.82730
    5 Stretch                  1     8                       1.82730
    6 Stretch                  2     4                       1.15200
    7 Stretch                  3     5                       1.15200
    8 Stretch                  6     9                       1.15200
    9 Stretch                  7    10                       1.15200
   10 Stretch                  8    11                       1.15200
   11 Bend                     2     1     6                90.00000
   12 Bend                     2     1     7                90.00000
   13 Bend                     2     1     8                90.00000
   14 Bend                     3     1     6                90.00000
   15 Bend                     3     1     7                90.00000
   16 Bend                     3     1     8                90.00000
   17 Bend                     4     1     6                90.00000
   18 Bend                     4     1     7                90.00000
   19 Bend                     4     1     8                90.00000
   20 Bend                     5     1     6                90.00000
   21 Bend                     5     1     7                90.00000
   22 Bend                     5     1     8                90.00000
   23 Bend                     6     1     7               120.00000
   24 Bend                     6     1     8               120.00000
   25 Bend                     7     1     8               120.00000
   26 Bend                     9     1     2                90.00000
   27 Bend                     9     1     3                90.00000
   28 Bend                     9     1     7               120.00000
   29 Bend                     9     1     8               120.00000
   30 Bend                    10     1     2                90.00000
   31 Bend                    10     1     3                90.00000
   32 Bend                    10     1     6               120.00000
   33 Bend                    10     1     8               120.00000
   34 Bend                    11     1     2                90.00000
   35 Bend                    11     1     3                90.00000
   36 Bend                    11     1     6               120.00000
   37 Bend                    11     1     7               120.00000
   38 Torsion                  1     2     6     9         180.00000
   39 Torsion                  1     2     7    10         180.00000
   40 Torsion                  1     2     8    11        -180.00000
   41 Torsion                  1     3     6     9        -180.00000
   42 Torsion                  1     3     7    10        -180.00000
   43 Torsion                  1     3     8    11         180.00000
   44 Torsion                  1     6     2     4         180.00000
   45 Torsion                  1     6     3     5        -180.00000
   46 Torsion                  1     6     7    10         180.00000
   47 Torsion                  1     6     8    11         180.00000
   48 Torsion                  1     7     2     4        -180.00000
   49 Torsion                  1     7     3     5         180.00000
   50 Torsion                  1     7     6     9         180.00000
   51 Torsion                  1     7     8    11         180.00000
   52 Torsion                  1     8     2     4         180.00000
   53 Torsion                  1     8     3     5        -180.00000
   54 Torsion                  1     8     6     9         180.00000
   55 Torsion                  1     8     7    10         180.00000


            XYZ format geometry
            -------------------
    11
 geometry
 fe                    0.00000000     0.00000000     0.00000000
 c                     0.00000000     0.00000000     1.80680057
 c                     0.00000000     0.00000000    -1.80680057
 o                     0.00000000     0.00000000     2.95880092
 o                     0.00000000     0.00000000    -2.95880092
 c                     1.29209669     1.29209669     0.00000000
 c                    -1.76503691     0.47294021     0.00000000
 c                     0.47294021    -1.76503691     0.00000000
 o                     2.10668384     2.10668384     0.00000000
 o                    -2.87778364     0.77109980     0.00000000
 o                     0.77109980    -2.87778364     0.00000000

 ==============================================================================
                                internuclear distances
 ------------------------------------------------------------------------------
       center one      |      center two      | atomic units |       a.u.
 ------------------------------------------------------------------------------
    2 c                |   1 fe               |     3.41436  |     3.41436
    3 c                |   1 fe               |     3.41436  |     3.41436
    4 o                |   2 c                |     2.17697  |     2.17697
    5 o                |   3 c                |     2.17697  |     2.17697
    6 c                |   1 fe               |     3.45310  |     3.45310
    7 c                |   1 fe               |     3.45310  |     3.45310
    8 c                |   1 fe               |     3.45310  |     3.45310
    9 o                |   6 c                |     2.17696  |     2.17696
   10 o                |   7 c                |     2.17696  |     2.17696
   11 o                |   8 c                |     2.17696  |     2.17696
 ------------------------------------------------------------------------------
                         number of included internuclear distances:         10
 ==============================================================================



 ==============================================================================
                                 internuclear angles
 ------------------------------------------------------------------------------
        center 1       |       center 2       |       center 3       |  degrees
 ------------------------------------------------------------------------------
    2 c                |   1 fe               |   3 c                |   180.00
    2 c                |   1 fe               |   6 c                |    90.00
    2 c                |   1 fe               |   7 c                |    90.00
    2 c                |   1 fe               |   8 c                |    90.00
    3 c                |   1 fe               |   6 c                |    90.00
    3 c                |   1 fe               |   7 c                |    90.00
    3 c                |   1 fe               |   8 c                |    90.00
    6 c                |   1 fe               |   7 c                |   120.00
    6 c                |   1 fe               |   8 c                |   120.00
    7 c                |   1 fe               |   8 c                |   120.00
    1 fe               |   2 c                |   4 o                |   180.00
    1 fe               |   3 c                |   5 o                |   180.00
    1 fe               |   6 c                |   9 o                |   180.00
    1 fe               |   7 c                |  10 o                |   180.00
    1 fe               |   8 c                |  11 o                |   180.00
 ------------------------------------------------------------------------------
                            number of included internuclear angles:         15
 ==============================================================================



  library name resolved from: .nwchemrc
  library file name is: </home/d3y133/nwchem-releases/nwchem-6.0-gfortran/QA/../src/basis/libraries/>
  
            case s2: fe(co)5  --- Default SCF ... usually disk resident
            -----------------------------------------------------------
                                 NWChem SCF Module
                                 -----------------


            case s2: fe(co)5  --- Default SCF ... usually disk resident



  ao basis        = "ao basis"
  functions       =   119
  atoms           =    11
  closed shells   =    48
  open shells     =     0
  charge          =   0.00
  wavefunction    = RHF 
  input vectors   = atomic
  output vectors  = ./scf_feco5.movecs
  use symmetry    = T
  symmetry adapt  = T


 Summary of "ao basis" -> "ao basis" (cartesian)
 ------------------------------------------------------------------------------
       Tag                 Description            Shells   Functions and Types
 ---------------- ------------------------------  ------  ---------------------
 fe                          3-21g                   7       29   5s4p2d
 o                           3-21g                   3        9   3s2p
 c                           3-21g                   3        9   3s2p


      Symmetry analysis of basis
      --------------------------

        a1'        29
        a1"         0
        a2'         4
        a2"        18
        e'         48
        e"         20


 Forming initial guess at       0.1s


      Superposition of Atomic Density Guess
      -------------------------------------

 Sum of atomic energies:       -1815.24436401

      Non-variational initial energy
      ------------------------------

 Total energy =   -1818.607108
 1-e energy   =   -4094.538473
 2-e energy   =    1477.435746
 HOMO         =      -0.233831
 LUMO         =      -0.015291


      Symmetry analysis of molecular orbitals - initial
      -------------------------------------------------

  Numbering of irreducible representations: 

     1 a1'         2 a1"         3 a2'         4 a2"         5 e'      
     6 e"      

  Orbital symmetries:

     1 a1'         2 a1'         3 a2"         4 e'          5 e'      
     6 a1'         7 a1'         8 a2"         9 e'         10 e'      
    11 a1'        12 a2"        13 a1'        14 e'         15 e'      
    16 a1'        17 a2"        18 e'         19 e'         20 a1'     
    21 a2"        22 e'         23 e'         24 a1'        25 a1'     
    26 a2"        27 e'         28 e'         29 a1'        30 a1'     
    31 e"         32 e"         33 a2"        34 e'         35 e'      
    36 e'         37 e'         38 a2'        39 e"         40 e"      
    41 a1'        42 e'         43 e'         44 a2"        45 e"      
    46 e"         47 e'         48 e'         49 a1'        50 e"      
    51 e"         52 e'         53 e'         54 a2"        55 a2'     
    56 e'         57 e'         58 a1'     


 Starting SCF solution at       0.3s



 ----------------------------------------------
         Quadratically convergent ROHF

 Convergence threshold     :          1.000E-04
 Maximum no. of iterations :           30
 Final Fock-matrix accuracy:          1.000E-07
 ----------------------------------------------


 Integral file          = ./scf_feco5.aoints.0
 Record size in doubles =  65536        No. of integs per rec  =  43688
 Max. records in memory =     23        Max. records in file   =  26331
 No. of bits per label  =      8        No. of bits per value  =     64


 #quartets = 2.440D+04 #integrals = 2.023D+06 #direct =  0.0% #cached =100.0%


File balance: exchanges=     0  moved=     0  time=   0.0


              iter       energy          gnorm     gmax       time
             ----- ------------------- --------- --------- --------
                 1    -1816.3884272072  1.87D+00  5.01D-01      0.5
                 2    -1816.6015405480  7.93D-01  2.38D-01      0.6
                 3    -1816.6471676330  5.87D-01  2.10D-01      0.6
                 4    -1816.6610428754  3.06D-01  7.07D-02      0.7
                 5    -1816.6770947192  7.76D-02  3.82D-02      1.0
                 6    -1816.6775042792  4.06D-03  1.18D-03      1.1
                 7    -1816.6775077060  2.04D-05  7.55D-06      1.4


       Final RHF  results 
       ------------------ 

         Total SCF energy =  -1816.677507705951
      One-electron energy =  -4092.290739090935
      Two-electron energy =   1477.117613290794
 Nuclear repulsion energy =    798.495618094190

        Time for solution =      1.2s



       Symmetry analysis of molecular orbitals - final
       -----------------------------------------------

  Numbering of irreducible representations: 

     1 a1'         2 a1"         3 a2'         4 a2"         5 e'      
     6 e"      

  Orbital symmetries:

     1 a1'         2 a1'         3 a2"         4 e'          5 e'      
     6 a1'         7 a2"         8 a1'         9 e'         10 e'      
    11 a2"        12 a1'        13 a1'        14 e'         15 e'      
    16 a1'        17 a2"        18 e'         19 e'         20 a1'     
    21 a2"        22 a1'        23 e'         24 e'         25 a1'     
    26 a2"        27 e'         28 e'         29 a1'        30 a1'     
    31 e"         32 e"         33 a2"        34 e'         35 e'      
    36 e'         37 e'         38 a2'        39 e"         40 e"      
    41 e'         42 e'         43 a1'        44 a2"        45 e"      
    46 e"         47 e'         48 e'         49 e"         50 e"      
    51 a1'        52 a2"        53 e'         54 e'         55 a2'     
    56 e'         57 e'         58 a2"     

             Final eigenvalues
             -----------------

              1      
    1 -259.8147
    2  -31.8753
    3  -27.3166
    4  -27.3115
    5  -27.3115
    6  -20.6092
    7  -20.6087
    8  -20.5806
    9  -20.5801
   10  -20.5801
   11  -11.3717
   12  -11.3710
   13  -11.3538
   14  -11.3529
   15  -11.3529
   16   -4.1718
   17   -2.7392
   18   -2.7276
   19   -2.7276
   20   -1.5608
   21   -1.5603
   22   -1.5360
   23   -1.5350
   24   -1.5350
   25   -0.8706
   26   -0.8228
   27   -0.8008
   28   -0.8008
   29   -0.7991
   30   -0.7302
   31   -0.6834
   32   -0.6834
   33   -0.6770
   34   -0.6765
   35   -0.6765
   36   -0.6546
   37   -0.6546
   38   -0.6418
   39   -0.6322
   40   -0.6322
   41   -0.6288
   42   -0.6288
   43   -0.6193
   44   -0.6050
   45   -0.4815
   46   -0.4815
   47   -0.3311
   48   -0.3311
   49    0.0763
   50    0.0763
   51    0.0986
   52    0.1049
   53    0.1093
   54    0.1093
   55    0.1213
   56    0.1242
   57    0.1242
   58    0.1382

                       ROHF Final Molecular Orbital Analysis
                       -------------------------------------

 Vector   25  Occ=2.000000D+00  E=-8.706148D-01  Symmetry=a1'
   Bfn.  Coefficient  Atom+Function         Bfn.  Coefficient  Atom+Function  
  ----- ------------  ---------------      ----- ------------  ---------------
    35      0.302347   2 C  ls               44      0.302347   3 C  ls        
     6     -0.211002   1 Fe ls               53     -0.208837   4 O  ls        
    62     -0.208837   5 O  ls               71      0.206865   6 C  ls        
    89      0.206865   8 C  ls               80      0.206865   7 C  ls        

 Vector   26  Occ=2.000000D+00  E=-8.227910D-01  Symmetry=a2"
   Bfn.  Coefficient  Atom+Function         Bfn.  Coefficient  Atom+Function  
  ----- ------------  ---------------      ----- ------------  ---------------
    35      0.357608   2 C  ls               44     -0.357608   3 C  ls        
    62      0.332295   5 O  ls               53     -0.332295   4 O  ls        
    61     -0.244330   5 O  lz               52     -0.244330   4 O  lz        
    65     -0.216737   5 O  lz               56     -0.216737   4 O  lz        

 Vector   27  Occ=2.000000D+00  E=-8.007896D-01  Symmetry=e'
   Bfn.  Coefficient  Atom+Function         Bfn.  Coefficient  Atom+Function  
  ----- ------------  ---------------      ----- ------------  ---------------
    71      0.373560   6 C  ls               98     -0.371584   9 O  ls        
    80     -0.204809   7 C  ls              107      0.203726  10 O  ls        
    96     -0.194962   9 O  ly               95     -0.194902   9 O  lx        
    99     -0.178226   9 O  lx              100     -0.177949   9 O  ly        
    89     -0.168751   8 C  ls              116      0.167858  11 O  ls        

 Vector   28  Occ=2.000000D+00  E=-8.007896D-01  Symmetry=e'
   Bfn.  Coefficient  Atom+Function         Bfn.  Coefficient  Atom+Function  
  ----- ------------  ---------------      ----- ------------  ---------------
    89      0.333922   8 C  ls              116     -0.332155  11 O  ls        
    80     -0.313104   7 C  ls              107      0.311447  10 O  ls        
   114      0.238115  11 O  ly              104     -0.223295  10 O  lx        
   118      0.217046  11 O  ly              108     -0.203401  10 O  lx        

 Vector   29  Occ=2.000000D+00  E=-7.991258D-01  Symmetry=a1'
   Bfn.  Coefficient  Atom+Function         Bfn.  Coefficient  Atom+Function  
  ----- ------------  ---------------      ----- ------------  ---------------
    53      0.210119   4 O  ls               62      0.210119   5 O  ls        
    52      0.195828   4 O  lz               61     -0.195828   5 O  lz        
    80      0.195231   7 C  ls               71      0.195231   6 C  ls        
    89      0.195231   8 C  ls               56      0.184963   4 O  lz        
    65     -0.184963   5 O  lz              107     -0.178899  10 O  ls        

 Vector   30  Occ=2.000000D+00  E=-7.302356D-01  Symmetry=a1'
   Bfn.  Coefficient  Atom+Function         Bfn.  Coefficient  Atom+Function  
  ----- ------------  ---------------      ----- ------------  ---------------
    43      0.202702   3 C  lz               34     -0.202702   2 C  lz        
    52      0.195104   4 O  lz               61     -0.195104   5 O  lz        
    56      0.179477   4 O  lz               65     -0.179477   5 O  lz        
   114     -0.164057  11 O  ly              104     -0.164057  10 O  lx        
     6     -0.152768   1 Fe ls              118     -0.152329  11 O  ly        

 Vector   31  Occ=2.000000D+00  E=-6.833726D-01  Symmetry=e"
   Bfn.  Coefficient  Atom+Function         Bfn.  Coefficient  Atom+Function  
  ----- ------------  ---------------      ----- ------------  ---------------
    28      0.207770   1 Fe dyz              22      0.203066   1 Fe dyz       
    55      0.197773   4 O  ly               64     -0.197773   5 O  ly        
    60     -0.193523   5 O  ly               51      0.193523   4 O  ly        
    26     -0.167218   1 Fe dxz              20     -0.163432   1 Fe dxz       
    63      0.159173   5 O  lx               54     -0.159173   4 O  lx        

 Vector   32  Occ=2.000000D+00  E=-6.833726D-01  Symmetry=e"
   Bfn.  Coefficient  Atom+Function         Bfn.  Coefficient  Atom+Function  
  ----- ------------  ---------------      ----- ------------  ---------------
    26      0.207770   1 Fe dxz              20      0.203066   1 Fe dxz       
    54      0.197773   4 O  lx               63     -0.197773   5 O  lx        
    59     -0.193523   5 O  lx               50      0.193523   4 O  lx        
    28      0.167218   1 Fe dyz              22      0.163432   1 Fe dyz       
    55      0.159173   4 O  ly               64     -0.159173   5 O  ly        

 Vector   33  Occ=2.000000D+00  E=-6.769748D-01  Symmetry=a2"
   Bfn.  Coefficient  Atom+Function         Bfn.  Coefficient  Atom+Function  
  ----- ------------  ---------------      ----- ------------  ---------------
    44      0.332188   3 C  ls               35     -0.332188   2 C  ls        
    43      0.228306   3 C  lz               34      0.228306   2 C  lz        
    52     -0.174131   4 O  lz               61     -0.174131   5 O  lz        
     9      0.169746   1 Fe lz               38      0.160559   2 C  lz        
    47      0.160559   3 C  lz               56     -0.158358   4 O  lz        

 Vector   34  Occ=2.000000D+00  E=-6.764663D-01  Symmetry=e'
   Bfn.  Coefficient  Atom+Function         Bfn.  Coefficient  Atom+Function  
  ----- ------------  ---------------      ----- ------------  ---------------
    80      0.199521   7 C  ls               89     -0.190078   8 C  ls        
    54     -0.187921   4 O  lx               63     -0.187921   5 O  lx        
    59     -0.180965   5 O  lx               50     -0.180965   4 O  lx        
    55      0.172779   4 O  ly               64      0.172779   5 O  ly        
    51      0.166383   4 O  ly               60      0.166383   5 O  ly        

 Vector   35  Occ=2.000000D+00  E=-6.764663D-01  Symmetry=e'
   Bfn.  Coefficient  Atom+Function         Bfn.  Coefficient  Atom+Function  
  ----- ------------  ---------------      ----- ------------  ---------------
    71      0.224935   6 C  ls               55      0.187921   4 O  ly        
    64      0.187921   5 O  ly               51      0.180965   4 O  ly        
    60      0.180965   5 O  ly               54      0.172779   4 O  lx        
    63      0.172779   5 O  lx               50      0.166383   4 O  lx        
    59      0.166383   5 O  lx        

 Vector   36  Occ=2.000000D+00  E=-6.546476D-01  Symmetry=e'
   Bfn.  Coefficient  Atom+Function         Bfn.  Coefficient  Atom+Function  
  ----- ------------  ---------------      ----- ------------  ---------------
   117      0.325964  11 O  lx              113      0.315697  11 O  lx        
   109      0.220047  10 O  ly              105      0.213652  10 O  ly        
    86      0.192214   8 C  lx               25     -0.188718   1 Fe dxy       
    90      0.180441   8 C  lx               19     -0.167662   1 Fe dxy       

 Vector   37  Occ=2.000000D+00  E=-6.546476D-01  Symmetry=e'
   Bfn.  Coefficient  Atom+Function         Bfn.  Coefficient  Atom+Function  
  ----- ------------  ---------------      ----- ------------  ---------------
   109      0.242967  10 O  ly               99     -0.240864   9 O  lx        
   105      0.234714  10 O  ly               95     -0.233965   9 O  lx        
   100      0.206910   9 O  ly               96      0.199532   9 O  ly        
    78      0.171575   7 C  ly               69      0.162609   6 C  ly        
    82      0.152925   7 C  ly        

 Vector   38  Occ=2.000000D+00  E=-6.417544D-01  Symmetry=a2'
   Bfn.  Coefficient  Atom+Function         Bfn.  Coefficient  Atom+Function  
  ----- ------------  ---------------      ----- ------------  ---------------
   117      0.267422  11 O  lx              109     -0.267422  10 O  ly        
   113      0.250407  11 O  lx              105     -0.250407  10 O  ly        
   100      0.195767   9 O  ly               99     -0.195767   9 O  lx        
    96      0.183310   9 O  ly               95     -0.183310   9 O  lx        

 Vector   39  Occ=2.000000D+00  E=-6.322426D-01  Symmetry=e"
   Bfn.  Coefficient  Atom+Function         Bfn.  Coefficient  Atom+Function  
  ----- ------------  ---------------      ----- ------------  ---------------
   119      0.323308  11 O  lz              115      0.304253  11 O  lz        
   110     -0.204329  10 O  lz              106     -0.192287  10 O  lz        
    88      0.186690   8 C  lz               92      0.180866   8 C  lz        
    64     -0.161456   5 O  ly               55      0.161456   4 O  ly        

 Vector   40  Occ=2.000000D+00  E=-6.322426D-01  Symmetry=e"
   Bfn.  Coefficient  Atom+Function         Bfn.  Coefficient  Atom+Function  
  ----- ------------  ---------------      ----- ------------  ---------------
   101      0.304631   9 O  lz               97      0.286677   9 O  lz        
   110     -0.255354  10 O  lz              106     -0.240305  10 O  lz        
    70      0.175906   6 C  lz               74      0.170418   6 C  lz        
    63      0.161456   5 O  lx               54     -0.161456   4 O  lx        

 Vector   41  Occ=2.000000D+00  E=-6.288249D-01  Symmetry=e'
   Bfn.  Coefficient  Atom+Function         Bfn.  Coefficient  Atom+Function  
  ----- ------------  ---------------      ----- ------------  ---------------
    71      0.396489   6 C  ls               89     -0.283486   8 C  ls        
    25      0.217685   1 Fe dxy              19      0.194323   1 Fe dxy       
    68     -0.185564   6 C  lx               55     -0.177099   4 O  ly        
    64     -0.177099   5 O  ly               69     -0.166260   6 C  ly        
    87     -0.161255   8 C  ly               51     -0.161024   4 O  ly        

 Vector   42  Occ=2.000000D+00  E=-6.288249D-01  Symmetry=e'
   Bfn.  Coefficient  Atom+Function         Bfn.  Coefficient  Atom+Function  
  ----- ------------  ---------------      ----- ------------  ---------------
    80      0.392583   7 C  ls               89     -0.294155   8 C  ls        
    77      0.241989   7 C  lx               87     -0.188454   8 C  ly        
    81      0.179687   7 C  lx               54      0.177099   4 O  lx        
    63      0.177099   5 O  lx               50      0.161024   4 O  lx        
    59      0.161024   5 O  lx        

 Vector   43  Occ=2.000000D+00  E=-6.193138D-01  Symmetry=a1'
   Bfn.  Coefficient  Atom+Function         Bfn.  Coefficient  Atom+Function  
  ----- ------------  ---------------      ----- ------------  ---------------
    44      0.347211   3 C  ls               35      0.347211   2 C  ls        
    80     -0.268284   7 C  ls               71     -0.268284   6 C  ls        
    89     -0.268284   8 C  ls               34     -0.198417   2 C  lz        
    43      0.198417   3 C  lz               29      0.195139   1 Fe dzz       
    87     -0.177195   8 C  ly               77     -0.177195   7 C  lx        

 Vector   44  Occ=2.000000D+00  E=-6.050385D-01  Symmetry=a2"
   Bfn.  Coefficient  Atom+Function         Bfn.  Coefficient  Atom+Function  
  ----- ------------  ---------------      ----- ------------  ---------------
    35      0.284854   2 C  ls               44     -0.284854   3 C  ls        
   110     -0.227715  10 O  lz              119     -0.227715  11 O  lz        
   101     -0.227715   9 O  lz              106     -0.210987  10 O  lz        
    97     -0.210987   9 O  lz              115     -0.210987  11 O  lz        
    43     -0.185392   3 C  lz               34     -0.185392   2 C  lz        

 Vector   45  Occ=2.000000D+00  E=-4.815081D-01  Symmetry=e"
   Bfn.  Coefficient  Atom+Function         Bfn.  Coefficient  Atom+Function  
  ----- ------------  ---------------      ----- ------------  ---------------
    26      0.901117   1 Fe dxz              20      0.878839   1 Fe dxz       
    28      0.172361   1 Fe dyz              54     -0.168531   4 O  lx        
    63      0.168531   5 O  lx               22      0.168100   1 Fe dyz       
   110      0.157098  10 O  lz        

 Vector   46  Occ=2.000000D+00  E=-4.815081D-01  Symmetry=e"
   Bfn.  Coefficient  Atom+Function         Bfn.  Coefficient  Atom+Function  
  ----- ------------  ---------------      ----- ------------  ---------------
    28      0.901117   1 Fe dyz              22      0.878839   1 Fe dyz       
   119      0.174071  11 O  lz               26     -0.172361   1 Fe dxz       
    55     -0.168531   4 O  ly               64      0.168531   5 O  ly        
    20     -0.168100   1 Fe dxz       

 Vector   47  Occ=2.000000D+00  E=-3.311261D-01  Symmetry=e'
   Bfn.  Coefficient  Atom+Function         Bfn.  Coefficient  Atom+Function  
  ----- ------------  ---------------      ----- ------------  ---------------
    25      0.702487   1 Fe dxy              19      0.661519   1 Fe dxy       
    11     -0.602349   1 Fe lx               12     -0.559447   1 Fe ly        
    71      0.211618   6 C  ls              117      0.198608  11 O  lx        
   109      0.191587  10 O  ly        

 Vector   48  Occ=2.000000D+00  E=-3.311261D-01  Symmetry=e'
   Bfn.  Coefficient  Atom+Function         Bfn.  Coefficient  Atom+Function  
  ----- ------------  ---------------      ----- ------------  ---------------
    12      0.602349   1 Fe ly               11     -0.559447   1 Fe lx        
    24     -0.351244   1 Fe dxx              27      0.351244   1 Fe dyy       
    18     -0.330759   1 Fe dxx              21      0.330759   1 Fe dyy       
    89      0.187174   8 C  ls               80     -0.179359   7 C  ls        
    99      0.160022   9 O  lx              100     -0.156953   9 O  ly        

 Vector   49  Occ=0.000000D+00  E= 7.628334D-02  Symmetry=e"
   Bfn.  Coefficient  Atom+Function         Bfn.  Coefficient  Atom+Function  
  ----- ------------  ---------------      ----- ------------  ---------------
    22      0.444443   1 Fe dyz              28      0.424011   1 Fe dyz       
    37     -0.327944   2 C  ly               46      0.327944   3 C  ly        
    92      0.306777   8 C  lz               64     -0.251474   5 O  ly        
    55      0.251474   4 O  ly              119     -0.251189  11 O  lz        
    74     -0.218039   6 C  lz               33     -0.191892   2 C  ly        

 Vector   50  Occ=0.000000D+00  E= 7.628334D-02  Symmetry=e"
   Bfn.  Coefficient  Atom+Function         Bfn.  Coefficient  Atom+Function  
  ----- ------------  ---------------      ----- ------------  ---------------
    20      0.444443   1 Fe dxz              26      0.424011   1 Fe dxz       
    45      0.327944   3 C  lx               36     -0.327944   2 C  lx        
    83      0.303003   7 C  lz               63     -0.251474   5 O  lx        
    54      0.251474   4 O  lx              110     -0.248099  10 O  lz        
    74     -0.228350   6 C  lz               32     -0.191892   2 C  lx        

 Vector   51  Occ=0.000000D+00  E= 9.863511D-02  Symmetry=a1'
   Bfn.  Coefficient  Atom+Function         Bfn.  Coefficient  Atom+Function  
  ----- ------------  ---------------      ----- ------------  ---------------
    14      2.202280   1 Fe ls               10     -1.364425   1 Fe ls        
    71     -0.224506   6 C  ls               89     -0.224506   8 C  ls        
    80     -0.224506   7 C  ls               44     -0.170321   3 C  ls        
    35     -0.170321   2 C  ls        

 Vector   52  Occ=0.000000D+00  E= 1.049466D-01  Symmetry=a2"
   Bfn.  Coefficient  Atom+Function         Bfn.  Coefficient  Atom+Function  
  ----- ------------  ---------------      ----- ------------  ---------------
    17      1.309584   1 Fe lz               13     -0.400108   1 Fe lz        
    35     -0.341399   2 C  ls               44      0.341399   3 C  ls        
   101     -0.179072   9 O  lz              119     -0.179072  11 O  lz        
   110     -0.179072  10 O  lz        

 Vector   53  Occ=0.000000D+00  E= 1.093125D-01  Symmetry=e'
   Bfn.  Coefficient  Atom+Function         Bfn.  Coefficient  Atom+Function  
  ----- ------------  ---------------      ----- ------------  ---------------
    16      1.091086   1 Fe ly               15      0.755087   1 Fe lx        
    12     -0.575066   1 Fe ly               11     -0.397975   1 Fe lx        
    71     -0.315493   6 C  ls               19      0.280488   1 Fe dxy       
    25      0.270104   1 Fe dxy              89      0.207473   8 C  ls        
    55     -0.164526   4 O  ly               64     -0.164526   5 O  ly        

 Vector   54  Occ=0.000000D+00  E= 1.093125D-01  Symmetry=e'
   Bfn.  Coefficient  Atom+Function         Bfn.  Coefficient  Atom+Function  
  ----- ------------  ---------------      ----- ------------  ---------------
    15      1.091086   1 Fe lx               16     -0.755087   1 Fe ly        
    11     -0.575066   1 Fe lx               12      0.397975   1 Fe ly        
    80      0.301934   7 C  ls               89     -0.244515   8 C  ls        
    54     -0.164526   4 O  lx               63     -0.164526   5 O  lx        
    81     -0.163446   7 C  lx               36      0.157562   2 C  lx        

 Vector   55  Occ=0.000000D+00  E= 1.213409D-01  Symmetry=a2'
   Bfn.  Coefficient  Atom+Function         Bfn.  Coefficient  Atom+Function  
  ----- ------------  ---------------      ----- ------------  ---------------
    82      0.403846   7 C  ly               90     -0.403846   8 C  lx        
    72      0.295635   6 C  lx               73     -0.295635   6 C  ly        
   109     -0.285720  10 O  ly              117      0.285720  11 O  lx        
    86     -0.260069   8 C  lx               78      0.260069   7 C  ly        
    99     -0.209162   9 O  lx              100      0.209162   9 O  ly        

 Vector   56  Occ=0.000000D+00  E= 1.241828D-01  Symmetry=e'
   Bfn.  Coefficient  Atom+Function         Bfn.  Coefficient  Atom+Function  
  ----- ------------  ---------------      ----- ------------  ---------------
    16      0.655228   1 Fe ly               15      0.465376   1 Fe lx        
    37     -0.378219   2 C  ly               46     -0.378219   3 C  ly        
    12     -0.343409   1 Fe ly               45     -0.268630   3 C  lx        
    36     -0.268630   2 C  lx               11     -0.243906   1 Fe lx        
    55      0.236117   4 O  ly               64      0.236117   5 O  ly        

 Vector   57  Occ=0.000000D+00  E= 1.241828D-01  Symmetry=e'
   Bfn.  Coefficient  Atom+Function         Bfn.  Coefficient  Atom+Function  
  ----- ------------  ---------------      ----- ------------  ---------------
    15      0.655228   1 Fe lx               16     -0.465376   1 Fe ly        
    45     -0.378219   3 C  lx               36     -0.378219   2 C  lx        
    11     -0.343409   1 Fe lx               37      0.268630   2 C  ly        
    46      0.268630   3 C  ly               12      0.243906   1 Fe ly        
    63      0.236117   5 O  lx               54      0.236117   4 O  lx        

 Vector   58  Occ=0.000000D+00  E= 1.381889D-01  Symmetry=a2"
   Bfn.  Coefficient  Atom+Function         Bfn.  Coefficient  Atom+Function  
  ----- ------------  ---------------      ----- ------------  ---------------
    13      1.419024   1 Fe lz               17     -1.157077   1 Fe lz        
    35     -0.491321   2 C  ls               44      0.491321   3 C  ls        
    38      0.388577   2 C  lz               47      0.388577   3 C  lz        
    74      0.272236   6 C  lz               83      0.272236   7 C  lz        
    92      0.272236   8 C  lz               70      0.231566   6 C  lz        

 Vector   59  Occ=0.000000D+00  E= 1.555099D-01  Symmetry=e'
   Bfn.  Coefficient  Atom+Function         Bfn.  Coefficient  Atom+Function  
  ----- ------------  ---------------      ----- ------------  ---------------
    15      0.351837   1 Fe lx               16     -0.348064   1 Fe ly        
    73      0.315117   6 C  ly               72     -0.314879   6 C  lx        
    27     -0.301418   1 Fe dyy              24      0.301418   1 Fe dxx       
    21     -0.286626   1 Fe dyy              18      0.286626   1 Fe dxx       
    80     -0.256567   7 C  ls               89      0.254975   8 C  ls        

 Vector   60  Occ=0.000000D+00  E= 1.555099D-01  Symmetry=e'
   Bfn.  Coefficient  Atom+Function         Bfn.  Coefficient  Atom+Function  
  ----- ------------  ---------------      ----- ------------  ---------------
    25      0.602836   1 Fe dxy              19      0.573252   1 Fe dxy       
    82      0.377805   7 C  ly               90      0.375560   8 C  lx        
    16     -0.351837   1 Fe ly               15     -0.348064   1 Fe lx        
    71     -0.295339   6 C  ls               78      0.243694   7 C  ly        
    86      0.242104   8 C  lx              109     -0.232678  10 O  ly        

 Vector   61  Occ=0.000000D+00  E= 2.046553D-01  Symmetry=e"
   Bfn.  Coefficient  Atom+Function         Bfn.  Coefficient  Atom+Function  
  ----- ------------  ---------------      ----- ------------  ---------------
    92      0.485835   8 C  lz               46     -0.365327   3 C  ly        
    37      0.365327   2 C  ly              119     -0.329461  11 O  lz        
    88      0.323811   8 C  lz               74     -0.288862   6 C  lz        
    42     -0.257563   3 C  ly               33      0.257563   2 C  ly        
    64      0.237992   5 O  ly               55     -0.237992   4 O  ly        

 Vector   62  Occ=0.000000D+00  E= 2.046553D-01  Symmetry=e"
   Bfn.  Coefficient  Atom+Function         Bfn.  Coefficient  Atom+Function  
  ----- ------------  ---------------      ----- ------------  ---------------
    83      0.447272   7 C  lz               74     -0.394220   6 C  lz        
    36      0.365327   2 C  lx               45     -0.365327   3 C  lx        
   110     -0.303310  10 O  lz               79      0.298108   7 C  lz        
   101      0.267334   9 O  lz               70     -0.262749   6 C  lz        
    32      0.257563   2 C  lx               41     -0.257563   3 C  lx        

 Vector   63  Occ=0.000000D+00  E= 2.805607D-01  Symmetry=a1'
   Bfn.  Coefficient  Atom+Function         Bfn.  Coefficient  Atom+Function  
  ----- ------------  ---------------      ----- ------------  ---------------
    29      0.523678   1 Fe dzz              35     -0.509030   2 C  ls        
    44     -0.509030   3 C  ls               62      0.493866   5 O  ls        
    53      0.493866   4 O  ls               23      0.472782   1 Fe dzz       
    10     -0.427693   1 Fe ls               38     -0.426300   2 C  lz        
    47      0.426300   3 C  lz               71      0.357230   6 C  ls        

 Vector   64  Occ=0.000000D+00  E= 4.961050D-01  Symmetry=a2"
   Bfn.  Coefficient  Atom+Function         Bfn.  Coefficient  Atom+Function  
  ----- ------------  ---------------      ----- ------------  ---------------
    13      4.252689   1 Fe lz               38      1.887975   2 C  lz        
    47      1.887975   3 C  lz               17     -1.310401   1 Fe lz        
    53     -1.054872   4 O  ls               62      1.054872   5 O  ls        
    44      0.974399   3 C  ls               35     -0.974399   2 C  ls        
    83     -0.408066   7 C  lz               92     -0.408066   8 C  lz        

 Vector   65  Occ=0.000000D+00  E= 5.028699D-01  Symmetry=a1'
   Bfn.  Coefficient  Atom+Function         Bfn.  Coefficient  Atom+Function  
  ----- ------------  ---------------      ----- ------------  ---------------
    10      1.389091   1 Fe ls               44     -1.201632   3 C  ls        
    35     -1.201632   2 C  ls               71     -1.074803   6 C  ls        
    80     -1.074803   7 C  ls               89     -1.074803   8 C  ls        
    53      0.626843   4 O  ls               62      0.626843   5 O  ls        
    14      0.578790   1 Fe ls               98      0.484533   9 O  ls        


 center of mass
 --------------
 x =   0.00000000 y =   0.00000000 z =   0.00000000

 moments of inertia (a.u.)
 ------------------
        2255.012792094188           0.000000000000           0.000000000000
           0.000000000000        2255.012792094188           0.000000000000
           0.000000000000           0.000000000000        1950.260605202691

  Mulliken analysis of the total density
  --------------------------------------

    Atom       Charge   Shell Charges
 -----------   ------   -------------------------------------------------------
    1 Fe  26    25.25   1.99  8.00  7.65  0.94  0.21  3.00  3.45
    2 C    6     5.71   1.99  1.78  1.94
    3 C    6     5.71   1.99  1.78  1.94
    4 O    8     8.47   1.99  2.51  3.98
    5 O    8     8.47   1.99  2.51  3.98
    6 C    6     5.63   1.99  1.77  1.87
    7 C    6     5.63   1.99  1.77  1.87
    8 C    6     5.63   1.99  1.77  1.87
    9 O    8     8.50   1.99  2.51  4.00
   10 O    8     8.50   1.99  2.51  4.00
   11 O    8     8.50   1.99  2.51  4.00

 Parallel integral file used      48 records with       0 large values


 Task  times  cpu:        1.4s     wall:        1.6s


                                NWChem Input Module
                                -------------------


               case s3a: fe(co)5 --- Semi-direct SCF ... 75% caching
               -----------------------------------------------------
                                 NWChem SCF Module
                                 -----------------


               case s3a: fe(co)5 --- Semi-direct SCF ... 75% caching



  ao basis        = "ao basis"
  functions       =   119
  atoms           =    11
  closed shells   =    48
  open shells     =     0
  charge          =   0.00
  wavefunction    = RHF 
  input vectors   = atomic
  output vectors  = ./scf_feco5.movecs
  use symmetry    = T
  symmetry adapt  = T


 Summary of "ao basis" -> "ao basis" (cartesian)
 ------------------------------------------------------------------------------
       Tag                 Description            Shells   Functions and Types
 ---------------- ------------------------------  ------  ---------------------
 fe                          3-21g                   7       29   5s4p2d
 o                           3-21g                   3        9   3s2p
 c                           3-21g                   3        9   3s2p


      Symmetry analysis of basis
      --------------------------

        a1'        29
        a1"         0
        a2'         4
        a2"        18
        e'         48
        e"         20


 Forming initial guess at       1.8s


      Superposition of Atomic Density Guess
      -------------------------------------

 Sum of atomic energies:       -1815.24436401

 Integral file          = ./scf_feco5.aoints.0
 Record size in doubles =  65536        No. of integs per rec  =  65534
 Max. records in memory =      0        Max. records in file   =      3
 No. of bits per label  =      8        No. of bits per value  =     32


 #quartets = 2.040D+04 #integrals = 1.483D+06 #direct = 33.0% #cached = 67.0%


      Non-variational initial energy
      ------------------------------

 Total energy =   -1818.607109
 1-e energy   =   -4094.538473
 2-e energy   =    1477.435746
 HOMO         =      -0.233831
 LUMO         =      -0.015290


      Symmetry analysis of molecular orbitals - initial
      -------------------------------------------------

  Numbering of irreducible representations: 

     1 a1'         2 a1"         3 a2'         4 a2"         5 e'      
     6 e"      

  Orbital symmetries:

     1 a1'         2 a1'         3 a2"         4 e'          5 e'      
     6 a1'         7 a1'         8 a2"         9 e'         10 e'      
    11 a1'        12 a2"        13 a1'        14 e'         15 e'      
    16 a1'        17 a2"        18 e'         19 e'         20 a1'     
    21 a2"        22 e'         23 e'         24 a1'        25 a1'     
    26 a2"        27 e'         28 e'         29 a1'        30 a1'     
    31 e"         32 e"         33 a2"        34 e'         35 e'      
    36 e'         37 e'         38 a2'        39 e"         40 e"      
    41 a1'        42 e'         43 e'         44 a2"        45 e"      
    46 e"         47 e'         48 e'         49 a1'        50 e"      
    51 e"         52 e'         53 e'         54 a2"        55 a2'     
    56 e'         57 e'         58 a1'     


 Starting SCF solution at       2.0s



 ----------------------------------------------
         Quadratically convergent ROHF

 Convergence threshold     :          1.000E-04
 Maximum no. of iterations :           30
 Final Fock-matrix accuracy:          1.000E-07
 ----------------------------------------------


              iter       energy          gnorm     gmax       time
             ----- ------------------- --------- --------- --------
                 1    -1816.3884287843  1.87D+00  5.01D-01      1.8
                 2    -1816.6015419650  7.93D-01  2.38D-01      2.0
                 3    -1816.6471692918  5.87D-01  2.10D-01      2.0
                 4    -1816.6610446211  3.06D-01  9.19D-02      2.2
                 5    -1816.6770962885  7.76D-02  3.82D-02      2.6
                 6    -1816.6775061054  4.06D-03  1.37D-03      2.9
                 7    -1816.6775095277  2.04D-05  7.53D-06      3.4


       Final RHF  results 
       ------------------ 

         Total SCF energy =  -1816.677509527715
      One-electron energy =  -4092.290743698657
      Two-electron energy =   1477.117616076751
 Nuclear repulsion energy =    798.495618094190

        Time for solution =      1.7s



       Symmetry analysis of molecular orbitals - final
       -----------------------------------------------

  Numbering of irreducible representations: 

     1 a1'         2 a1"         3 a2'         4 a2"         5 e'      
     6 e"      

  Orbital symmetries:

     1 a1'         2 a1'         3 a2"         4 e'          5 e'      
     6 a1'         7 a2"         8 a1'         9 e'         10 e'      
    11 a2"        12 a1'        13 a1'        14 e'         15 e'      
    16 a1'        17 a2"        18 e'         19 e'         20 a1'     
    21 a2"        22 a1'        23 e'         24 e'         25 a1'     
    26 a2"        27 e'         28 e'         29 a1'        30 a1'     
    31 e"         32 e"         33 a2"        34 e'         35 e'      
    36 e'         37 e'         38 a2'        39 e"         40 e"      
    41 e'         42 e'         43 a1'        44 a2"        45 e"      
    46 e"         47 e'         48 e'         49 e"         50 e"      
    51 a1'        52 a2"        53 e'         54 e'         55 a2'     
    56 e'         57 e'         58 a2"     

             Final eigenvalues
             -----------------

              1      
    1 -259.8147
    2  -31.8753
    3  -27.3166
    4  -27.3115
    5  -27.3115
    6  -20.6092
    7  -20.6087
    8  -20.5806
    9  -20.5801
   10  -20.5801
   11  -11.3717
   12  -11.3710
   13  -11.3538
   14  -11.3529
   15  -11.3529
   16   -4.1718
   17   -2.7392
   18   -2.7276
   19   -2.7276
   20   -1.5608
   21   -1.5603
   22   -1.5360
   23   -1.5350
   24   -1.5350
   25   -0.8706
   26   -0.8228
   27   -0.8008
   28   -0.8008
   29   -0.7991
   30   -0.7302
   31   -0.6834
   32   -0.6834
   33   -0.6770
   34   -0.6765
   35   -0.6765
   36   -0.6546
   37   -0.6546
   38   -0.6418
   39   -0.6322
   40   -0.6322
   41   -0.6288
   42   -0.6288
   43   -0.6193
   44   -0.6050
   45   -0.4815
   46   -0.4815
   47   -0.3311
   48   -0.3311
   49    0.0763
   50    0.0763
   51    0.0986
   52    0.1049
   53    0.1093
   54    0.1093
   55    0.1213
   56    0.1242
   57    0.1242
   58    0.1382

                       ROHF Final Molecular Orbital Analysis
                       -------------------------------------

 Vector   25  Occ=2.000000D+00  E=-8.706148D-01  Symmetry=a1'
   Bfn.  Coefficient  Atom+Function         Bfn.  Coefficient  Atom+Function  
  ----- ------------  ---------------      ----- ------------  ---------------
    44      0.302347   3 C  ls               35      0.302347   2 C  ls        
     6     -0.211001   1 Fe ls               62     -0.208837   5 O  ls        
    53     -0.208837   4 O  ls               71      0.206865   6 C  ls        
    80      0.206865   7 C  ls               89      0.206865   8 C  ls        

 Vector   26  Occ=2.000000D+00  E=-8.227912D-01  Symmetry=a2"
   Bfn.  Coefficient  Atom+Function         Bfn.  Coefficient  Atom+Function  
  ----- ------------  ---------------      ----- ------------  ---------------
    44      0.357609   3 C  ls               35     -0.357609   2 C  ls        
    53      0.332295   4 O  ls               62     -0.332295   5 O  ls        
    61      0.244330   5 O  lz               52      0.244330   4 O  lz        
    65      0.216736   5 O  lz               56      0.216736   4 O  lz        

 Vector   27  Occ=2.000000D+00  E=-8.007896D-01  Symmetry=e'
   Bfn.  Coefficient  Atom+Function         Bfn.  Coefficient  Atom+Function  
  ----- ------------  ---------------      ----- ------------  ---------------
    80      0.348544   7 C  ls              107     -0.346699  10 O  ls        
    89     -0.292059   8 C  ls              116      0.290513  11 O  ls        
   104      0.248521  10 O  lx              108      0.226648  10 O  lx        
   114     -0.208308  11 O  ly              118     -0.189624  11 O  ly        
    76      0.153903   7 C  ls        

 Vector   28  Occ=2.000000D+00  E=-8.007896D-01  Symmetry=e'
   Bfn.  Coefficient  Atom+Function         Bfn.  Coefficient  Atom+Function  
  ----- ------------  ---------------      ----- ------------  ---------------
    71      0.369852   6 C  ls               98     -0.367895   9 O  ls        
    89     -0.233844   8 C  ls              116      0.232606  11 O  ls        
    95     -0.193078   9 O  lx               96     -0.192915   9 O  ly        
   100     -0.176696   9 O  ly               99     -0.175942   9 O  lx        
   114     -0.166535  11 O  ly               67      0.163311   6 C  ls        

 Vector   29  Occ=2.000000D+00  E=-7.991258D-01  Symmetry=a1'
   Bfn.  Coefficient  Atom+Function         Bfn.  Coefficient  Atom+Function  
  ----- ------------  ---------------      ----- ------------  ---------------
    62      0.210119   5 O  ls               53      0.210119   4 O  ls        
    61     -0.195828   5 O  lz               52      0.195828   4 O  lz        
    89      0.195230   8 C  ls               71      0.195230   6 C  ls        
    80      0.195230   7 C  ls               65     -0.184963   5 O  lz        
    56      0.184963   4 O  lz               98     -0.178899   9 O  ls        

 Vector   30  Occ=2.000000D+00  E=-7.302358D-01  Symmetry=a1'
   Bfn.  Coefficient  Atom+Function         Bfn.  Coefficient  Atom+Function  
  ----- ------------  ---------------      ----- ------------  ---------------
    43      0.202702   3 C  lz               34     -0.202702   2 C  lz        
    61     -0.195104   5 O  lz               52      0.195104   4 O  lz        
    65     -0.179477   5 O  lz               56      0.179477   4 O  lz        
   114     -0.164057  11 O  ly              104     -0.164057  10 O  lx        
     6     -0.152768   1 Fe ls              118     -0.152328  11 O  ly        

 Vector   31  Occ=2.000000D+00  E=-6.833727D-01  Symmetry=e"
   Bfn.  Coefficient  Atom+Function         Bfn.  Coefficient  Atom+Function  
  ----- ------------  ---------------      ----- ------------  ---------------
    26      0.266693   1 Fe dxz              20      0.260655   1 Fe dxz       
    63     -0.253861   5 O  lx               54      0.253861   4 O  lx        
    50      0.248406   4 O  lx               59     -0.248406   5 O  lx        
    32      0.170153   2 C  lx               41     -0.170153   3 C  lx        
    36      0.162899   2 C  lx               45     -0.162899   3 C  lx        

 Vector   32  Occ=2.000000D+00  E=-6.833727D-01  Symmetry=e"
   Bfn.  Coefficient  Atom+Function         Bfn.  Coefficient  Atom+Function  
  ----- ------------  ---------------      ----- ------------  ---------------
    28      0.266693   1 Fe dyz              22      0.260655   1 Fe dyz       
    64     -0.253861   5 O  ly               55      0.253861   4 O  ly        
    60     -0.248406   5 O  ly               51      0.248406   4 O  ly        
    42     -0.170153   3 C  ly               33      0.170153   2 C  ly        
    46     -0.162899   3 C  ly               37      0.162899   2 C  ly        

 Vector   33  Occ=2.000000D+00  E=-6.769748D-01  Symmetry=a2"
   Bfn.  Coefficient  Atom+Function         Bfn.  Coefficient  Atom+Function  
  ----- ------------  ---------------      ----- ------------  ---------------
    35      0.332188   2 C  ls               44     -0.332188   3 C  ls        
    34     -0.228306   2 C  lz               43     -0.228306   3 C  lz        
    52      0.174131   4 O  lz               61      0.174131   5 O  lz        
     9     -0.169746   1 Fe lz               38     -0.160558   2 C  lz        
    47     -0.160558   3 C  lz               56      0.158358   4 O  lz        

 Vector   34  Occ=2.000000D+00  E=-6.764663D-01  Symmetry=e'
   Bfn.  Coefficient  Atom+Function         Bfn.  Coefficient  Atom+Function  
  ----- ------------  ---------------      ----- ------------  ---------------
    54      0.216305   4 O  lx               63      0.216305   5 O  lx        
    80     -0.215207   7 C  ls               50      0.208298   4 O  lx        
    59      0.208298   5 O  lx               77     -0.171032   7 C  lx        
    89      0.164860   8 C  ls        

 Vector   35  Occ=2.000000D+00  E=-6.764663D-01  Symmetry=e'
   Bfn.  Coefficient  Atom+Function         Bfn.  Coefficient  Atom+Function  
  ----- ------------  ---------------      ----- ------------  ---------------
    71      0.219432   6 C  ls               64      0.216305   5 O  ly        
    55      0.216305   4 O  ly               60      0.208298   5 O  ly        
    51      0.208298   4 O  ly               89     -0.153317   8 C  ls        

 Vector   36  Occ=2.000000D+00  E=-6.546475D-01  Symmetry=e'
   Bfn.  Coefficient  Atom+Function         Bfn.  Coefficient  Atom+Function  
  ----- ------------  ---------------      ----- ------------  ---------------
   117      0.312726  11 O  lx              113      0.302555  11 O  lx        
   100     -0.201677   9 O  ly               86      0.199546   8 C  lx        
    96     -0.196811   9 O  ly               90      0.182969   8 C  lx        
    68      0.155006   6 C  lx        

 Vector   37  Occ=2.000000D+00  E=-6.546475D-01  Symmetry=e'
   Bfn.  Coefficient  Atom+Function         Bfn.  Coefficient  Atom+Function  
  ----- ------------  ---------------      ----- ------------  ---------------
   109      0.310583  10 O  ly              105      0.300464  10 O  ly        
    99     -0.204541   9 O  lx               95     -0.199551   9 O  lx        
    78      0.199013   7 C  ly               82      0.182259   7 C  ly        
    69      0.156072   6 C  ly        

 Vector   38  Occ=2.000000D+00  E=-6.417544D-01  Symmetry=a2'
   Bfn.  Coefficient  Atom+Function         Bfn.  Coefficient  Atom+Function  
  ----- ------------  ---------------      ----- ------------  ---------------
   109      0.267422  10 O  ly              117     -0.267422  11 O  lx        
   105      0.250407  10 O  ly              113     -0.250407  11 O  lx        
   100     -0.195767   9 O  ly               99      0.195767   9 O  lx        
    96     -0.183310   9 O  ly               95      0.183310   9 O  lx        

 Vector   39  Occ=2.000000D+00  E=-6.322426D-01  Symmetry=e"
   Bfn.  Coefficient  Atom+Function         Bfn.  Coefficient  Atom+Function  
  ----- ------------  ---------------      ----- ------------  ---------------
   119      0.321461  11 O  lz              115      0.302515  11 O  lz        
   110     -0.212829  10 O  lz              106     -0.200286  10 O  lz        
    88      0.185624   8 C  lz               92      0.179833   8 C  lz        
    55      0.158976   4 O  ly               64     -0.158976   5 O  ly        

 Vector   40  Occ=2.000000D+00  E=-6.322426D-01  Symmetry=e"
   Bfn.  Coefficient  Atom+Function         Bfn.  Coefficient  Atom+Function  
  ----- ------------  ---------------      ----- ------------  ---------------
   101      0.308473   9 O  lz               97      0.290292   9 O  lz        
   110     -0.248314  10 O  lz              106     -0.233679  10 O  lz        
    70      0.178124   6 C  lz               74      0.172567   6 C  lz        
    54     -0.158976   4 O  lx               63      0.158976   5 O  lx        

 Vector   41  Occ=2.000000D+00  E=-6.288249D-01  Symmetry=e'
   Bfn.  Coefficient  Atom+Function         Bfn.  Coefficient  Atom+Function  
  ----- ------------  ---------------      ----- ------------  ---------------
    71      0.407888   6 C  ls               25      0.223943   1 Fe dxy       
    89     -0.223672   8 C  ls               19      0.199910   1 Fe dxy       
    80     -0.184216   7 C  ls               68     -0.183204   6 C  lx        
    69     -0.178736   6 C  ly               55     -0.154108   4 O  ly        
    64     -0.154108   5 O  ly        

 Vector   42  Occ=2.000000D+00  E=-6.288249D-01  Symmetry=e'
   Bfn.  Coefficient  Atom+Function         Bfn.  Coefficient  Atom+Function  
  ----- ------------  ---------------      ----- ------------  ---------------
    80      0.364632   7 C  ls               89     -0.341852   8 C  ls        
    77      0.227605   7 C  lx               87     -0.215215   8 C  ly        
    81      0.169453   7 C  lx               91     -0.160513   8 C  ly        
    54      0.154108   4 O  lx               63      0.154108   5 O  lx        

 Vector   43  Occ=2.000000D+00  E=-6.193138D-01  Symmetry=a1'
   Bfn.  Coefficient  Atom+Function         Bfn.  Coefficient  Atom+Function  
  ----- ------------  ---------------      ----- ------------  ---------------
    35      0.347213   2 C  ls               44      0.347213   3 C  ls        
    89     -0.268283   8 C  ls               71     -0.268283   6 C  ls        
    80     -0.268283   7 C  ls               34     -0.198417   2 C  lz        
    43      0.198417   3 C  lz               29      0.195139   1 Fe dzz       
    87     -0.177195   8 C  ly               77     -0.177195   7 C  lx        

 Vector   44  Occ=2.000000D+00  E=-6.050385D-01  Symmetry=a2"
   Bfn.  Coefficient  Atom+Function         Bfn.  Coefficient  Atom+Function  
  ----- ------------  ---------------      ----- ------------  ---------------
    44     -0.284853   3 C  ls               35      0.284853   2 C  ls        
   119     -0.227715  11 O  lz              110     -0.227715  10 O  lz        
   101     -0.227715   9 O  lz              115     -0.210987  11 O  lz        
   106     -0.210987  10 O  lz               97     -0.210987   9 O  lz        
    43     -0.185392   3 C  lz               34     -0.185392   2 C  lz        

 Vector   45  Occ=2.000000D+00  E=-4.815084D-01  Symmetry=e"
   Bfn.  Coefficient  Atom+Function         Bfn.  Coefficient  Atom+Function  
  ----- ------------  ---------------      ----- ------------  ---------------
    26      0.897486   1 Fe dxz              20      0.875298   1 Fe dxz       
    28      0.190364   1 Fe dyz              22      0.185657   1 Fe dyz       
    63      0.167852   5 O  lx               54     -0.167852   4 O  lx        
   110      0.155544  10 O  lz        

 Vector   46  Occ=2.000000D+00  E=-4.815084D-01  Symmetry=e"
   Bfn.  Coefficient  Atom+Function         Bfn.  Coefficient  Atom+Function  
  ----- ------------  ---------------      ----- ------------  ---------------
    28      0.897486   1 Fe dyz              22      0.875298   1 Fe dyz       
    26     -0.190364   1 Fe dxz              20     -0.185657   1 Fe dxz       
   119      0.174290  11 O  lz               55     -0.167852   4 O  ly        
    64      0.167852   5 O  ly        

 Vector   47  Occ=2.000000D+00  E=-3.311260D-01  Symmetry=e'
   Bfn.  Coefficient  Atom+Function         Bfn.  Coefficient  Atom+Function  
  ----- ------------  ---------------      ----- ------------  ---------------
    11      0.659848   1 Fe lx               12     -0.490315   1 Fe ly        
    24      0.347726   1 Fe dxx              27     -0.347726   1 Fe dyy       
    18      0.327447   1 Fe dxx              21     -0.327447   1 Fe dyy       
    80      0.196872   7 C  ls               89     -0.165992   8 C  ls        
   100      0.162964   9 O  ly               99     -0.150837   9 O  lx        

 Vector   48  Occ=2.000000D+00  E=-3.311260D-01  Symmetry=e'
   Bfn.  Coefficient  Atom+Function         Bfn.  Coefficient  Atom+Function  
  ----- ------------  ---------------      ----- ------------  ---------------
    25      0.695452   1 Fe dxy              12     -0.659848   1 Fe ly        
    19      0.654893   1 Fe dxy              11     -0.490315   1 Fe lx        
    71      0.209499   6 C  ls              109      0.207017  10 O  ly        
   117      0.179270  11 O  lx              105      0.150182  10 O  ly        

 Vector   49  Occ=0.000000D+00  E= 7.628323D-02  Symmetry=e"
   Bfn.  Coefficient  Atom+Function         Bfn.  Coefficient  Atom+Function  
  ----- ------------  ---------------      ----- ------------  ---------------
    22      0.323414   1 Fe dyz              28      0.308546   1 Fe dyz       
    20     -0.305021   1 Fe dxz              26     -0.290998   1 Fe dxz       
    92      0.277931   8 C  lz               83     -0.268694   7 C  lz        
    37     -0.238640   2 C  ly               46      0.238640   3 C  ly        
   119     -0.227570  11 O  lz               36      0.225068   2 C  lx        

 Vector   50  Occ=0.000000D+00  E= 7.628323D-02  Symmetry=e"
   Bfn.  Coefficient  Atom+Function         Bfn.  Coefficient  Atom+Function  
  ----- ------------  ---------------      ----- ------------  ---------------
    20      0.323414   1 Fe dxz              74     -0.315595   6 C  lz        
    26      0.308546   1 Fe dxz              22      0.305021   1 Fe dyz       
    28      0.290998   1 Fe dyz             101      0.258409   9 O  lz        
    36     -0.238640   2 C  lx               45      0.238640   3 C  lx        
    37     -0.225068   2 C  ly               46      0.225068   3 C  ly        

 Vector   51  Occ=0.000000D+00  E= 9.863442D-02  Symmetry=a1'
   Bfn.  Coefficient  Atom+Function         Bfn.  Coefficient  Atom+Function  
  ----- ------------  ---------------      ----- ------------  ---------------
    14      2.202287   1 Fe ls               10     -1.364446   1 Fe ls        
    89     -0.224503   8 C  ls               80     -0.224503   7 C  ls        
    71     -0.224503   6 C  ls               35     -0.170321   2 C  ls        
    44     -0.170321   3 C  ls        

 Vector   52  Occ=0.000000D+00  E= 1.049467D-01  Symmetry=a2"
   Bfn.  Coefficient  Atom+Function         Bfn.  Coefficient  Atom+Function  
  ----- ------------  ---------------      ----- ------------  ---------------
    17      1.309582   1 Fe lz               13     -0.400100   1 Fe lz        
    44      0.341403   3 C  ls               35     -0.341403   2 C  ls        
   110     -0.179072  10 O  lz              101     -0.179072   9 O  lz        
   119     -0.179072  11 O  lz        

 Vector   53  Occ=0.000000D+00  E= 1.093123D-01  Symmetry=e'
   Bfn.  Coefficient  Atom+Function         Bfn.  Coefficient  Atom+Function  
  ----- ------------  ---------------      ----- ------------  ---------------
    16      0.941196   1 Fe ly               15      0.935300   1 Fe lx        
    12     -0.496065   1 Fe ly               11     -0.492958   1 Fe lx        
    71     -0.320674   6 C  ls               19      0.285093   1 Fe dxy       
    25      0.274538   1 Fe dxy              89      0.161209   8 C  ls        
    80      0.159464   7 C  ls        

 Vector   54  Occ=0.000000D+00  E= 1.093123D-01  Symmetry=e'
   Bfn.  Coefficient  Atom+Function         Bfn.  Coefficient  Atom+Function  
  ----- ------------  ---------------      ----- ------------  ---------------
    15      0.941196   1 Fe lx               16     -0.935300   1 Fe ly        
    11     -0.496065   1 Fe lx               12      0.492958   1 Fe ly        
    80      0.278215   7 C  ls               89     -0.277208   8 C  ls        
    81     -0.150694   7 C  lx               91      0.150152   8 C  ly        

 Vector   55  Occ=0.000000D+00  E= 1.213409D-01  Symmetry=a2'
   Bfn.  Coefficient  Atom+Function         Bfn.  Coefficient  Atom+Function  
  ----- ------------  ---------------      ----- ------------  ---------------
    90      0.403846   8 C  lx               82     -0.403846   7 C  ly        
    72     -0.295636   6 C  lx               73      0.295636   6 C  ly        
   117     -0.285720  11 O  lx              109      0.285720  10 O  ly        
    78     -0.260069   7 C  ly               86      0.260069   8 C  lx        
   100     -0.209162   9 O  ly               99      0.209162   9 O  lx        

 Vector   56  Occ=0.000000D+00  E= 1.241828D-01  Symmetry=e'
   Bfn.  Coefficient  Atom+Function         Bfn.  Coefficient  Atom+Function  
  ----- ------------  ---------------      ----- ------------  ---------------
    16      0.787619   1 Fe ly               37     -0.454643   2 C  ly        
    46     -0.454643   3 C  ly               12     -0.412794   1 Fe ly        
    55      0.283827   4 O  ly               64      0.283827   5 O  ly        
    42     -0.282707   3 C  ly               33     -0.282707   2 C  ly        
    60      0.167600   5 O  ly               51      0.167600   4 O  ly        

 Vector   57  Occ=0.000000D+00  E= 1.241828D-01  Symmetry=e'
   Bfn.  Coefficient  Atom+Function         Bfn.  Coefficient  Atom+Function  
  ----- ------------  ---------------      ----- ------------  ---------------
    15      0.787619   1 Fe lx               45     -0.454643   3 C  lx        
    36     -0.454643   2 C  lx               11     -0.412794   1 Fe lx        
    63      0.283827   5 O  lx               54      0.283827   4 O  lx        
    41     -0.282707   3 C  lx               32     -0.282707   2 C  lx        
    59      0.167600   5 O  lx               50      0.167600   4 O  lx        

 Vector   58  Occ=0.000000D+00  E= 1.381889D-01  Symmetry=a2"
   Bfn.  Coefficient  Atom+Function         Bfn.  Coefficient  Atom+Function  
  ----- ------------  ---------------      ----- ------------  ---------------
    13      1.419023   1 Fe lz               17     -1.157078   1 Fe lz        
    35     -0.491320   2 C  ls               44      0.491320   3 C  ls        
    38      0.388577   2 C  lz               47      0.388577   3 C  lz        
    92      0.272236   8 C  lz               74      0.272236   6 C  lz        
    83      0.272236   7 C  lz               88      0.231566   8 C  lz        

 Vector   59  Occ=0.000000D+00  E= 1.555100D-01  Symmetry=e'
   Bfn.  Coefficient  Atom+Function         Bfn.  Coefficient  Atom+Function  
  ----- ------------  ---------------      ----- ------------  ---------------
    15      0.480763   1 Fe lx               90     -0.373443   8 C  lx        
    25     -0.312906   1 Fe dxy              19     -0.297550   1 Fe dxy       
    11     -0.295428   1 Fe lx               80     -0.295272   7 C  ls        
    73      0.280695   6 C  ly               72     -0.257799   6 C  lx        
    24      0.257639   1 Fe dxx              27     -0.257639   1 Fe dyy       

 Vector   60  Occ=0.000000D+00  E= 1.555100D-01  Symmetry=e'
   Bfn.  Coefficient  Atom+Function         Bfn.  Coefficient  Atom+Function  
  ----- ------------  ---------------      ----- ------------  ---------------
    25      0.515278   1 Fe dxy              19      0.489992   1 Fe dxy       
    16     -0.480763   1 Fe ly               82      0.430018   7 C  ly        
    12      0.295428   1 Fe ly               78      0.284150   7 C  ly        
   109     -0.280201  10 O  ly               89      0.258982   8 C  ls        
    71     -0.252444   6 C  ls               90      0.213928   8 C  lx        

 Vector   61  Occ=0.000000D+00  E= 2.046554D-01  Symmetry=e"
   Bfn.  Coefficient  Atom+Function         Bfn.  Coefficient  Atom+Function  
  ----- ------------  ---------------      ----- ------------  ---------------
    92      0.436428   8 C  lz               74     -0.408702   6 C  lz        
    46     -0.361904   3 C  ly               37      0.361904   2 C  ly        
   119     -0.295957  11 O  lz               88      0.290881   8 C  lz        
   101      0.277155   9 O  lz               70     -0.272401   6 C  lz        
    42     -0.255150   3 C  ly               33      0.255150   2 C  ly        

 Vector   62  Occ=0.000000D+00  E= 2.046554D-01  Symmetry=e"
   Bfn.  Coefficient  Atom+Function         Bfn.  Coefficient  Atom+Function  
  ----- ------------  ---------------      ----- ------------  ---------------
    83      0.487936   7 C  lz               36      0.361904   2 C  lx        
    45     -0.361904   3 C  lx              110     -0.330886  10 O  lz        
    79      0.325211   7 C  lz               74     -0.267979   6 C  lz        
    32      0.255150   2 C  lx               41     -0.255150   3 C  lx        
    54     -0.235762   4 O  lx               63      0.235762   5 O  lx        

 Vector   63  Occ=0.000000D+00  E= 2.805609D-01  Symmetry=a1'
   Bfn.  Coefficient  Atom+Function         Bfn.  Coefficient  Atom+Function  
  ----- ------------  ---------------      ----- ------------  ---------------
    29      0.523678   1 Fe dzz              44     -0.509026   3 C  ls        
    35     -0.509026   2 C  ls               62      0.493871   5 O  ls        
    53      0.493871   4 O  ls               23      0.472781   1 Fe dzz       
    10     -0.427731   1 Fe ls               38     -0.426309   2 C  lz        
    47      0.426309   3 C  lz               89      0.357234   8 C  ls        

 Vector   64  Occ=0.000000D+00  E= 4.961047D-01  Symmetry=a2"
   Bfn.  Coefficient  Atom+Function         Bfn.  Coefficient  Atom+Function  
  ----- ------------  ---------------      ----- ------------  ---------------
    13      4.252691   1 Fe lz               47      1.887976   3 C  lz        
    38      1.887976   2 C  lz               17     -1.310403   1 Fe lz        
    53     -1.054872   4 O  ls               62      1.054872   5 O  ls        
    44      0.974399   3 C  ls               35     -0.974399   2 C  ls        
    83     -0.408066   7 C  lz               92     -0.408066   8 C  lz        

 Vector   65  Occ=0.000000D+00  E= 5.028706D-01  Symmetry=a1'
   Bfn.  Coefficient  Atom+Function         Bfn.  Coefficient  Atom+Function  
  ----- ------------  ---------------      ----- ------------  ---------------
    10      1.389125   1 Fe ls               35     -1.201639   2 C  ls        
    44     -1.201639   3 C  ls               80     -1.074801   7 C  ls        
    71     -1.074801   6 C  ls               89     -1.074801   8 C  ls        
    62      0.626849   5 O  ls               53      0.626849   4 O  ls        
    14      0.578777   1 Fe ls               98      0.484521   9 O  ls        


------------------------------------------------------------
EAF file 0: "./scf_feco5.aoints.0" size=2097152 bytes
------------------------------------------------------------
               write      read    awrite     aread      wait
               -----      ----    ------     -----      ----
     calls:        4        26         0        78        78
   data(b): 2.10e+06  1.36e+07  0.00e+00  4.09e+07
   time(s): 2.92e-03  1.55e-02  0.00e+00  2.86e-02  3.60e-05
rate(mb/s): 7.19e+02  8.79e+02  0.00e+00* 1.43e+03*
------------------------------------------------------------
* = Effective rate.  Full wait time used for read and write.


 center of mass
 --------------
 x =   0.00000000 y =   0.00000000 z =   0.00000000

 moments of inertia (a.u.)
 ------------------
        2255.012792094188           0.000000000000           0.000000000000
           0.000000000000        2255.012792094188           0.000000000000
           0.000000000000           0.000000000000        1950.260605202691

  Mulliken analysis of the total density
  --------------------------------------

    Atom       Charge   Shell Charges
 -----------   ------   -------------------------------------------------------
    1 Fe  26    25.25   1.99  8.00  7.65  0.94  0.21  3.00  3.45
    2 C    6     5.71   1.99  1.78  1.94
    3 C    6     5.71   1.99  1.78  1.94
    4 O    8     8.47   1.99  2.51  3.98
    5 O    8     8.47   1.99  2.51  3.98
    6 C    6     5.63   1.99  1.77  1.87
    7 C    6     5.63   1.99  1.77  1.87
    8 C    6     5.63   1.99  1.77  1.87
    9 O    8     8.50   1.99  2.51  4.00
   10 O    8     8.50   1.99  2.51  4.00
   11 O    8     8.50   1.99  2.51  4.00

 Parallel integral file used      16 records with       0 large values


 Task  times  cpu:        2.0s     wall:        2.3s


                                NWChem Input Module
                                -------------------


               case s3b: fe(co)5 --- Semi-direct SCF ... 50% caching
               -----------------------------------------------------
                                 NWChem SCF Module
                                 -----------------


               case s3b: fe(co)5 --- Semi-direct SCF ... 50% caching



  ao basis        = "ao basis"
  functions       =   119
  atoms           =    11
  closed shells   =    48
  open shells     =     0
  charge          =   0.00
  wavefunction    = RHF 
  input vectors   = atomic
  output vectors  = ./scf_feco5.movecs
  use symmetry    = T
  symmetry adapt  = T


 Summary of "ao basis" -> "ao basis" (cartesian)
 ------------------------------------------------------------------------------
       Tag                 Description            Shells   Functions and Types
 ---------------- ------------------------------  ------  ---------------------
 fe                          3-21g                   7       29   5s4p2d
 o                           3-21g                   3        9   3s2p
 c                           3-21g                   3        9   3s2p


      Symmetry analysis of basis
      --------------------------

        a1'        29
        a1"         0
        a2'         4
        a2"        18
        e'         48
        e"         20


 Forming initial guess at       4.0s


      Superposition of Atomic Density Guess
      -------------------------------------

 Sum of atomic energies:       -1815.24436401

[...]
   119      0.304126  11 O  lz              115      0.286202  11 O  lz        
   101     -0.256216   9 O  lz               97     -0.241115   9 O  lz        
    88      0.175614   8 C  lz               64     -0.175121   5 O  ly        
    55      0.175121   4 O  ly               92      0.170135   8 C  lz        
    60     -0.161667   5 O  ly               51      0.161667   4 O  ly        

 Vector   40  Occ=2.000000D+00  E=-6.322427D-01  Symmetry=e"
   Bfn.  Coefficient  Atom+Function         Bfn.  Coefficient  Atom+Function  
  ----- ------------  ---------------      ----- ------------  ---------------
   110      0.323513  10 O  lz              106      0.304447  10 O  lz        
   101     -0.203248   9 O  lz               97     -0.191269   9 O  lz        
    79      0.186809   7 C  lz               83      0.180981   7 C  lz        
    63     -0.175121   5 O  lx               54      0.175121   4 O  lx        
    59     -0.161667   5 O  lx               50      0.161667   4 O  lx        

 Vector   41  Occ=2.000000D+00  E=-6.288249D-01  Symmetry=e'
   Bfn.  Coefficient  Atom+Function         Bfn.  Coefficient  Atom+Function  
  ----- ------------  ---------------      ----- ------------  ---------------
    80      0.394405   7 C  ls               71     -0.289409   6 C  ls        
    77      0.235217   7 C  lx               54      0.206736   4 O  lx        
    63      0.206736   5 O  lx               50      0.187971   4 O  lx        
    59      0.187971   5 O  lx               81      0.173416   7 C  lx        
   104     -0.162717  10 O  lx               25     -0.158895   1 Fe dxy       

 Vector   42  Occ=2.000000D+00  E=-6.288249D-01  Symmetry=e'
   Bfn.  Coefficient  Atom+Function         Bfn.  Coefficient  Atom+Function  
  ----- ------------  ---------------      ----- ------------  ---------------
    89      0.394800   8 C  ls               71     -0.288330   6 C  ls        
    87      0.235509   8 C  ly               55      0.206736   4 O  ly        
    64      0.206736   5 O  ly               51      0.187971   4 O  ly        
    60      0.187971   5 O  ly               91      0.173641   8 C  ly        
   114     -0.162761  11 O  ly               25     -0.158302   1 Fe dxy       

 Vector   43  Occ=2.000000D+00  E=-6.193137D-01  Symmetry=a1'
   Bfn.  Coefficient  Atom+Function         Bfn.  Coefficient  Atom+Function  
  ----- ------------  ---------------      ----- ------------  ---------------
    35      0.347212   2 C  ls               44      0.347212   3 C  ls        
    71     -0.268284   6 C  ls               80     -0.268284   7 C  ls        
    89     -0.268284   8 C  ls               43      0.198417   3 C  lz        
    34     -0.198417   2 C  lz               29      0.195139   1 Fe dzz       
    87     -0.177195   8 C  ly               77     -0.177195   7 C  lx        

 Vector   44  Occ=2.000000D+00  E=-6.050384D-01  Symmetry=a2"
   Bfn.  Coefficient  Atom+Function         Bfn.  Coefficient  Atom+Function  
  ----- ------------  ---------------      ----- ------------  ---------------
    35      0.284853   2 C  ls               44     -0.284853   3 C  ls        
   110     -0.227715  10 O  lz              119     -0.227715  11 O  lz        
   101     -0.227715   9 O  lz              106     -0.210987  10 O  lz        
    97     -0.210987   9 O  lz              115     -0.210987  11 O  lz        
    43     -0.185392   3 C  lz               34     -0.185392   2 C  lz        

 Vector   45  Occ=2.000000D+00  E=-4.815080D-01  Symmetry=e"
   Bfn.  Coefficient  Atom+Function         Bfn.  Coefficient  Atom+Function  
  ----- ------------  ---------------      ----- ------------  ---------------
    28      0.917332   1 Fe dyz              22      0.894653   1 Fe dyz       
    55     -0.171563   4 O  ly               64      0.171563   5 O  ly        
   119      0.169298  11 O  lz        

 Vector   46  Occ=2.000000D+00  E=-4.815080D-01  Symmetry=e"
   Bfn.  Coefficient  Atom+Function         Bfn.  Coefficient  Atom+Function  
  ----- ------------  ---------------      ----- ------------  ---------------
    26      0.917332   1 Fe dxz              20      0.894653   1 Fe dxz       
    63      0.171563   5 O  lx               54     -0.171563   4 O  lx        
   110      0.167830  10 O  lz        

 Vector   47  Occ=2.000000D+00  E=-3.311261D-01  Symmetry=e'
   Bfn.  Coefficient  Atom+Function         Bfn.  Coefficient  Atom+Function  
  ----- ------------  ---------------      ----- ------------  ---------------
    11      0.757487   1 Fe lx               25     -0.651148   1 Fe dxy       
    19     -0.613174   1 Fe dxy              12      0.319402   1 Fe ly        
   117     -0.216691  11 O  lx               71     -0.196152   6 C  ls        
    80      0.167181   7 C  ls              113     -0.157022  11 O  lx        

 Vector   48  Occ=2.000000D+00  E=-3.311261D-01  Symmetry=e'
   Bfn.  Coefficient  Atom+Function         Bfn.  Coefficient  Atom+Function  
  ----- ------------  ---------------      ----- ------------  ---------------
    12      0.757487   1 Fe ly               24     -0.325574   1 Fe dxx       
    27      0.325574   1 Fe dyy              11     -0.319402   1 Fe lx        
    21      0.306587   1 Fe dyy              18     -0.306587   1 Fe dxx       
    25     -0.264891   1 Fe dxy              19     -0.249443   1 Fe dxy       
    89      0.209771   8 C  ls               99      0.162574   9 O  lx        

 Vector   49  Occ=0.000000D+00  E= 7.628334D-02  Symmetry=e"
   Bfn.  Coefficient  Atom+Function         Bfn.  Coefficient  Atom+Function  
  ----- ------------  ---------------      ----- ------------  ---------------
    22      0.382887   1 Fe dyz              28      0.365285   1 Fe dyz       
    92      0.304187   8 C  lz               46      0.282523   3 C  ly        
    37     -0.282523   2 C  ly              119     -0.249068  11 O  lz        
    20     -0.225904   1 Fe dxz              83     -0.225351   7 C  lz        
    64     -0.216644   5 O  ly               55      0.216644   4 O  ly        

 Vector   50  Occ=0.000000D+00  E= 7.628334D-02  Symmetry=e"
   Bfn.  Coefficient  Atom+Function         Bfn.  Coefficient  Atom+Function  
  ----- ------------  ---------------      ----- ------------  ---------------
    20      0.382887   1 Fe dxz              26      0.365285   1 Fe dxz       
    74     -0.305729   6 C  lz               45      0.282523   3 C  lx        
    36     -0.282523   2 C  lx              101      0.250331   9 O  lz        
    22      0.225904   1 Fe dyz              83      0.221138   7 C  lz        
    63     -0.216644   5 O  lx               54      0.216644   4 O  lx        

 Vector   51  Occ=0.000000D+00  E= 9.863503D-02  Symmetry=a1'
   Bfn.  Coefficient  Atom+Function         Bfn.  Coefficient  Atom+Function  
  ----- ------------  ---------------      ----- ------------  ---------------
    14      2.202281   1 Fe ls               10     -1.364429   1 Fe ls        
    89     -0.224505   8 C  ls               71     -0.224505   6 C  ls        
    80     -0.224505   7 C  ls               44     -0.170321   3 C  ls        
    35     -0.170321   2 C  ls        

 Vector   52  Occ=0.000000D+00  E= 1.049466D-01  Symmetry=a2"
   Bfn.  Coefficient  Atom+Function         Bfn.  Coefficient  Atom+Function  
  ----- ------------  ---------------      ----- ------------  ---------------
    17      1.309588   1 Fe lz               13     -0.400112   1 Fe lz        
    35     -0.341398   2 C  ls               44      0.341398   3 C  ls        
   101     -0.179071   9 O  lz              119     -0.179071  11 O  lz        
   110     -0.179071  10 O  lz        

 Vector   53  Occ=0.000000D+00  E= 1.093124D-01  Symmetry=e'
   Bfn.  Coefficient  Atom+Function         Bfn.  Coefficient  Atom+Function  
  ----- ------------  ---------------      ----- ------------  ---------------
    15      1.028050   1 Fe lx               16      0.838894   1 Fe ly        
    11     -0.541843   1 Fe lx               12     -0.442147   1 Fe ly        
    71     -0.319042   6 C  ls               19      0.283643   1 Fe dxy       
    25      0.273142   1 Fe dxy              80      0.187515   7 C  ls        
    54     -0.155020   4 O  lx               63     -0.155020   5 O  lx        

 Vector   54  Occ=0.000000D+00  E= 1.093124D-01  Symmetry=e'
   Bfn.  Coefficient  Atom+Function         Bfn.  Coefficient  Atom+Function  
  ----- ------------  ---------------      ----- ------------  ---------------
    16      1.028050   1 Fe ly               15     -0.838894   1 Fe lx        
    12     -0.541843   1 Fe ly               11      0.442147   1 Fe lx        
    89      0.292461   8 C  ls               80     -0.260136   7 C  ls        
    91     -0.158358   8 C  ly               64     -0.155020   5 O  ly        
    55     -0.155020   4 O  ly        

 Vector   55  Occ=0.000000D+00  E= 1.213409D-01  Symmetry=a2'
   Bfn.  Coefficient  Atom+Function         Bfn.  Coefficient  Atom+Function  
  ----- ------------  ---------------      ----- ------------  ---------------
    90      0.403846   8 C  lx               82     -0.403846   7 C  ly        
    73      0.295635   6 C  ly               72     -0.295635   6 C  lx        
   109      0.285720  10 O  ly              117     -0.285720  11 O  lx        
    86      0.260070   8 C  lx               78     -0.260070   7 C  ly        
   100     -0.209162   9 O  ly               99      0.209162   9 O  lx        

 Vector   56  Occ=0.000000D+00  E= 1.241828D-01  Symmetry=e'
   Bfn.  Coefficient  Atom+Function         Bfn.  Coefficient  Atom+Function  
  ----- ------------  ---------------      ----- ------------  ---------------
    16      0.767450   1 Fe ly               37     -0.442998   2 C  ly        
    46     -0.442998   3 C  ly               12     -0.402226   1 Fe ly        
    55      0.276558   4 O  ly               64      0.276558   5 O  ly        
    42     -0.275466   3 C  ly               33     -0.275466   2 C  ly        
    15     -0.238570   1 Fe lx               60      0.163307   5 O  ly        

 Vector   57  Occ=0.000000D+00  E= 1.241828D-01  Symmetry=e'
   Bfn.  Coefficient  Atom+Function         Bfn.  Coefficient  Atom+Function  
  ----- ------------  ---------------      ----- ------------  ---------------
    15      0.767450   1 Fe lx               36     -0.442998   2 C  lx        
    45     -0.442998   3 C  lx               11     -0.402226   1 Fe lx        
    54      0.276558   4 O  lx               63      0.276558   5 O  lx        
    41     -0.275466   3 C  lx               32     -0.275466   2 C  lx        
    16      0.238570   1 Fe ly               50      0.163307   4 O  lx        

 Vector   58  Occ=0.000000D+00  E= 1.381889D-01  Symmetry=a2"
   Bfn.  Coefficient  Atom+Function         Bfn.  Coefficient  Atom+Function  
  ----- ------------  ---------------      ----- ------------  ---------------
    13      1.419028   1 Fe lz               17     -1.157073   1 Fe lz        
    35     -0.491325   2 C  ls               44      0.491325   3 C  ls        
    38      0.388578   2 C  lz               47      0.388578   3 C  lz        
    74      0.272235   6 C  lz               92      0.272235   8 C  lz        
    83      0.272235   7 C  lz               70      0.231567   6 C  lz        

 Vector   59  Occ=0.000000D+00  E= 1.555098D-01  Symmetry=e'
   Bfn.  Coefficient  Atom+Function         Bfn.  Coefficient  Atom+Function  
  ----- ------------  ---------------      ----- ------------  ---------------
    15      0.385224   1 Fe lx               73      0.315560   6 C  ly        
    72     -0.310864   6 C  lx               16     -0.310709   1 Fe ly        
    24      0.299709   1 Fe dxx              27     -0.299709   1 Fe dyy       
    18      0.285001   1 Fe dxx              21     -0.285001   1 Fe dyy       
    80     -0.270044   7 C  ls               90     -0.247080   8 C  lx        

 Vector   60  Occ=0.000000D+00  E= 1.555098D-01  Symmetry=e'
   Bfn.  Coefficient  Atom+Function         Bfn.  Coefficient  Atom+Function  
  ----- ------------  ---------------      ----- ------------  ---------------
    25      0.599418   1 Fe dxy              19      0.570003   1 Fe dxy       
    82      0.396709   7 C  ly               16     -0.385224   1 Fe ly        
    90      0.352386   8 C  lx               15     -0.310709   1 Fe lx        
    71     -0.293666   6 C  ls               78      0.257220   7 C  ly        
   109     -0.247340  10 O  ly               12      0.236720   1 Fe ly        

 Vector   61  Occ=0.000000D+00  E= 2.046551D-01  Symmetry=e"
   Bfn.  Coefficient  Atom+Function         Bfn.  Coefficient  Atom+Function  
  ----- ------------  ---------------      ----- ------------  ---------------
    92      0.488638   8 C  lz               46     -0.355198   3 C  ly        
    37      0.355198   2 C  ly              119     -0.331362  11 O  lz        
    88      0.325678   8 C  lz               83     -0.252243   7 C  lz        
    42     -0.250422   3 C  ly               33      0.250422   2 C  ly        
    74     -0.236395   6 C  lz               64      0.231394   5 O  ly        

 Vector   62  Occ=0.000000D+00  E= 2.046551D-01  Symmetry=e"
   Bfn.  Coefficient  Atom+Function         Bfn.  Coefficient  Atom+Function  
  ----- ------------  ---------------      ----- ------------  ---------------
    74      0.427747   6 C  lz               83     -0.418598   7 C  lz        
    36     -0.355198   2 C  lx               45      0.355198   3 C  lx        
   101     -0.290070   9 O  lz               70      0.285095   6 C  lz        
   110      0.283865  10 O  lz               79     -0.278997   7 C  lz        
    41      0.250422   3 C  lx               32     -0.250422   2 C  lx        

 Vector   63  Occ=0.000000D+00  E= 2.805607D-01  Symmetry=a1'
   Bfn.  Coefficient  Atom+Function         Bfn.  Coefficient  Atom+Function  
  ----- ------------  ---------------      ----- ------------  ---------------
    29      0.523679   1 Fe dzz              35     -0.509029   2 C  ls        
    44     -0.509029   3 C  ls               62      0.493866   5 O  ls        
    53      0.493866   4 O  ls               23      0.472782   1 Fe dzz       
    10     -0.427700   1 Fe ls               47      0.426300   3 C  lz        
    38     -0.426300   2 C  lz               80      0.357229   7 C  ls        

 Vector   64  Occ=0.000000D+00  E= 4.961045D-01  Symmetry=a2"
   Bfn.  Coefficient  Atom+Function         Bfn.  Coefficient  Atom+Function  
  ----- ------------  ---------------      ----- ------------  ---------------
    13      4.252668   1 Fe lz               47      1.887975   3 C  lz        
    38      1.887975   2 C  lz               17     -1.310400   1 Fe lz        
    62      1.054876   5 O  ls               53     -1.054876   4 O  ls        
    44      0.974384   3 C  ls               35     -0.974384   2 C  ls        
    83     -0.408062   7 C  lz               92     -0.408062   8 C  lz        

 Vector   65  Occ=0.000000D+00  E= 5.028709D-01  Symmetry=a1'
   Bfn.  Coefficient  Atom+Function         Bfn.  Coefficient  Atom+Function  
  ----- ------------  ---------------      ----- ------------  ---------------
    10      1.389147   1 Fe ls               44     -1.201637   3 C  ls        
    35     -1.201637   2 C  ls               71     -1.074804   6 C  ls        
    80     -1.074804   7 C  ls               89     -1.074804   8 C  ls        
    53      0.626842   4 O  ls               62      0.626842   5 O  ls        
    14      0.578770   1 Fe ls               98      0.484521   9 O  ls        


 center of mass
 --------------
 x =   0.00000000 y =   0.00000000 z =   0.00000000

 moments of inertia (a.u.)
 ------------------
        2255.012792094188           0.000000000000           0.000000000000
           0.000000000000        2255.012792094188           0.000000000000
           0.000000000000           0.000000000000        1950.260605202691

  Mulliken analysis of the total density
  --------------------------------------

    Atom       Charge   Shell Charges
 -----------   ------   -------------------------------------------------------
    1 Fe  26    25.25   1.99  8.00  7.65  0.94  0.21  3.00  3.45
    2 C    6     5.71   1.99  1.78  1.94
    3 C    6     5.71   1.99  1.78  1.94
    4 O    8     8.47   1.99  2.51  3.98
    5 O    8     8.47   1.99  2.51  3.98
    6 C    6     5.63   1.99  1.77  1.87
    7 C    6     5.63   1.99  1.77  1.87
    8 C    6     5.63   1.99  1.77  1.87
    9 O    8     8.50   1.99  2.51  4.00
   10 O    8     8.50   1.99  2.51  4.00
   11 O    8     8.50   1.99  2.51  4.00

 Task  times  cpu:        4.6s     wall:        4.6s
 Summary of allocated global arrays
-----------------------------------
  No active global arrays



                         GA Statistics for process    0
                         ------------------------------

       create   destroy   get      put      acc     scatter   gather  read&inc
calls: 2739     2739     4.54e+04 1.53e+04 6.33e+04    0        0     4976     
number of processes/call 1.32e+00 1.25e+00 1.02e+00 0.00e+00 0.00e+00
bytes total:             1.82e+08 4.97e+07 6.67e+07 0.00e+00 0.00e+00 3.98e+04
bytes remote:            1.06e+08 1.63e+07 4.59e+07 0.00e+00 0.00e+00 0.00e+00
Max memory consumed for GA by this process: 404736 bytes
MA_summarize_allocated_blocks: starting scan ...
MA_summarize_allocated_blocks: scan completed: 0 heap blocks, 0 stack blocks
MA usage statistics:

	allocation statistics:
					      heap	     stack
					      ----	     -----
	current number of blocks	         0	         0
	maximum number of blocks	        18	        14
	current total bytes		         0	         0
	maximum total bytes		  12146056	  22511960
	maximum total K-bytes		     12147	     22512
	maximum total M-bytes		        13	        23


                                NWChem Input Module
                                -------------------





                                     CITATION
                                     --------
                Please cite the following reference when publishing
                           results obtained with NWChem:

                 M. Valiev, E.J. Bylaska, N. Govind, K. Kowalski,
              T.P. Straatsma, H.J.J. van Dam, D. Wang, J. Nieplocha,
                        E. Apra, T.L. Windus, W.A. de Jong
                 "NWChem: a comprehensive and scalable open-source
                  solution for large scale molecular simulations"
                      Comput. Phys. Commun. 181, 1477 (2010)
                           doi:10.1016/j.cpc.2010.04.018

                              AUTHORS & CONTRIBUTORS
                              ----------------------
      E. J. Bylaska, W. A. de Jong, N. Govind, K. Kowalski, T. P. Straatsma,
     M. Valiev, H. J. J. Van Dam, D. Wang, E. Apra, T. L. Windus, J. Hammond,
     J. Autschbach, P. Nichols, S. Hirata, M. T. Hackler, Y. Zhao, P.-D. Fan,
      R. J. Harrison, M. Dupuis, D. M. A. Smith, J. Nieplocha, V. Tipparaju,
          M. Krishnan, A. Vazquez-Mayagoitia, L. Jensen, M. Swart, Q. Wu,
          T. Van Voorhis, A. A. Auer, M. Nooijen, L. D. Crosby, E. Brown,
             G. Cisneros, G. I. Fann, H. Fruchtl, J. Garza, K. Hirao,
        R. Kendall, J. A. Nichols, K. Tsemekhman, K. Wolinski, J. Anchell,
       D. Bernholdt, P. Borowski, T. Clark, D. Clerc, H. Dachsel, M. Deegan,
        K. Dyall, D. Elwood, E. Glendening, M. Gutowski, A. Hess, J. Jaffe,
        B. Johnson, J. Ju, R. Kobayashi, R. Kutteh, Z. Lin, R. Littlefield,
    X. Long, B. Meng, T. Nakajima, S. Niu, L. Pollack, M. Rosing, G. Sandrone,
       M. Stave, H. Taylor, G. Thomas, J. H. van Lenthe, A. Wong, Z. Zhang.

 Total times  cpu:       10.1s     wall:       10.9s
