refund: UserID = kowalski
refund: SLURM Job ID = 1323648
refund: Number of nodes          = 2
refund: Number of cores per node = 4
refund: Number of cores          = 8
refund: Amount of time requested = 0:30
refund: Directory = /home/kowalski/nwchem-6.0/QA/tests/tce_eomsd_eoms2
 
Processor list
 
cu02n[157-158]
 
ARMCI configured for 2 cluster nodes. Network protocol is 'OpenIB Verbs API'.
All connections between all procs tested: SUCCESS
 argument  1 = /mscf/home/kowalski/nwchem-6.0/QA/tests/tce_eomsd_eoms2/tce_eomccsd_eomsol2.nw
 


============================== echo of input deck ==============================
title "tce_eomccsd_eomsol2"
echo
start tce_eomccsd_eomsol2

geometry units angstrom
N            .034130    -.986909     .000000
N          -1.173397     .981920     .000000
C          -1.218805    -.408164     .000000
C           -.007302    1.702153     .000000
C           1.196200    1.107045     .000000
C           1.289085    -.345905     .000000
O           2.310232    -.996874     .000000
O          -2.257041   -1.026495     .000000
H            .049329   -1.997961     .000000
H          -2.070598    1.437050     .000000
H           -.125651    2.776484     .000000
H           2.111671    1.674079     .000000
end

basis
* library 6-31G
end

scf
thresh 1.0e-10
tol2e 1.0e-10
singlet
rhf
end

tce
freeze atomic
creomsd(t)
eomsol 2
diis 5
tilesize 15
thresh 1.0d-5
2eorb
2emet 13
nroots 1
end

task tce energy


================================================================================


                                         
                                         
 
 
              Northwest Computational Chemistry Package (NWChem) 6.0
              ------------------------------------------------------
 
 
                    Environmental Molecular Sciences Laboratory
                       Pacific Northwest National Laboratory
                                Richland, WA 99352
 
                                         
                                         
 
 
                  COPYRIGHT (C) 1994, 1995, 1996, 1997, 1998, 1999,
                2000, 2001, 2002, 2003, 2004, 2005, 2006, 2007, 2008,
                                     2009, 2010
                        Pacific Northwest National Laboratory,
                             Battelle Memorial Institute.
 
                            >>> All Rights Reserved <<<
 
 
                                    DISCLAIMER
                                    ----------

            This material was prepared as an account of work sponsored
            by an agency of the United States Government.  Neither the
            United States Government nor the United States Department
            of Energy, nor Battelle, nor any of their employees, MAKES
            ANY WARRANTY, EXPRESS OR IMPLIED, OR ASSUMES ANY LEGAL
            LIABILITY OR RESPONSIBILITY FOR THE ACCURACY, COMPLETENESS,
            OR USEFULNESS OF ANY INFORMATION, APPARATUS, PRODUCT,
            SOFTWARE, OR PROCESS DISCLOSED, OR REPRESENTS THAT ITS USE
            WOULD NOT INFRINGE PRIVATELY OWNED RIGHTS.


                                    LIMITED USE
                                    -----------

            This software (including any documentation) is being made
            available to you for your internal use only, solely for use
            in performance of work directly for the U.S. Federal
            Government or work under contracts with the U.S. Department
            of Energy or other U.S. Federal Government agencies.  This
            software is a version which has not yet been evaluated and
            cleared for commercialization.  Adherence to this notice
            may be necessary for the author, Battelle Memorial
            Institute, to successfully assert copyright in and
            commercialize this software. This software is not intended
            for duplication or distribution to third parties without
            the permission of the Manager of Software Products at
            Pacific Northwest National Laboratory, Richland,
            Washington, 99352.


                                  ACKNOWLEDGMENT
                                  --------------

            This software and its documentation were produced with
            Government support under Contract Number DE-AC05-76RL01830
            awarded by the United States Department of Energy.  The
            Government retains a paid-up non-exclusive, irrevocable
            worldwide license to reproduce, prepare derivative works,
            perform publicly and display publicly by or for the
            Government, including the right to distribute to other
            Government contractors.


           Job information
           ---------------

    hostname      = cu2n157
    program       = /scratch/nwchem
    date          = Wed Mar 17 17:25:40 2010

    compiled      = Wed_Mar_17_15:55:05_2010
    source        = /home/kowalski/nwchem-6.0
    nwchem branch = 6.0
    input         = /mscf/home/kowalski/nwchem-6.0/QA/tests/tce_eomsd_eoms2/tce_eomccsd_eomsol2.nw
    prefix        = tce_eomccsd_eomsol2.
    data base     = ./tce_eomccsd_eomsol2.db
    status        = startup
    nproc         =        8
    time left     =   1793s



           Memory information
           ------------------

    heap      =   13107201 doubles =    100.0 Mbytes
    stack     =   13107201 doubles =    100.0 Mbytes
    global    =   26214400 doubles =    200.0 Mbytes (distinct from heap & stack)
    total     =   52428802 doubles =    400.0 Mbytes
    verify    = yes
    hardfail  = no 


           Directory information
           ---------------------
 
  0 permanent = .
  0 scratch   = .
 
 
 
 
                                NWChem Input Module
                                -------------------
 
 
                                tce_eomccsd_eomsol2
                                -------------------

 Scaling coordinates for geometry "geometry" by  1.889725989
 (inverse scale =  0.529177249)

 CS  symmetry detected

          ------
          auto-z
          ------
 
 
                             Geometry "geometry" -> ""
                             -------------------------
 
 Output coordinates in angstroms (scale by  1.889725989 to convert to a.u.)
 
  No.       Tag          Charge          X              Y              Z
 ---- ---------------- ---------- -------------- -------------- --------------
    1 N                    7.0000    -0.98690909    -0.03391701     0.00000000
    2 N                    7.0000     0.98280277     1.17216932     0.00000000
    3 C                    6.0000    -0.40724764     1.21859426     0.00000000
    4 C                    6.0000     1.70218250     0.00554773     0.00000000
    5 C                    6.0000     1.10619421    -1.19751858     0.00000000
    6 C                    6.0000    -0.34682336    -1.28934062     0.00000000
    7 O                    8.0000    -0.99853922    -2.31001111     0.00000000
    8 O                    8.0000    -1.02481893     2.25728233     0.00000000
    9 H                    1.0000    -1.99797194    -0.04837635     0.00000000
   10 H                    1.0000     1.43858902     2.06903712     0.00000000
   11 H                    1.0000     2.77659979     0.12311075     0.00000000
   12 H                    1.0000     1.67255832    -2.11340416     0.00000000
 
      Atomic Mass 
      ----------- 
 
      N                 14.003070
      C                 12.000000
      O                 15.994910
      H                  1.007825
 

 Effective nuclear repulsion energy (a.u.)     357.1599590286

            Nuclear Dipole moment (a.u.) 
            ----------------------------
        X                 Y               Z
 ---------------- ---------------- ----------------
     0.0000000000     0.0000000000     0.0000000000
 
      Symmetry information
      --------------------
 
 Group name             Cs        
 Group number              2
 Group order               2
 No. of unique centers    12
 
      Symmetry unique atoms
 
     1    2    3    4    5    6    7    8    9   10   11   12
 


                                Z-matrix (autoz)
                                -------- 

 Units are Angstrom for bonds and degrees for angles
 
      Type          Name      I     J     K     L     M      Value
      ----------- --------  ----- ----- ----- ----- ----- ----------
    1 Stretch                  1     3                       1.38014
    2 Stretch                  1     6                       1.40918
    3 Stretch                  1     9                       1.01117
    4 Stretch                  2     3                       1.39083
    5 Stretch                  2     4                       1.37059
    6 Stretch                  2    10                       1.00604
    7 Stretch                  3     8                       1.20841
    8 Stretch                  4     5                       1.34260
    9 Stretch                  4    11                       1.08083
   10 Stretch                  5     6                       1.45592
   11 Stretch                  5    12                       1.07685
   12 Stretch                  6     7                       1.21099
   13 Bend                     1     3     2               112.92182
   14 Bend                     1     3     8               124.43094
   15 Bend                     1     6     5               113.39911
   16 Bend                     1     6     7               120.42601
   17 Bend                     2     3     8               122.64724
   18 Bend                     2     4     5               121.98716
   19 Bend                     2     4    11               115.41496
   20 Bend                     3     1     6               128.15028
   21 Bend                     3     1     9               115.65401
   22 Bend                     3     2     4               123.57229
   23 Bend                     3     2    10               115.02672
   24 Bend                     4     2    10               121.40099
   25 Bend                     4     5     6               119.96935
   26 Bend                     4     5    12               121.91483
   27 Bend                     5     4    11               122.59788
   28 Bend                     5     6     7               126.17488
   29 Bend                     6     1     9               116.19571
   30 Bend                     6     5    12               118.11582
   31 Torsion                  1     3     2     4           0.00000
   32 Torsion                  1     3     2    10         180.00000
   33 Torsion                  1     6     5     4           0.00000
   34 Torsion                  1     6     5    12         180.00000
   35 Torsion                  2     3     1     6           0.00000
   36 Torsion                  2     3     1     9         180.00000
   37 Torsion                  2     4     5     6           0.00000
   38 Torsion                  2     4     5    12         180.00000
   39 Torsion                  3     1     6     5           0.00000
   40 Torsion                  3     1     6     7         180.00000
   41 Torsion                  3     2     4     5           0.00000
   42 Torsion                  3     2     4    11         180.00000
   43 Torsion                  4     2     3     8         180.00000
   44 Torsion                  4     5     6     7         180.00000
   45 Torsion                  5     4     2    10         180.00000
   46 Torsion                  5     6     1     9         180.00000
   47 Torsion                  6     1     3     8         180.00000
   48 Torsion                  6     5     4    11         180.00000
   49 Torsion                  7     6     1     9           0.00000
   50 Torsion                  7     6     5    12           0.00000
   51 Torsion                  8     3     1     9           0.00000
   52 Torsion                  8     3     2    10           0.00000
   53 Torsion                 10     2     4    11           0.00000
   54 Torsion                 11     4     5    12           0.00000
 
 
            XYZ format geometry
            -------------------
    12
 geometry
 N                    -0.98690909    -0.03391701     0.00000000
 N                     0.98280277     1.17216932     0.00000000
 C                    -0.40724764     1.21859426     0.00000000
 C                     1.70218250     0.00554773     0.00000000
 C                     1.10619421    -1.19751858     0.00000000
 C                    -0.34682336    -1.28934062     0.00000000
 O                    -0.99853922    -2.31001111     0.00000000
 O                    -1.02481893     2.25728233     0.00000000
 H                    -1.99797194    -0.04837635     0.00000000
 H                     1.43858902     2.06903712     0.00000000
 H                     2.77659979     0.12311075     0.00000000
 H                     1.67255832    -2.11340416     0.00000000
 
 ==============================================================================
                                internuclear distances
 ------------------------------------------------------------------------------
       center one      |      center two      | atomic units |  angstroms
 ------------------------------------------------------------------------------
    3 C                |   1 N                |     2.60809  |     1.38014
    3 C                |   2 N                |     2.62828  |     1.39083
    4 C                |   2 N                |     2.59004  |     1.37059
    5 C                |   4 C                |     2.53714  |     1.34260
    6 C                |   1 N                |     2.66297  |     1.40918
    6 C                |   5 C                |     2.75128  |     1.45592
    7 O                |   6 C                |     2.28844  |     1.21099
    8 O                |   3 C                |     2.28357  |     1.20842
    9 H                |   1 N                |     1.91083  |     1.01117
   10 H                |   2 N                |     1.90114  |     1.00604
   11 H                |   4 C                |     2.04247  |     1.08083
   12 H                |   5 C                |     2.03496  |     1.07685
 ------------------------------------------------------------------------------
                         number of included internuclear distances:         12
 ==============================================================================



 ==============================================================================
                                 internuclear angles
 ------------------------------------------------------------------------------
        center 1       |       center 2       |       center 3       |  degrees
 ------------------------------------------------------------------------------
    3 C                |   1 N                |   6 C                |   128.15
    3 C                |   1 N                |   9 H                |   115.65
    6 C                |   1 N                |   9 H                |   116.20
    3 C                |   2 N                |   4 C                |   123.57
    3 C                |   2 N                |  10 H                |   115.03
    4 C                |   2 N                |  10 H                |   121.40
    1 N                |   3 C                |   2 N                |   112.92
    1 N                |   3 C                |   8 O                |   124.43
    2 N                |   3 C                |   8 O                |   122.65
    2 N                |   4 C                |   5 C                |   121.99
    2 N                |   4 C                |  11 H                |   115.41
    5 C                |   4 C                |  11 H                |   122.60
    4 C                |   5 C                |   6 C                |   119.97
    4 C                |   5 C                |  12 H                |   121.91
    6 C                |   5 C                |  12 H                |   118.12
    1 N                |   6 C                |   5 C                |   113.40
    1 N                |   6 C                |   7 O                |   120.43
    5 C                |   6 C                |   7 O                |   126.17
 ------------------------------------------------------------------------------
                            number of included internuclear angles:         18
 ==============================================================================



  library name resolved from: environment
  library file name is: </home/svc-nwchem/nwchem-5.1.1/src/basis/libraries/>
  


 Summary of "ao basis" -> "" (cartesian)
 ------------------------------------------------------------------------------
       Tag                 Description            Shells   Functions and Types
 ---------------- ------------------------------  ------  ---------------------
 *                           6-31G                    on all atoms 


                      Basis "ao basis" -> "ao basis" (cartesian)
                      -----
  N (Nitrogen)
  ------------
            Exponent  Coefficients 
       -------------- ---------------------------------------------------------
  1 S  4.17351100E+03  0.001835
  1 S  6.27457900E+02  0.013995
  1 S  1.42902100E+02  0.068587
  1 S  4.02343300E+01  0.232241
  1 S  1.28202100E+01  0.469070
  1 S  4.39043700E+00  0.360455
 
  2 S  1.16263580E+01 -0.114961
  2 S  2.71628000E+00 -0.169118
  2 S  7.72218000E-01  1.145852
 
  3 P  1.16263580E+01  0.067580
  3 P  2.71628000E+00  0.323907
  3 P  7.72218000E-01  0.740895
 
  4 S  2.12031300E-01  1.000000
 
  5 P  2.12031300E-01  1.000000
 
  C (Carbon)
  ----------
            Exponent  Coefficients 
       -------------- ---------------------------------------------------------
  1 S  3.04752490E+03  0.001835
  1 S  4.57369510E+02  0.014037
  1 S  1.03948690E+02  0.068843
  1 S  2.92101550E+01  0.232184
  1 S  9.28666300E+00  0.467941
  1 S  3.16392700E+00  0.362312
 
  2 S  7.86827240E+00 -0.119332
  2 S  1.88128850E+00 -0.160854
  2 S  5.44249300E-01  1.143456
 
  3 P  7.86827240E+00  0.068999
  3 P  1.88128850E+00  0.316424
  3 P  5.44249300E-01  0.744308
 
  4 S  1.68714400E-01  1.000000
 
  5 P  1.68714400E-01  1.000000
 
  O (Oxygen)
  ----------
            Exponent  Coefficients 
       -------------- ---------------------------------------------------------
  1 S  5.48467170E+03  0.001831
  1 S  8.25234950E+02  0.013950
  1 S  1.88046960E+02  0.068445
  1 S  5.29645000E+01  0.232714
  1 S  1.68975700E+01  0.470193
  1 S  5.79963530E+00  0.358521
 
  2 S  1.55396160E+01 -0.110778
  2 S  3.59993360E+00 -0.148026
  2 S  1.01376180E+00  1.130767
 
  3 P  1.55396160E+01  0.070874
  3 P  3.59993360E+00  0.339753
  3 P  1.01376180E+00  0.727159
 
  4 S  2.70005800E-01  1.000000
 
  5 P  2.70005800E-01  1.000000
 
  H (Hydrogen)
  ------------
            Exponent  Coefficients 
       -------------- ---------------------------------------------------------
  1 S  1.87311370E+01  0.033495
  1 S  2.82539370E+00  0.234727
  1 S  6.40121700E-01  0.813757
 
  2 S  1.61277800E-01  1.000000
 


 Summary of "ao basis" -> "ao basis" (cartesian)
 ------------------------------------------------------------------------------
       Tag                 Description            Shells   Functions and Types
 ---------------- ------------------------------  ------  ---------------------
 N                           6-31G                   5        9   3s2p
 C                           6-31G                   5        9   3s2p
 O                           6-31G                   5        9   3s2p
 H                           6-31G                   2        2   2s


                                 NWChem SCF Module
                                 -----------------
 
 
                                tce_eomccsd_eomsol2
 
 

  ao basis        = "ao basis"
  functions       =    80
  atoms           =    12
  closed shells   =    29
  open shells     =     0
  charge          =   0.00
  wavefunction    = RHF 
  input vectors   = atomic
  output vectors  = ./tce_eomccsd_eomsol2.movecs
  use symmetry    = T
  symmetry adapt  = T


 Summary of "ao basis" -> "ao basis" (cartesian)
 ------------------------------------------------------------------------------
       Tag                 Description            Shells   Functions and Types
 ---------------- ------------------------------  ------  ---------------------
 N                           6-31G                   5        9   3s2p
 C                           6-31G                   5        9   3s2p
 O                           6-31G                   5        9   3s2p
 H                           6-31G                   2        2   2s


      Symmetry analysis of basis
      --------------------------
 
        a'         64
        a"         16
 

 Forming initial guess at       0.6s

 
      Superposition of Atomic Density Guess
      -------------------------------------
 
 Sum of atomic energies:        -410.73012770
 
      Non-variational initial energy
      ------------------------------

 Total energy =    -415.530979
 1-e energy   =   -1267.925589
 2-e energy   =     495.234651
 HOMO         =      -0.259864
 LUMO         =       0.009758
 
 
      Symmetry analysis of molecular orbitals - initial
      -------------------------------------------------
 
  Numbering of irreducible representations: 
 
     1 a'          2 a"      
 
  Orbital symmetries:
 
     1 a'          2 a'          3 a'          4 a'          5 a'      
     6 a'          7 a'          8 a'          9 a'         10 a'      
    11 a'         12 a'         13 a'         14 a'         15 a'      
    16 a'         17 a'         18 a'         19 a"         20 a'      
    21 a'         22 a"         23 a'         24 a'         25 a"      
    26 a'         27 a'         28 a"         29 a"         30 a"      
    31 a"         32 a'         33 a'         34 a'         35 a"      
    36 a'         37 a'         38 a'         39 a'      
 

 Starting SCF solution at       1.0s



 ----------------------------------------------
         Quadratically convergent ROHF

 Convergence threshold     :          1.000E-10
 Maximum no. of iterations :           30
 Final Fock-matrix accuracy:          1.000E-10
 ----------------------------------------------


 Integral file          = ./tce_eomccsd_eomsol2.aoints.0
 Record size in doubles =  65536        No. of integs per rec  =  43688
 Max. records in memory =     15        Max. records in file   = 169380
 No. of bits per label  =      8        No. of bits per value  =     64


 #quartets = 5.882E+05 #integrals = 2.648E+06 #direct =  0.0% #cached =100.0%


File balance: exchanges=     0  moved=     0  time=   0.0


              iter       energy          gnorm     gmax       time
             ----- ------------------- --------- --------- --------
                 1     -412.0371879834  1.90E+00  4.66E-01      3.4
                 2     -412.2491522624  5.41E-01  8.39E-02      3.6
                 3     -412.2785048583  2.25E-02  5.11E-03      3.9
                 4     -412.2786222528  4.55E-04  8.14E-05      4.1
                 5     -412.2786222838  1.13E-07  1.72E-08      4.5
                 6     -412.2786222838  9.19E-12  2.01E-12      4.9


       Final RHF  results 
       ------------------ 

         Total SCF energy =   -412.278622283755
      One-electron energy =  -1269.561794694684
      Two-electron energy =    500.123213382286
 Nuclear repulsion energy =    357.159959028643

        Time for solution =      2.4s


 
       Symmetry analysis of molecular orbitals - final
       -----------------------------------------------
 
  Numbering of irreducible representations: 
 
     1 a'          2 a"      
 
  Orbital symmetries:
 
     1 a'          2 a'          3 a'          4 a'          5 a'      
     6 a'          7 a'          8 a'          9 a'         10 a'      
    11 a'         12 a'         13 a'         14 a'         15 a'      
    16 a'         17 a'         18 a'         19 a"         20 a'      
    21 a'         22 a'         23 a'         24 a"         25 a"      
    26 a'         27 a'         28 a"         29 a"         30 a"      
    31 a"         32 a'         33 a'         34 a'         35 a'      
    36 a"         37 a'         38 a'         39 a'      
 
             Final eigenvalues
             -----------------

              1      
    1  -20.5631
    2  -20.5581
    3  -15.6517
    4  -15.6352
    5  -11.4442
    6  -11.4020
    7  -11.3522
    8  -11.2663
    9   -1.4631
   10   -1.4287
   11   -1.3262
   12   -1.2537
   13   -1.0992
   14   -0.9407
   15   -0.9087
   16   -0.8122
   17   -0.7760
   18   -0.7192
   19   -0.6770
   20   -0.6759
   21   -0.6520
   22   -0.6152
   23   -0.6042
   24   -0.5775
   25   -0.5293
   26   -0.4812
   27   -0.4468
   28   -0.4315
   29   -0.3668
   30    0.0932
   31    0.1645
   32    0.1888
   33    0.2451
   34    0.2531
   35    0.2960
   36    0.3040
   37    0.3631
   38    0.3894
   39    0.4181
 
                       ROHF Final Molecular Orbital Analysis
                       -------------------------------------
 
 Vector    9  Occ=2.000000E+00  E=-1.463088E+00  Symmetry=a'
              MO Center= -6.2E-01,  1.3E+00, -2.6E-18, r^2= 2.0E+00
   Bfn.  Coefficient  Atom+Function         Bfn.  Coefficient  Atom+Function  
  ----- ------------  ---------------      ----- ------------  ---------------
    69      0.335581   8 O  s                65      0.329811   8 O  s         
    20      0.275392   3 C  s                15      0.163078   2 N  s         
     6      0.162573   1 N  s                64     -0.152022   8 O  s         
 
 Vector   10  Occ=2.000000E+00  E=-1.428660E+00  Symmetry=a'
              MO Center= -7.9E-01, -1.4E+00, -5.0E-18, r^2= 2.2E+00
   Bfn.  Coefficient  Atom+Function         Bfn.  Coefficient  Atom+Function  
  ----- ------------  ---------------      ----- ------------  ---------------
    60      0.411999   7 O  s                56      0.375587   7 O  s         
    47      0.241387   6 C  s                55     -0.174208   7 O  s         
    69     -0.169505   8 O  s         
 
 Vector   11  Occ=2.000000E+00  E=-1.326222E+00  Symmetry=a'
              MO Center=  3.5E-01,  8.3E-01, -1.4E-17, r^2= 2.4E+00
   Bfn.  Coefficient  Atom+Function         Bfn.  Coefficient  Atom+Function  
  ----- ------------  ---------------      ----- ------------  ---------------
    15      0.384693   2 N  s                11      0.293704   2 N  s         
    69     -0.246812   8 O  s                65     -0.215044   8 O  s         
     6      0.188954   1 N  s                29      0.169045   4 C  s         
 
 Vector   12  Occ=2.000000E+00  E=-1.253736E+00  Symmetry=a'
              MO Center= -3.9E-01,  1.5E-01, -6.6E-19, r^2= 2.3E+00
   Bfn.  Coefficient  Atom+Function         Bfn.  Coefficient  Atom+Function  
  ----- ------------  ---------------      ----- ------------  ---------------
     6      0.444027   1 N  s                 2      0.342401   1 N  s         
    15     -0.249300   2 N  s                11     -0.204865   2 N  s         
     1     -0.167554   1 N  s                60     -0.162985   7 O  s         
    49      0.151819   6 C  py        
 
 Vector   13  Occ=2.000000E+00  E=-1.099183E+00  Symmetry=a'
              MO Center=  9.6E-01, -4.0E-01, -4.2E-17, r^2= 2.2E+00
   Bfn.  Coefficient  Atom+Function         Bfn.  Coefficient  Atom+Function  
  ----- ------------  ---------------      ----- ------------  ---------------
    38      0.303278   5 C  s                29      0.234545   4 C  s         
    42      0.193022   5 C  s                15     -0.183322   2 N  s         
    33      0.164074   4 C  s                37     -0.153217   5 C  s         
 
 Vector   14  Occ=2.000000E+00  E=-9.407187E-01  Symmetry=a'
              MO Center=  5.9E-01,  1.1E-01,  1.2E-16, r^2= 3.1E+00
   Bfn.  Coefficient  Atom+Function         Bfn.  Coefficient  Atom+Function  
  ----- ------------  ---------------      ----- ------------  ---------------
    12      0.248536   2 N  px               29      0.220531   4 C  s         
    21     -0.177288   3 C  px               48     -0.158723   6 C  px        
     3     -0.153608   1 N  px        
 
 Vector   15  Occ=2.000000E+00  E=-9.087184E-01  Symmetry=a'
              MO Center= -2.1E-01,  9.6E-02, -2.9E-17, r^2= 2.9E+00
   Bfn.  Coefficient  Atom+Function         Bfn.  Coefficient  Atom+Function  
  ----- ------------  ---------------      ----- ------------  ---------------
     4      0.325266   1 N  py               20      0.213699   3 C  s         
    47     -0.207310   6 C  s                 8      0.192222   1 N  py        
    22     -0.180268   3 C  py               60      0.162820   7 O  s         
    49     -0.159203   6 C  py        
 
 Vector   16  Occ=2.000000E+00  E=-8.122034E-01  Symmetry=a'
              MO Center=  5.4E-01,  1.9E-01, -5.3E-17, r^2= 3.7E+00
   Bfn.  Coefficient  Atom+Function         Bfn.  Coefficient  Atom+Function  
  ----- ------------  ---------------      ----- ------------  ---------------
    13      0.318941   2 N  py               17      0.218898   2 N  py        
     3     -0.217675   1 N  px               75      0.175077  10 H  s         
     7     -0.155712   1 N  px               38      0.154657   5 C  s         
 
 Vector   17  Occ=2.000000E+00  E=-7.759884E-01  Symmetry=a'
              MO Center=  3.3E-01, -8.2E-02, -5.4E-18, r^2= 3.3E+00
   Bfn.  Coefficient  Atom+Function         Bfn.  Coefficient  Atom+Function  
  ----- ------------  ---------------      ----- ------------  ---------------
    12      0.257116   2 N  px               31      0.235048   4 C  py        
    48      0.230058   6 C  px               21     -0.229264   3 C  px        
    39     -0.208075   5 C  px                4      0.201157   1 N  py        
    16      0.159080   2 N  px        
 
 Vector   18  Occ=2.000000E+00  E=-7.191759E-01  Symmetry=a'
              MO Center=  6.0E-01,  1.7E-01, -3.5E-17, r^2= 3.9E+00
   Bfn.  Coefficient  Atom+Function         Bfn.  Coefficient  Atom+Function  
  ----- ------------  ---------------      ----- ------------  ---------------
    30      0.329027   4 C  px                3      0.316418   1 N  px        
    77      0.213374  11 H  s                 7      0.212834   1 N  px        
    73     -0.186448   9 H  s                13      0.181370   2 N  py        
 
 Vector   19  Occ=2.000000E+00  E=-6.769970E-01  Symmetry=a"
              MO Center= -1.6E-01,  6.1E-01, -1.9E-17, r^2= 2.8E+00
   Bfn.  Coefficient  Atom+Function         Bfn.  Coefficient  Atom+Function  
  ----- ------------  ---------------      ----- ------------  ---------------
    23      0.283403   3 C  pz               14      0.271899   2 N  pz        
     5      0.268864   1 N  pz               68      0.210588   8 O  pz        
    18      0.187041   2 N  pz                9      0.182668   1 N  pz        
    50      0.154372   6 C  pz        
 
 Vector   20  Occ=2.000000E+00  E=-6.759061E-01  Symmetry=a'
              MO Center= -2.7E-01, -3.5E-01, -1.4E-17, r^2= 5.6E+00
   Bfn.  Coefficient  Atom+Function         Bfn.  Coefficient  Atom+Function  
  ----- ------------  ---------------      ----- ------------  ---------------
    60      0.261423   7 O  s                58     -0.227291   7 O  py        
    57     -0.208206   7 O  px               49      0.203950   6 C  py        
    13      0.172868   2 N  py                3      0.170536   1 N  px        
    69      0.168876   8 O  s                56      0.162581   7 O  s         
     7      0.162463   1 N  px               22     -0.158162   3 C  py        
 
 Vector   21  Occ=2.000000E+00  E=-6.519601E-01  Symmetry=a'
              MO Center= -1.3E-01,  1.0E+00,  3.8E-17, r^2= 5.0E+00
   Bfn.  Coefficient  Atom+Function         Bfn.  Coefficient  Atom+Function  
  ----- ------------  ---------------      ----- ------------  ---------------
    67      0.357372   8 O  py               69      0.282442   8 O  s         
    22     -0.235137   3 C  py               40     -0.231818   5 C  py        
    21      0.207881   3 C  px               71      0.193679   8 O  py        
    65      0.171450   8 O  s                66     -0.163780   8 O  px        
 
 Vector   22  Occ=2.000000E+00  E=-6.151901E-01  Symmetry=a'
              MO Center= -2.1E-01, -1.1E+00,  4.3E-17, r^2= 4.6E+00
   Bfn.  Coefficient  Atom+Function         Bfn.  Coefficient  Atom+Function  
  ----- ------------  ---------------      ----- ------------  ---------------
    58      0.367945   7 O  py               48     -0.218008   6 C  px        
    49     -0.216009   6 C  py               62      0.209677   7 O  py        
    60     -0.208337   7 O  s                31     -0.195678   4 C  py        
    40      0.185835   5 C  py               66     -0.164815   8 O  px        
 
 Vector   23  Occ=2.000000E+00  E=-6.041835E-01  Symmetry=a'
              MO Center=  5.8E-01, -7.7E-01, -1.1E-16, r^2= 4.4E+00
   Bfn.  Coefficient  Atom+Function         Bfn.  Coefficient  Atom+Function  
  ----- ------------  ---------------      ----- ------------  ---------------
    40      0.231467   5 C  py               79     -0.227325  12 H  s         
    48      0.211463   6 C  px               39     -0.206884   5 C  px        
    67      0.194763   8 O  py               57      0.173438   7 O  px        
    44      0.158163   5 C  py        
 
 Vector   24  Occ=2.000000E+00  E=-5.774775E-01  Symmetry=a"
              MO Center= -4.6E-01, -7.3E-01, -9.0E-17, r^2= 3.7E+00
   Bfn.  Coefficient  Atom+Function         Bfn.  Coefficient  Atom+Function  
  ----- ------------  ---------------      ----- ------------  ---------------
    59      0.351308   7 O  pz               50      0.310241   6 C  pz        
    63      0.236066   7 O  pz               14     -0.221735   2 N  pz        
    68     -0.187606   8 O  pz               18     -0.173350   2 N  pz        
    54      0.172926   6 C  pz                5      0.161757   1 N  pz        
 
 Vector   25  Occ=2.000000E+00  E=-5.292884E-01  Symmetry=a"
              MO Center=  4.2E-01,  7.8E-01,  1.1E-17, r^2= 3.2E+00
   Bfn.  Coefficient  Atom+Function         Bfn.  Coefficient  Atom+Function  
  ----- ------------  ---------------      ----- ------------  ---------------
    14      0.327695   2 N  pz               68     -0.287369   8 O  pz        
    18      0.278263   2 N  pz               32      0.263896   4 C  pz        
    72     -0.206605   8 O  pz                5     -0.200027   1 N  pz        
    41      0.171514   5 C  pz               23     -0.166042   3 C  pz        
    36      0.159488   4 C  pz                9     -0.154554   1 N  pz        
 
 Vector   26  Occ=2.000000E+00  E=-4.812026E-01  Symmetry=a'
              MO Center= -6.8E-01,  1.2E+00, -1.3E-17, r^2= 4.0E+00
   Bfn.  Coefficient  Atom+Function         Bfn.  Coefficient  Atom+Function  
  ----- ------------  ---------------      ----- ------------  ---------------
    66      0.473424   8 O  px                6      0.416815   1 N  s         
    70      0.315129   8 O  px               15     -0.287802   2 N  s         
    16      0.253745   2 N  px               67      0.235573   8 O  py        
    25      0.232123   3 C  px               57      0.223394   7 O  px        
    12      0.185197   2 N  px               26      0.172902   3 C  py        
 
 Vector   27  Occ=2.000000E+00  E=-4.468320E-01  Symmetry=a'
              MO Center= -7.8E-01, -1.2E+00,  1.3E-18, r^2= 3.9E+00
   Bfn.  Coefficient  Atom+Function         Bfn.  Coefficient  Atom+Function  
  ----- ------------  ---------------      ----- ------------  ---------------
    57      0.444881   7 O  px                8     -0.324578   1 N  py        
    61      0.313377   7 O  px               42     -0.305373   5 C  s         
    58     -0.288914   7 O  py                4     -0.216334   1 N  py        
    52      0.213586   6 C  px               43      0.213010   5 C  px        
    66     -0.203152   8 O  px               62     -0.201002   7 O  py        
 
 Vector   28  Occ=2.000000E+00  E=-4.314588E-01  Symmetry=a"
              MO Center= -9.9E-01, -2.6E-02,  2.4E-17, r^2= 3.5E+00
   Bfn.  Coefficient  Atom+Function         Bfn.  Coefficient  Atom+Function  
  ----- ------------  ---------------      ----- ------------  ---------------
     5      0.430927   1 N  pz                9      0.426844   1 N  pz        
    68     -0.325162   8 O  pz               59     -0.318151   7 O  pz        
    72     -0.262139   8 O  pz               63     -0.251564   7 O  pz        
 
 Vector   29  Occ=2.000000E+00  E=-3.668177E-01  Symmetry=a"
              MO Center=  7.8E-01, -3.3E-01,  2.3E-17, r^2= 3.6E+00
   Bfn.  Coefficient  Atom+Function         Bfn.  Coefficient  Atom+Function  
  ----- ------------  ---------------      ----- ------------  ---------------
    41      0.364600   5 C  pz               18     -0.342210   2 N  pz        
    45      0.329833   5 C  pz               14     -0.314501   2 N  pz        
    32      0.225409   4 C  pz               59     -0.215753   7 O  pz        
    36      0.203106   4 C  pz               63     -0.183365   7 O  pz        
    68      0.182122   8 O  pz               72      0.153129   8 O  pz        
 
 Vector   30  Occ=0.000000E+00  E= 9.324948E-02  Symmetry=a"
              MO Center=  7.6E-01, -6.2E-01, -2.7E-16, r^2= 3.4E+00
   Bfn.  Coefficient  Atom+Function         Bfn.  Coefficient  Atom+Function  
  ----- ------------  ---------------      ----- ------------  ---------------
    36      0.643362   4 C  pz               45     -0.397337   5 C  pz        
    32      0.384050   4 C  pz               54     -0.318853   6 C  pz        
    63      0.289624   7 O  pz               18     -0.270444   2 N  pz        
    50     -0.266329   6 C  pz                9      0.242087   1 N  pz        
    59      0.228798   7 O  pz               41     -0.207204   5 C  pz        
 
 Vector   31  Occ=0.000000E+00  E= 1.645355E-01  Symmetry=a"
              MO Center= -3.6E-01,  5.2E-01, -3.0E-16, r^2= 3.6E+00
   Bfn.  Coefficient  Atom+Function         Bfn.  Coefficient  Atom+Function  
  ----- ------------  ---------------      ----- ------------  ---------------
    27      0.630381   3 C  pz               23      0.467127   3 C  pz        
    72     -0.422584   8 O  pz               54     -0.390130   6 C  pz        
    45      0.347349   5 C  pz               68     -0.298126   8 O  pz        
    50     -0.272470   6 C  pz               63      0.262660   7 O  pz        
    18     -0.258184   2 N  pz               59      0.185987   7 O  pz        
 
 Vector   32  Occ=0.000000E+00  E= 1.887850E-01  Symmetry=a'
              MO Center=  1.8E+00,  1.2E+00,  8.4E-17, r^2= 5.1E+00
   Bfn.  Coefficient  Atom+Function         Bfn.  Coefficient  Atom+Function  
  ----- ------------  ---------------      ----- ------------  ---------------
    76      1.376035  10 H  s                78      1.077465  11 H  s         
    33     -0.946493   4 C  s                15     -0.895864   2 N  s         
    80      0.557962  12 H  s                17     -0.532086   2 N  py        
    34     -0.467587   4 C  px               74      0.425238   9 H  s         
    44      0.352945   5 C  py               16     -0.277607   2 N  px        
 
 Vector   33  Occ=0.000000E+00  E= 2.450592E-01  Symmetry=a'
              MO Center= -1.3E+00, -1.2E-02, -8.0E-16, r^2= 6.0E+00
   Bfn.  Coefficient  Atom+Function         Bfn.  Coefficient  Atom+Function  
  ----- ------------  ---------------      ----- ------------  ---------------
    74      1.777236   9 H  s                78     -1.018157  11 H  s         
     7      0.933715   1 N  px                6     -0.926855   1 N  s         
    34      0.655650   4 C  px               33      0.367369   4 C  s         
    44      0.255349   5 C  py               42      0.234720   5 C  s         
    53     -0.226988   6 C  py                3      0.212611   1 N  px        
 
 Vector   34  Occ=0.000000E+00  E= 2.530534E-01  Symmetry=a'
              MO Center=  1.8E+00,  4.4E-01, -7.2E-16, r^2= 6.6E+00
   Bfn.  Coefficient  Atom+Function         Bfn.  Coefficient  Atom+Function  
  ----- ------------  ---------------      ----- ------------  ---------------
    78      1.332788  11 H  s                76     -1.268684  10 H  s         
    42     -1.106362   5 C  s                15      1.105114   2 N  s         
    33     -1.073562   4 C  s                80      0.982956  12 H  s         
    34     -0.654690   4 C  px               74      0.489430   9 H  s         
    44      0.467217   5 C  py               17      0.442381   2 N  py        
 
 Vector   35  Occ=0.000000E+00  E= 2.960251E-01  Symmetry=a'
              MO Center=  1.9E+00, -1.6E+00,  6.1E-17, r^2= 4.8E+00
   Bfn.  Coefficient  Atom+Function         Bfn.  Coefficient  Atom+Function  
  ----- ------------  ---------------      ----- ------------  ---------------
    80      2.246767  12 H  s                78     -1.353074  11 H  s         
    44      1.222477   5 C  py               43     -1.109461   5 C  px        
    34      1.028216   4 C  px               42     -0.938402   5 C  s         
    33      0.737550   4 C  s                 6      0.540164   1 N  s         
    74     -0.437815   9 H  s                51     -0.352947   6 C  s         
 
 Vector   36  Occ=0.000000E+00  E= 3.040471E-01  Symmetry=a"
              MO Center=  1.4E-01, -4.1E-01,  1.3E-15, r^2= 3.8E+00
   Bfn.  Coefficient  Atom+Function         Bfn.  Coefficient  Atom+Function  
  ----- ------------  ---------------      ----- ------------  ---------------
    54      0.700217   6 C  pz               45     -0.665371   5 C  pz        
    36      0.557280   4 C  pz               27      0.517815   3 C  pz        
     9     -0.439858   1 N  pz               50      0.386066   6 C  pz        
    18     -0.372456   2 N  pz               63     -0.345226   7 O  pz        
    23      0.294671   3 C  pz               41     -0.270302   5 C  pz        
 
 Vector   37  Occ=0.000000E+00  E= 3.630512E-01  Symmetry=a'
              MO Center=  1.2E+00,  3.0E-02,  9.8E-17, r^2= 3.9E+00
   Bfn.  Coefficient  Atom+Function         Bfn.  Coefficient  Atom+Function  
  ----- ------------  ---------------      ----- ------------  ---------------
    15      1.758012   2 N  s                51      1.698214   6 C  s         
    35     -1.391849   4 C  py               42     -1.358929   5 C  s         
    17     -1.287728   2 N  py               33     -1.076072   4 C  s         
    24     -1.031804   3 C  s                34      0.907358   4 C  px        
    76      0.883216  10 H  s                43      0.554315   5 C  px        
 
 Vector   38  Occ=0.000000E+00  E= 3.893612E-01  Symmetry=a'
              MO Center= -4.8E-01,  3.6E-01,  1.7E-17, r^2= 3.6E+00
   Bfn.  Coefficient  Atom+Function         Bfn.  Coefficient  Atom+Function  
  ----- ------------  ---------------      ----- ------------  ---------------
    24      2.745281   3 C  s                51      1.725720   6 C  s         
     6     -1.412596   1 N  s                69     -1.132814   8 O  s         
    33     -0.812323   4 C  s                 7     -0.643782   1 N  px        
    60     -0.601749   7 O  s                71      0.590499   8 O  py        
    43      0.570562   5 C  px               15     -0.548843   2 N  s         
 
 Vector   39  Occ=0.000000E+00  E= 4.180711E-01  Symmetry=a'
              MO Center= -1.4E-01, -1.2E+00, -2.2E-16, r^2= 4.5E+00
   Bfn.  Coefficient  Atom+Function         Bfn.  Coefficient  Atom+Function  
  ----- ------------  ---------------      ----- ------------  ---------------
    53      1.838679   6 C  py               60      1.800181   7 O  s         
    52      1.753598   6 C  px               43      1.701284   5 C  px        
    35      1.230557   4 C  py               26      0.745198   3 C  py        
    69     -0.624190   8 O  s                62      0.602345   7 O  py        
    16     -0.469585   2 N  px               51      0.439096   6 C  s         
 
 Vector   40  Occ=0.000000E+00  E= 4.379474E-01  Symmetry=a'
              MO Center=  3.2E-01,  6.6E-01, -1.9E-18, r^2= 4.6E+00
   Bfn.  Coefficient  Atom+Function         Bfn.  Coefficient  Atom+Function  
  ----- ------------  ---------------      ----- ------------  ---------------
    33      2.064997   4 C  s                26      1.981207   3 C  py        
    44     -1.521615   5 C  py               25     -1.420177   3 C  px        
    24     -1.413122   3 C  s                69     -1.366008   8 O  s         
    16     -1.130306   2 N  px               34     -1.120285   4 C  px        
     7      0.820206   1 N  px                8      0.808360   1 N  py        
 
 Vector   41  Occ=0.000000E+00  E= 4.960987E-01  Symmetry=a'
              MO Center=  4.5E-02,  2.3E-01,  3.1E-16, r^2= 5.1E+00
   Bfn.  Coefficient  Atom+Function         Bfn.  Coefficient  Atom+Function  
  ----- ------------  ---------------      ----- ------------  ---------------
    24      2.781828   3 C  s                51     -2.002589   6 C  s         
    42     -1.915289   5 C  s                35     -1.869586   4 C  py        
    69     -1.661392   8 O  s                26      1.347872   3 C  py        
     6      1.317593   1 N  s                52      1.300699   6 C  px        
     8     -1.250653   1 N  py               16      1.161436   2 N  px        
 
 Vector   42  Occ=0.000000E+00  E= 5.359650E-01  Symmetry=a'
              MO Center=  2.3E-01, -1.4E-01,  3.4E-17, r^2= 4.9E+00
   Bfn.  Coefficient  Atom+Function         Bfn.  Coefficient  Atom+Function  
  ----- ------------  ---------------      ----- ------------  ---------------
    33      2.153999   4 C  s                 6     -2.066094   1 N  s         
    51     -2.018209   6 C  s                53      1.858833   6 C  py        
    44     -1.730297   5 C  py               60      1.663987   7 O  s         
    35     -1.634750   4 C  py               26     -1.545566   3 C  py        
    24      1.466784   3 C  s                42     -1.396219   5 C  s         
 

 center of mass
 --------------
 x =  -0.06492752 y =  -0.00044477 z =   0.00000000

 moments of inertia (a.u.)
 ------------------
         892.471327895644           0.000000000000           0.000000000000
           0.000000000000         461.966741462078           0.000000000000
           0.000000000000           0.000000000000        1354.438069357721
 
  Mulliken analysis of the total density
  --------------------------------------

    Atom       Charge   Shell Charges
 -----------   ------   -------------------------------------------------------
    1 N    7     8.03   2.00  0.74  2.55  0.98  1.76
    2 N    7     7.99   2.00  0.74  2.56  0.97  1.73
    3 C    6     4.93   2.00  0.75  1.94  0.01  0.24
    4 C    6     5.74   2.00  0.72  1.98  0.35  0.70
    5 C    6     6.35   2.00  0.68  2.08  0.54  1.07
    6 C    6     5.19   2.00  0.74  1.93  0.18  0.34
    7 O    8     8.57   2.00  0.91  2.85  1.06  1.75
    8 O    8     8.56   2.00  0.91  2.86  1.05  1.74
    9 H    1     0.57   0.49  0.08
   10 H    1     0.58   0.49  0.08
   11 H    1     0.74   0.53  0.21
   12 H    1     0.75   0.52  0.23
 
       Multipole analysis of the density wrt the origin
       ------------------------------------------------
 
     L   x y z        total         open         nuclear
     -   - - -        -----         ----         -------
     0   0 0 0      0.000000      0.000000     58.000000
 
     1   1 0 0      1.975620      0.000000      0.000000
     1   0 1 0      0.498858      0.000000      0.000000
     1   0 0 1      0.000000      0.000000      0.000000
 
     2   2 0 0    -28.561394      0.000000    260.579374
     2   1 1 0      1.797610      0.000000     -0.217199
     2   1 0 1      0.000000      0.000000      0.000000
     2   0 2 0    -45.629482      0.000000    461.850471
     2   0 1 1      0.000000      0.000000      0.000000
     2   0 0 2    -34.805003      0.000000      0.000000
 

 Parallel integral file used      66 records with       0 large values

                   NWChem Extensible Many-Electron Theory Module
                   ---------------------------------------------
 
              ======================================================
                   This portion of the program was automatically
                  generated by a Tensor Contraction Engine (TCE).
                  The development of this portion of the program
                 and TCE was supported by US Department of Energy,
                Office of Science, Office of Basic Energy Science.
                      TCE is a product of Battelle and PNNL.
              Please cite: S.Hirata, J.Phys.Chem.A 107, 9887 (2003).
              ======================================================
 
                                tce_eomccsd_eomsol2
 
 
            General Information
            -------------------
      Number of processors :     8
         Wavefunction type : Restricted Hartree-Fock
          No. of electrons :    58
           Alpha electrons :    29
            Beta electrons :    29
           No. of orbitals :   160
            Alpha orbitals :    80
             Beta orbitals :    80
        Alpha frozen cores :     8
         Beta frozen cores :     8
     Alpha frozen virtuals :     0
      Beta frozen virtuals :     0
         Spin multiplicity : singlet 
    Number of AO functions :    80
       Number of AO shells :    48
        Use of symmetry is : on 
      Symmetry adaption is : on 
         Schwarz screening : 0.10E-09
 
          Correlation Information
          -----------------------
          Calculation type : Coupled-cluster singles & doubles w/ perturbation           
   Perturbative correction : completely renormalized EOMCCSD(T)                          
            Max iterations :      100
        Residual threshold : 0.10E-04
     T(0) DIIS level shift : 0.00E+00
     L(0) DIIS level shift : 0.00E+00
     T(1) DIIS level shift : 0.00E+00
     L(1) DIIS level shift : 0.00E+00
     T(R) DIIS level shift : 0.00E+00
     T(I) DIIS level shift : 0.00E+00
   CC-T/L Amplitude update :  5-th order DIIS
     No. of excited states :     1
               Target root :     1
           Target symmetry : none
      Symmetry restriction : off
   Dipole & oscillator str : off
                I/O scheme : Global Array Library
 
            Memory Information
            ------------------
          Available GA space size is     209708800 doubles
          Available MA space size is      26187216 doubles
 
 Maximum block size supplied by input
 Maximum block size        15 doubles

 tile_dim =     14

 Block   Spin    Irrep     Size     Offset   Alpha
 -------------------------------------------------
   1    alpha     a'     8 doubles       0       1
   2    alpha     a'     8 doubles       8       2
   3    alpha     a"     5 doubles      16       3
   4    beta      a'     8 doubles      21       1
   5    beta      a'     8 doubles      29       2
   6    beta      a"     5 doubles      37       3
   7    alpha     a'    13 doubles      42       7
   8    alpha     a'    13 doubles      55       8
   9    alpha     a'    14 doubles      68       9
  10    alpha     a"    11 doubles      82      10
  11    beta      a'    13 doubles      93       7
  12    beta      a'    13 doubles     106       8
  13    beta      a'    14 doubles     119       9
  14    beta      a"    11 doubles     133      10

 Global array virtual files algorithm will be used

 Parallel file system coherency ......... OK

 Integral file          = ./tce_eomccsd_eomsol2.aoints.0
 Record size in doubles =  65536        No. of integs per rec  =  43688
 Max. records in memory =     15        Max. records in file   = 169380
 No. of bits per label  =      8        No. of bits per value  =     64


 #quartets = 5.882E+05 #integrals = 2.648E+06 #direct =  0.0% #cached =100.0%


File balance: exchanges=     0  moved=     0  time=   0.0

 
 Fock matrix recomputed
 1-e file size   =             3392
 1-e file name   = ./tce_eomccsd_eomsol
 Cpu & wall time / sec            0.8            0.8
 4-electron integrals stored in orbital form
 
 v2    file size   =          2799373
 4-index algorithm nr.  13 is used
 imaxsize =       30
 imaxsize ichop =        0
 Cpu & wall time / sec            6.6            6.6
 do_pt =  F
 do_lam_pt =  F
 do_cr_pt =  F
 do_lcr_pt =  F
 do_2t_pt =  F
 T1-number-of-tasks 7
 
 t1 file size   =              695
 t1 file name   = ./tce_eomccsd_eomsol
 t1 file handle =       -998
 T2-number-of-boxes 108
 
 t2 file size   =           917397
 t2 file name   = ./tce_eomccsd_eomsol
 t2 file handle =       -996

 CCSD iterations
 -----------------------------------------------------------------
 Iter          Residuum       Correlation     Cpu    Wall    V2*C2
 -----------------------------------------------------------------
    1   0.2099089631348  -0.7921802240875     2.1     2.2     0.2
    2   0.0717319085114  -0.7916520259120     2.1     2.2     0.2
    3   0.0287190329762  -0.8107015811901     2.1     2.2     0.2
    4   0.0135304146893  -0.8135278784826     2.1     2.2     0.2
    5   0.0063743337158  -0.8161061011118     2.1     2.2     0.2
 MICROCYCLE DIIS UPDATE: 5 5
    6   0.0018426379151  -0.8174692146905     2.1     2.3     0.2
    7   0.0009521815020  -0.8175505122673     2.1     2.2     0.2
    8   0.0005276293810  -0.8175601934691     2.0     2.3     0.2
    9   0.0003363560599  -0.8175690652868     2.0     2.3     0.2
   10   0.0002022530066  -0.8175825445211     2.1     2.3     0.2
 MICROCYCLE DIIS UPDATE: 10 5
   11   0.0000609557864  -0.8175951141816     2.0     2.3     0.2
   12   0.0000307015868  -0.8175968024004     2.1     2.3     0.2
   13   0.0000202458812  -0.8175969209773     2.0     2.3     0.2
   14   0.0000125441387  -0.8175972075522     2.1     2.3     0.2
   15   0.0000085587578  -0.8175970276682     2.1     2.3     0.2
 -----------------------------------------------------------------
 Iterations converged
 CCSD correlation energy / hartree =        -0.817597027668158
 CCSD total energy / hartree       =      -413.096219311423567

 Singles contributions

 Doubles contributions
 
 Ground-state symmetry is a'  
 
 =========================================
 Excited-state calculation ( a'  symmetry)
 =========================================
 Dim. of EOMCC iter. space      500
 
 x1 file size   =              695
 
 x2 file size   =           917397
 EOMCCSD SOLVER TYPE 2

 CIS-like initial guess for EOM-CCSD iterations
 --------------------------------------------------------------
      Residuum       Omega / hartree  Omega / eV    Cpu    Wall
 --------------------------------------------------------------

 No. of initial right vectors    1

 Iteration   1 using    1 trial vectors
   0.1770840991908   0.2841342035505    7.73169     0.0     0.1

 Iteration   2 using    2 trial vectors
   0.0467088266395   0.2527641478303    6.87807     0.0     0.0

 Iteration   3 using    3 trial vectors
   0.0171664321485   0.2494594101026    6.78814     0.0     0.0

 Iteration   4 using    4 trial vectors
   0.0087181503703   0.2490522977891    6.77706     0.0     0.0

 Iteration   5 using    5 trial vectors
   0.0037983335021   0.2489364340972    6.77391     0.0     0.0

 Iteration   6 using    6 trial vectors
   0.0025329474168   0.2489027376765    6.77299     0.0     0.0

 Iteration   7 using    7 trial vectors
   0.0010206612644   0.2488943601914    6.77276     0.0     0.0

 Iteration   8 using    8 trial vectors
   0.0005272785079   0.2488924128285    6.77271     0.0     0.0

 Iteration   9 using    9 trial vectors
   0.0002862521677   0.2488918449290    6.77269     0.0     0.0

 Iteration  10 using   10 trial vectors
   0.0001716727729   0.2488916964796    6.77269     0.0     0.1

 Iteration  11 using   11 trial vectors
   0.0000867302487   0.2488916528494    6.77269     0.1     0.1

 Iteration  12 using   12 trial vectors
   0.0000323879301   0.2488916431375    6.77269     0.1     0.1

 Iteration  13 using   13 trial vectors
   0.0000158354737   0.2488916413566    6.77269     0.1     0.1

 Iteration  14 using   14 trial vectors
   0.0000069040818   0.2488916409832    6.77269     0.0     0.1
 --------------------------------------------------------------
 Iterations converged
 INITIAL STARTS -----

 Singles contributions
    30a"  (alpha) ---    29a"  (alpha)        0.9668566196
    31a"  (alpha) ---    25a"  (alpha)        0.1139140115
                     
 INITIAL STARTS -----

 EOM-CCSD right-hand side iterations
 --------------------------------------------------------------
      Residuum       Omega / hartree  Omega / eV    Cpu    Wall
 --------------------------------------------------------------

 Iteration     1
   0.4141762057886   0.3479699461794    9.46875     4.0     4.3

 Iteration     2
   0.1035866461163   0.2363735327359    6.43205     3.0     3.3

 Iteration     3
   0.0704379366626   0.2248119537856    6.11745     3.1     3.5

 Iteration     4
   0.0352636256480   0.2211377260836    6.01747     3.3     3.7

 Iteration     5
   0.0209217117324   0.2198115857397    5.98138     2.8     3.0

 Iteration     6
   0.0116507693942   0.2194877919943    5.97257     3.0     3.3

 Iteration     7
   0.0093866170937   0.2191492830322    5.96336     3.1     3.5

 Iteration     8
   0.0051447303637   0.2190300555047    5.96011     3.2     3.6

 Iteration     9
   0.0035879893944   0.2191032672685    5.96211     2.8     3.0

 Iteration    10
   0.0019859956660   0.2190652979287    5.96107     2.9     3.2

 Iteration    11
   0.0021439891819   0.2190567234177    5.96084     3.0     3.4

 Iteration    12
   0.0014127231309   0.2190957237966    5.96190     3.2     3.6

 Iteration    13
   0.0012741942951   0.2190850827010    5.96161     2.7     3.0

 Iteration    14
   0.0006258545243   0.2190801343620    5.96148     2.9     3.2

 Iteration    15
   0.0006466132598   0.2190729448089    5.96128     3.0     3.5

 Iteration    16
   0.0004341432286   0.2190680838912    5.96115     3.2     3.7

 Iteration    17
   0.0005004709039   0.2190737783172    5.96130     2.8     3.0

 Iteration    18
   0.0002496179460   0.2190719491061    5.96125     3.0     3.2

 Iteration    19
   0.0002428389735   0.2190715330060    5.96124     3.1     3.5

 Iteration    20
   0.0001657827506   0.2190756726310    5.96135     3.1     3.6

 Iteration    21
   0.0001843621737   0.2190756081171    5.96135     2.8     3.0

 Iteration    22
   0.0000965774542   0.2190745094326    5.96132     2.9     3.2

 Iteration    23
   0.0001006179841   0.2190736679595    5.96130     2.9     3.5

 Iteration    24
   0.0000687676121   0.2190733012237    5.96129     3.0     3.7

 Iteration    25
   0.0000798489223   0.2190738727626    5.96131     2.8     3.0

 Iteration    26
   0.0000402024655   0.2190738504087    5.96131     2.8     3.2

 Iteration    27
   0.0000377943363   0.2190737920258    5.96130     3.0     3.4

 Iteration    28
   0.0000249889021   0.2190743237076    5.96132     2.9     3.6

 Iteration    29
   0.0000281641135   0.2190744295923    5.96132     2.7     3.0

 Iteration    30
   0.0000153174224   0.2190742060001    5.96131     2.9     3.2

 Iteration    31
   0.0000160720711   0.2190740896460    5.96131     2.9     3.4

 Iteration    32
   0.0000112513432   0.2190740731118    5.96131     3.0     3.7

 Iteration    33
   0.0000130750945   0.2190741259938    5.96131     2.7     3.0

 Iteration    34
   0.0000065355194   0.2190741464246    5.96131     2.9     3.3
 EOMCCSD root nr.  1

 Singles contributions
    30a"  (alpha) ---    25a"  (alpha)        0.1071183721
    30a"  (alpha) ---    29a"  (alpha)       -0.6298917283
    31a"  (alpha) ---    28a"  (alpha)        0.1164806729

 Doubles contributions
          
CR-EOMCCSD(T) Intermediates cpu wall time             8.2            8.6
 cr_N i1_1 nr of boxes  148
 cr_N i1_2 nr of boxes  264
 creom_N i2_1 nr of boxes  148
 creom_N i2_2 nr of boxes  264
 creom_N i2_3 nr of boxes  148
 creom_N i2_4 nr of boxes  264
          
          
CR-EOMCCSD(T) triples loop cpu wall            77.7           77.7
          
 CR-EOMCCSD(T)IA total energy / hartree       =      -412.885281813106076
 delta-CR-EOMCCSD(T),IA         excitation energy (eV)       =      5.73990
 
 
 =========================================
 Excited-state calculation ( a"  symmetry)
 =========================================
 Dim. of EOMCC iter. space      500
 
 x1 file size   =              376
 
 x2 file size   =           713160
 EOMCCSD SOLVER TYPE 2

 CIS-like initial guess for EOM-CCSD iterations
 --------------------------------------------------------------
      Residuum       Omega / hartree  Omega / eV    Cpu    Wall
 --------------------------------------------------------------

 No. of initial right vectors    1

 Iteration   1 using    1 trial vectors
   0.1126973247252   0.3016030657546    8.20704     0.0     0.0

 Iteration   2 using    2 trial vectors
   0.0634147018678   0.2342761846467    6.37498     0.0     0.0

 Iteration   3 using    3 trial vectors
   0.0239367716777   0.2246796500930    6.11385     0.0     0.0

 Iteration   4 using    4 trial vectors
   0.0095372644695   0.2235546915349    6.08324     0.0     0.0

 Iteration   5 using    5 trial vectors
   0.0077949454197   0.2232799870952    6.07576     0.0     0.0

 Iteration   6 using    6 trial vectors
   0.0049254593340   0.2231092881270    6.07112     0.0     0.0

 Iteration   7 using    7 trial vectors
   0.0034030043626   0.2230381085599    6.06918     0.0     0.0

 Iteration   8 using    8 trial vectors
   0.0011905901032   0.2230197424333    6.06868     0.0     0.0

 Iteration   9 using    9 trial vectors
   0.0003894171807   0.2230177584410    6.06862     0.0     0.0

 Iteration  10 using   10 trial vectors
   0.0001353739508   0.2230175319977    6.06862     0.0     0.0

 Iteration  11 using   11 trial vectors
   0.0000658382811   0.2230175011235    6.06862     0.0     0.0

 Iteration  12 using   12 trial vectors
   0.0000225890585   0.2230174936793    6.06862     0.0     0.1

 Iteration  13 using   13 trial vectors
   0.0000064509295   0.2230174930423    6.06862     0.0     0.0
 --------------------------------------------------------------
 Iterations converged
 INITIAL STARTS -----

 Singles contributions
    30a"  (alpha) ---    26a'  (alpha)       -0.2911287692
    30a"  (alpha) ---    27a'  (alpha)       -0.7641070538
    31a"  (alpha) ---    26a'  (alpha)       -0.1323731108
    31a"  (alpha) ---    27a'  (alpha)       -0.4122203968
    36a"  (alpha) ---    26a'  (alpha)        0.1269817705
    36a"  (alpha) ---    27a'  (alpha)        0.3142731992
                     
 INITIAL STARTS -----

 EOM-CCSD right-hand side iterations
 --------------------------------------------------------------
      Residuum       Omega / hartree  Omega / eV    Cpu    Wall
 --------------------------------------------------------------

 Iteration     1
   0.4499587169504   0.3273257770945    8.90699     3.1     3.5

 Iteration     2
   0.1048462430730   0.2014310125154    5.48122     2.2     2.5

 Iteration     3
   0.0583120673169   0.1931827439966    5.25677     2.3     2.6

 Iteration     4
   0.0262387933813   0.1912844507570    5.20512     2.4     2.8

 Iteration     5
   0.0221149252335   0.1903219015404    5.17892     2.1     2.3

 Iteration     6
   0.0110274200558   0.1899379161831    5.16848     2.2     2.5

 Iteration     7
   0.0103235771151   0.1896766036386    5.16137     2.4     2.7

 Iteration     8
   0.0067340390467   0.1895417533172    5.15770     2.4     2.8

 Iteration     9
   0.0037401500534   0.1896198859494    5.15982     2.1     2.3

 Iteration    10
   0.0016201754261   0.1895554971651    5.15807     2.3     2.5

 Iteration    11
   0.0016245208162   0.1895785598964    5.15870     2.2     2.6

 Iteration    12
   0.0013917658599   0.1895914307343    5.15905     2.4     2.8

 Iteration    13
   0.0011667467129   0.1895697124568    5.15846     2.1     2.3

 Iteration    14
   0.0005234744288   0.1895754674316    5.15861     2.2     2.5

 Iteration    15
   0.0003679236482   0.1895695711243    5.15845     2.3     2.6

 Iteration    16
   0.0002412808457   0.1895670311532    5.15838     2.4     2.8

 Iteration    17
   0.0002481282962   0.1895712283898    5.15850     2.0     2.3

 Iteration    18
   0.0001292304654   0.1895684871900    5.15842     2.2     2.5

 Iteration    19
   0.0001376674505   0.1895701563646    5.15847     2.3     2.6

 Iteration    20
   0.0001017127382   0.1895710486001    5.15849     2.4     2.8

 Iteration    21
   0.0000866646213   0.1895696309826    5.15845     2.1     2.3

 Iteration    22
   0.0000436964517   0.1895702964668    5.15847     2.2     2.5

 Iteration    23
   0.0000330539270   0.1895698833794    5.15846     2.3     2.7

 Iteration    24
   0.0000199319687   0.1895697308452    5.15846     2.3     2.8

 Iteration    25
   0.0000201079478   0.1895700166907    5.15846     2.1     2.3

 Iteration    26
   0.0000113351213   0.1895698302150    5.15846     2.3     2.5

 Iteration    27
   0.0000123492852   0.1895699490964    5.15846     2.3     2.6

 Iteration    28
   0.0000084168286   0.1895700074075    5.15846     2.4     2.8
 EOMCCSD root nr.  1

 Singles contributions
    30a"  (alpha) ---    26a'  (alpha)       -0.1712187835
    30a"  (alpha) ---    27a'  (alpha)       -0.5808258162
    31a"  (alpha) ---    27a'  (alpha)       -0.2093494737
    36a"  (alpha) ---    27a'  (alpha)        0.1469247508

 Doubles contributions
          
CR-EOMCCSD(T) Intermediates cpu wall time             5.2            5.5
 creom_N i2_1 nr of boxes  140
 creom_N i2_2 nr of boxes  240
 creom_N i2_3 nr of boxes  148
 creom_N i2_4 nr of boxes  264
          
          
CR-EOMCCSD(T) triples loop cpu wall            36.7           36.8
          
 CR-EOMCCSD(T)IA total energy / hartree       =      -412.909120563202634
 delta-CR-EOMCCSD(T),IA         excitation energy (eV)       =      5.09122
 

 Parallel integral file used      66 records with       0 large values


 Task  times  cpu:      376.0s     wall:      410.9s
 
 
                                NWChem Input Module
                                -------------------
 
 
 Summary of allocated global arrays
-----------------------------------
  No active global arrays



                         GA Statistics for process    0
                         ------------------------------

       create   destroy   get      put      acc     scatter   gather  read&inc
calls: 2921     2921     6.66e+05 3382     8.21e+04    0        0        0     
number of processes/call 1.09e+00 1.50e+00 1.11e+00 0.00e+00 0.00e+00
bytes total:             4.79e+10 3.85e+08 5.06e+09 0.00e+00 0.00e+00 0.00e+00
bytes remote:            3.90e+10 3.32e+08 4.37e+09 0.00e+00 0.00e+00 0.00e+00
Max memory consumed for GA by this process: 24515784 bytes
 
MA_summarize_allocated_blocks: starting scan ...
MA_summarize_allocated_blocks: scan completed: 0 heap blocks, 0 stack blocks
MA usage statistics:

	allocation statistics:
					      heap	     stack
					      ----	     -----
	current number of blocks	         0	         0
	maximum number of blocks	        18	        47
	current total bytes		         0	         0
	maximum total bytes		   8079688	  36462616
	maximum total K-bytes		      8080	     36463
	maximum total M-bytes		         9	        37



                                  ACKNOWLEDGEMENT
                                  ---------------

            Please use the following acknowledgement where appropriate 
            for results obtained with NWChem:

            High Performance Computational Chemistry Group, "NWChem, A
            Computational Chemistry Package for Parallel Computers, 
            Version 5.1.1" (2008), Pacific Northwest National Laboratory,
            Richland, Washington 99352-0999, USA.


                                     CITATION
                                     --------

          Please use the following citation when publishing results
          obtained with NWChem:

          E. J. Bylaska, W. A. de Jong, N. Govind, K. Kowalski, T. P. Straatsma,
          M. Valiev, H. J. J. Van Dam, D. Wang, E. Apra, T. L. Windus, J. Hammond,
          J. Autschbach, P. Nichols, S. Hirata, M. T. Hackler, Y. Zhao, P.-D. Fan,
          R. J. Harrison, M. Dupuis, D. M. A. Smith, J. Nieplocha, V. Tipparaju,
          M. Krishnan, A. Vazquez-Mayagoitia, L. Jensen, M. Swart, Q. Wu,
          T. Van Voorhis, A. A. Auer, M. Nooijen, L. D. Crosby, E. Brown, 
          G. Cisneros, G. I. Fann, H. Fruchtl, J. Garza, K. Hirao,
          R. Kendall, J. A. Nichols, K. Tsemekhman, K. Wolinski, J. Anchell, 
          D. Bernholdt, P. Borowski, T. Clark, D. Clerc, H. Dachsel, M. Deegan, 
          K. Dyall, D. Elwood, E. Glendening, M. Gutowski, A. Hess, J. Jaffe, 
          B. Johnson, J. Ju, R. Kobayashi, R. Kutteh, Z. Lin, R. Littlefield, 
          X. Long, B. Meng, T. Nakajima, S. Niu, L. Pollack, M. Rosing, 
          G. Sandrone, M. Stave, H. Taylor, G. Thomas, J. van Lenthe, 
          A. Wong, and Z. Zhang,
          "NWChem, A Computational Chemistry Package for Parallel Computers, 
          Version 5.1.1" (2008),
                      Pacific Northwest National Laboratory,
                      Richland, Washington 99352-0999, USA.



 Total times  cpu:      376.0s     wall:      411.4s
