 argument  1 = tddft_h2o.nw



============================== echo of input deck ==============================
# This tests CIS, TDHF, TDDFT functionality at once
# by using a hybrid LDA, GGA, HF functional for
# spin restricted reference with symmetry on.

start tddft_h2o

echo

title "TDDFT H2O B3LYP/6-31G** QA TEST"

geometry
O     0.00000000     0.00000000     0.12982363
H     0.75933475     0.00000000    -0.46621158
H    -0.75933475     0.00000000    -0.46621158
end

basis
O library 6-31G**
H library 6-31G**
end

dft
xc b3lyp
end

tddft
 nroots 10
 notriplet
 algorithm 1
end

task dft energy
task tddft energy
#task dft freq
================================================================================


                                         
                                         


              Northwest Computational Chemistry Package (NWChem) 6.0
              ------------------------------------------------------


                    Environmental Molecular Sciences Laboratory
                       Pacific Northwest National Laboratory
                                Richland, WA 99352

                              Copyright (c) 1994-2010
                       Pacific Northwest National Laboratory
                            Battelle Memorial Institute

             NWChem is an open-source computational chemistry package
                        distributed under the terms of the
                      Educational Community License (ECL) 2.0
             A copy of the license is included with this distribution
                              in the LICENSE.TXT file

                                  ACKNOWLEDGMENT
                                  --------------

            This software and its documentation were developed at the
            EMSL at Pacific Northwest National Laboratory, a multiprogram
            national laboratory, operated for the U.S. Department of Energy
            by Battelle under Contract Number DE-AC05-76RL01830. Support
            for this work was provided by the Department of Energy Office
            of Biological and Environmental Research, Office of Basic
            Energy Sciences, and the Office of Advanced Scientific Computing.


           Job information
           ---------------

    hostname      = arcen
    program       = /home/d3y133/nwchem-releases/nwchem-6.0-gfortran/bin/LINUX64/nwchem
    date          = Fri Aug  6 14:00:27 2010

    compiled      = Fri_Aug_06_13:42:42_2010
    source        = /home/d3y133/nwchem-releases/nwchem-6.0-gfortran
    nwchem branch = 6.0
    input         = tddft_h2o.nw
    prefix        = tddft_h2o.
    data base     = ./tddft_h2o.db
    status        = startup
    nproc         =        4
    time left     =     -1s



           Memory information
           ------------------

    heap     =   13107201 doubles =    100.0 Mbytes
    stack    =   13107201 doubles =    100.0 Mbytes
    global   =   26214400 doubles =    200.0 Mbytes (distinct from heap & stack)
    total    =   52428802 doubles =    400.0 Mbytes
    verify   = yes
    hardfail = no 


           Directory information
           ---------------------

  0 permanent = .
  0 scratch   = .




                                NWChem Input Module
                                -------------------


                          TDDFT H2O B3LYP/6-31G** QA TEST
                          -------------------------------

 Scaling coordinates for geometry "geometry" by  1.889725989
 (inverse scale =  0.529177249)

 C2V symmetry detected

          ------
          auto-z
          ------


                             Geometry "geometry" -> ""
                             -------------------------

 Output coordinates in angstroms (scale by  1.889725989 to convert to a.u.)

  No.       Tag          Charge          X              Y              Z
 ---- ---------------- ---------- -------------- -------------- --------------
    1 O                    8.0000     0.00000000     0.00000000     0.11920704
    2 H                    1.0000     0.75933475     0.00000000    -0.47682817
    3 H                    1.0000    -0.75933475     0.00000000    -0.47682817

      Atomic Mass 
      ----------- 

      O                 15.994910
      H                  1.007825


 Effective nuclear repulsion energy (a.u.)       9.1194413826

            Nuclear Dipole moment (a.u.) 
            ----------------------------
        X                 Y               Z
 ---------------- ---------------- ----------------
     0.0000000000     0.0000000000     0.0000000000

      Symmetry information
      --------------------

 Group name             C2v       
 Group number             16
 Group order               4
 No. of unique centers     2

      Symmetry unique atoms

     1    2



                                Z-matrix (autoz)
                                -------- 

 Units are Angstrom for bonds and degrees for angles

      Type          Name      I     J     K     L     M      Value
      ----------- --------  ----- ----- ----- ----- ----- ----------
    1 Stretch                  1     2                       0.96532
    2 Stretch                  1     3                       0.96532
    3 Bend                     2     1     3               103.74015


            XYZ format geometry
            -------------------
     3
 geometry
 O                     0.00000000     0.00000000     0.11920704
 H                     0.75933475     0.00000000    -0.47682817
 H                    -0.75933475     0.00000000    -0.47682817

 ==============================================================================
                                internuclear distances
 ------------------------------------------------------------------------------
       center one      |      center two      | atomic units |  angstroms
 ------------------------------------------------------------------------------
    2 H                |   1 O                |     1.82419  |     0.96532
    3 H                |   1 O                |     1.82419  |     0.96532
 ------------------------------------------------------------------------------
                         number of included internuclear distances:          2
 ==============================================================================



 ==============================================================================
                                 internuclear angles
 ------------------------------------------------------------------------------
        center 1       |       center 2       |       center 3       |  degrees
 ------------------------------------------------------------------------------
    2 H                |   1 O                |   3 H                |   103.74
 ------------------------------------------------------------------------------
                            number of included internuclear angles:          1
 ==============================================================================



  library name resolved from: .nwchemrc
  library file name is: </home/d3y133/nwchem-releases/nwchem-6.0-gfortran/QA/../src/basis/libraries/>
  
                      Basis "ao basis" -> "" (cartesian)
                      -----
  O (Oxygen)
  ----------
            Exponent  Coefficients 
       -------------- ---------------------------------------------------------
  1 S  5.48467170E+03  0.001831
  1 S  8.25234950E+02  0.013950
  1 S  1.88046960E+02  0.068445
  1 S  5.29645000E+01  0.232714
  1 S  1.68975700E+01  0.470193
  1 S  5.79963530E+00  0.358521

  2 S  1.55396160E+01 -0.110778
  2 S  3.59993360E+00 -0.148026
  2 S  1.01376180E+00  1.130767

  3 P  1.55396160E+01  0.070874
  3 P  3.59993360E+00  0.339753
  3 P  1.01376180E+00  0.727159

  4 S  2.70005800E-01  1.000000

  5 P  2.70005800E-01  1.000000

  6 D  8.00000000E-01  1.000000

  H (Hydrogen)
  ------------
            Exponent  Coefficients 
       -------------- ---------------------------------------------------------
  1 S  1.87311370E+01  0.033495
  1 S  2.82539370E+00  0.234727
  1 S  6.40121700E-01  0.813757

  2 S  1.61277800E-01  1.000000

  3 P  1.10000000E+00  1.000000



 Summary of "ao basis" -> "" (cartesian)
 ------------------------------------------------------------------------------
       Tag                 Description            Shells   Functions and Types
 ---------------- ------------------------------  ------  ---------------------
 O                          6-31G**                  6       15   3s2p1d
 H                          6-31G**                  3        5   2s1p



                                 NWChem DFT Module
                                 -----------------


                          TDDFT H2O B3LYP/6-31G** QA TEST


  Caching 1-el integrals 

            General Information
            -------------------
          SCF calculation type: DFT
          Wavefunction type:  closed shell.
          No. of atoms     :     3
          No. of electrons :    10
           Alpha electrons :     5
            Beta electrons :     5
          Charge           :     0
          Spin multiplicity:     1
          Use of symmetry is: on ; symmetry adaption is: on 
          Maximum number of iterations:  30
          AO basis - number of functions:    25
                     number of shells:    12
          Convergence on energy requested: 1.00D-06
          Convergence on density requested: 1.00D-05
          Convergence on gradient requested: 5.00D-04

              XC Information
              --------------
                         B3LYP Method XC Potential
                     Hartree-Fock (Exact) Exchange  0.200          
                        Slater Exchange Functional  0.800 local    
                    Becke 1988 Exchange Functional  0.720 non-local
              Lee-Yang-Parr Correlation Functional  0.810          
                  VWN I RPA Correlation Functional  0.190 local    

             Grid Information
             ----------------
          Grid used for XC integration:  medium    
          Radial quadrature: Mura-Knowles        
          Angular quadrature: Lebedev. 
          Tag              B.-S. Rad. Rad. Pts. Rad. Cut. Ang. Pts.
          ---              ---------- --------- --------- ---------
          O                   0.60       49           5.0       434
          H                   0.35       45           6.0       434
          Grid pruning is: on 
          Number of quadrature shells:    94
          Spatial weights used:  Erf1

          Convergence Information
          -----------------------
          Convergence aids based upon iterative change in 
          total energy or number of iterations. 
          Levelshifting, if invoked, occurs when the 
          HOMO/LUMO gap drops below (HL_TOL): 1.00D-02
          DIIS, if invoked, will attempt to extrapolate 
          using up to (NFOCK): 10 stored Fock matrices.

                    Damping( 0%)  Levelshifting(0.5)       DIIS
                  --------------- ------------------- ---------------
          dE  on:    start            ASAP                start   
          dE off:    2 iters         30 iters            30 iters 


      Screening Tolerance Information
      -------------------------------
          Density screening/tol_rho: 1.00D-10
          AO Gaussian exp screening on grid/accAOfunc:  14
          CD Gaussian exp screening on grid/accCDfunc:  20
          XC Gaussian exp screening on grid/accXCfunc:  20
          Schwarz screening/accCoul: 1.00D-08


      Superposition of Atomic Density Guess
      -------------------------------------

 Sum of atomic energies:         -75.75081731

      Non-variational initial energy
      ------------------------------

 Total energy =     -75.904518
 1-e energy   =    -121.613649
 2-e energy   =      36.589689
 HOMO         =      -0.469134
 LUMO         =       0.112377


      Symmetry analysis of molecular orbitals - initial
      -------------------------------------------------

  Numbering of irreducible representations: 

     1 a1          2 a2          3 b1          4 b2      

  Orbital symmetries:

     1 a1          2 a1          3 b1          4 a1          5 b2      
     6 a1          7 b1          8 b1          9 a1         10 a1      
    11 b2         12 b1         13 a1         14 a1         15 a2      

   Time after variat. SCF:      0.0
   Time prior to 1st pass:      0.0

 #quartets = 1.953D+03 #integrals = 1.805D+04 #direct =  0.0% #cached =100.0%


 Integral file          = ./tddft_h2o.aoints.0
 Record size in doubles =  65536        No. of integs per rec  =  43688
 Max. records in memory =      2        Max. records in file   =  26331
 No. of bits per label  =      8        No. of bits per value  =     64


File balance: exchanges=     0  moved=     0  time=   0.0


 Grid_pts file          = ./tddft_h2o.gridpts.0
 Record size in doubles =  12289        No. of grid_pts per rec  =   3070
 Max. records in memory =      5        Max. recs in file   =    140426


           Memory utilization after 1st SCF pass: 
           Heap Space remaining (MW):       12.91            12913017
          Stack Space remaining (MW):       13.11            13106954

   convergence    iter        energy       DeltaE   RMS-Dens  Diis-err    time
 ---------------- ----- ----------------- --------- --------- ---------  ------
 d= 0,ls=0.0,diis     1    -76.3831043690 -8.55D+01  2.99D-02  3.76D-01     0.1
 d= 0,ls=0.0,diis     2    -76.3778006226  5.30D-03  1.50D-02  4.71D-01     0.1
 d= 0,ls=0.0,diis     3    -76.4187590686 -4.10D-02  1.91D-03  1.12D-02     0.1
 d= 0,ls=0.0,diis     4    -76.4197294137 -9.70D-04  1.79D-04  8.76D-05     0.2
 d= 0,ls=0.0,diis     5    -76.4197379183 -8.50D-06  8.11D-06  7.60D-08     0.2
 d= 0,ls=0.0,diis     6    -76.4197379268 -8.51D-09  1.37D-06  1.22D-09     0.2


         Total DFT energy =      -76.419737926800
      One electron energy =     -123.023412123101
           Coulomb energy =       46.835755726469
    Exchange-Corr. energy =       -9.351522912719
 Nuclear repulsion energy =        9.119441382552

 Numeric. integr. density =       10.000001106235

     Total iterative time =      0.2s



                       DFT Final Molecular Orbital Analysis
                       ------------------------------------

 Vector    1  Occ=2.000000D+00  E=-1.913801D+01  Symmetry=a1
              MO Center=  7.6D-18,  3.0D-21,  1.2D-01, r^2= 1.5D-02
   Bfn.  Coefficient  Atom+Function         Bfn.  Coefficient  Atom+Function  
  ----- ------------  ---------------      ----- ------------  ---------------
     1      0.992881  1 O  s          

 Vector    2  Occ=2.000000D+00  E=-9.973144D-01  Symmetry=a1
              MO Center= -1.0D-16,  1.2D-18, -8.7D-02, r^2= 5.0D-01
   Bfn.  Coefficient  Atom+Function         Bfn.  Coefficient  Atom+Function  
  ----- ------------  ---------------      ----- ------------  ---------------
     2      0.467607  1 O  s                  6      0.422149  1 O  s          
     1     -0.210485  1 O  s                 21      0.151985  3 H  s          
    16      0.151985  2 H  s          

 Vector    3  Occ=2.000000D+00  E=-5.149842D-01  Symmetry=b1
              MO Center=  3.5D-17,  6.2D-17, -1.1D-01, r^2= 7.9D-01
   Bfn.  Coefficient  Atom+Function         Bfn.  Coefficient  Atom+Function  
  ----- ------------  ---------------      ----- ------------  ---------------
     3     -0.513997  1 O  px                 7     -0.247229  1 O  px         
    21      0.244124  3 H  s                 16     -0.244124  2 H  s          
    22      0.157240  3 H  s                 17     -0.157240  2 H  s          

 Vector    4  Occ=2.000000D+00  E=-3.710239D-01  Symmetry=a1
              MO Center=  1.1D-16,  9.1D-18,  1.9D-01, r^2= 7.0D-01
   Bfn.  Coefficient  Atom+Function         Bfn.  Coefficient  Atom+Function  
  ----- ------------  ---------------      ----- ------------  ---------------
     5      0.552652  1 O  pz                 6      0.416361  1 O  s          
     9      0.364042  1 O  pz                 2      0.174171  1 O  s          

 Vector    5  Occ=2.000000D+00  E=-2.919627D-01  Symmetry=b2
              MO Center= -2.0D-32,  8.1D-18,  9.4D-02, r^2= 5.9D-01
   Bfn.  Coefficient  Atom+Function         Bfn.  Coefficient  Atom+Function  
  ----- ------------  ---------------      ----- ------------  ---------------
     4     -0.643967  1 O  py                 8     -0.494567  1 O  py         

 Vector    6  Occ=0.000000D+00  E= 6.534607D-02  Symmetry=a1
              MO Center= -1.4D-15, -7.6D-18, -6.2D-01, r^2= 2.4D+00
   Bfn.  Coefficient  Atom+Function         Bfn.  Coefficient  Atom+Function  
  ----- ------------  ---------------      ----- ------------  ---------------
     6      1.261194  1 O  s                 22     -0.969306  3 H  s          
    17     -0.969306  2 H  s                  9     -0.469997  1 O  pz         
     5     -0.275960  1 O  pz         

 Vector    7  Occ=0.000000D+00  E= 1.512260D-01  Symmetry=b1
              MO Center=  1.5D-15, -7.3D-17, -5.7D-01, r^2= 2.5D+00
   Bfn.  Coefficient  Atom+Function         Bfn.  Coefficient  Atom+Function  
  ----- ------------  ---------------      ----- ------------  ---------------
    17     -1.286510  2 H  s                 22      1.286510  3 H  s          
     7      0.758485  1 O  px                 3      0.410623  1 O  px         

 Vector    8  Occ=0.000000D+00  E= 7.568468D-01  Symmetry=b1
              MO Center= -2.4D-16,  3.1D-32, -2.6D-01, r^2= 1.7D+00
   Bfn.  Coefficient  Atom+Function         Bfn.  Coefficient  Atom+Function  
  ----- ------------  ---------------      ----- ------------  ---------------
    22      0.795376  3 H  s                 17     -0.795376  2 H  s          
    21     -0.770846  3 H  s                 16      0.770846  2 H  s          
    12     -0.460025  1 O  dxz                3     -0.202259  1 O  px         
     7     -0.166493  1 O  px         

 Vector    9  Occ=0.000000D+00  E= 8.055100D-01  Symmetry=a1
              MO Center= -1.3D-16,  3.2D-19, -1.7D-01, r^2= 1.5D+00
   Bfn.  Coefficient  Atom+Function         Bfn.  Coefficient  Atom+Function  
  ----- ------------  ---------------      ----- ------------  ---------------
     5      0.647808  1 O  pz                22     -0.601436  3 H  s          
    17     -0.601436  2 H  s                 21      0.566893  3 H  s          
    16      0.566893  2 H  s                  9     -0.558050  1 O  pz         
    10      0.262150  1 O  dxx                6      0.238810  1 O  s          
    18      0.164396  2 H  px                23     -0.164396  3 H  px         

 Vector   10  Occ=0.000000D+00  E= 8.913501D-01  Symmetry=b2
              MO Center= -2.3D-16,  8.6D-21,  1.1D-01, r^2= 1.1D+00
   Bfn.  Coefficient  Atom+Function         Bfn.  Coefficient  Atom+Function  
  ----- ------------  ---------------      ----- ------------  ---------------
     8     -1.037304  1 O  py                 4      0.959670  1 O  py         

 Vector   11  Occ=0.000000D+00  E= 8.935284D-01  Symmetry=a1
              MO Center=  9.5D-18,  2.4D-20,  2.6D-01, r^2= 1.5D+00
   Bfn.  Coefficient  Atom+Function         Bfn.  Coefficient  Atom+Function  
  ----- ------------  ---------------      ----- ------------  ---------------
     6     -1.350168  1 O  s                  2      0.816729  1 O  s          
     9     -0.807031  1 O  pz                 5      0.529853  1 O  pz         
    16     -0.502430  2 H  s                 21     -0.502430  3 H  s          
    22      0.381526  3 H  s                 17      0.381526  2 H  s          
    13      0.323630  1 O  dyy               15      0.272322  1 O  dzz        

 Vector   12  Occ=0.000000D+00  E= 1.015566D+00  Symmetry=b1
              MO Center=  1.0D-15,  1.1D-17,  1.2D-01, r^2= 1.6D+00
   Bfn.  Coefficient  Atom+Function         Bfn.  Coefficient  Atom+Function  
  ----- ------------  ---------------      ----- ------------  ---------------
     7      1.795569  1 O  px                17     -0.963662  2 H  s          
    22      0.963662  3 H  s                  3     -0.864461  1 O  px         
    12     -0.157552  1 O  dxz               16     -0.152362  2 H  s          
    21      0.152362  3 H  s          

 Vector   13  Occ=0.000000D+00  E= 1.175374D+00  Symmetry=a1
              MO Center= -1.1D-15,  4.4D-17, -3.7D-01, r^2= 1.4D+00
   Bfn.  Coefficient  Atom+Function         Bfn.  Coefficient  Atom+Function  
  ----- ------------  ---------------      ----- ------------  ---------------
     6     -3.527322  1 O  s                  2      1.425462  1 O  s          
     9      0.990461  1 O  pz                22      0.770199  3 H  s          
    17      0.770199  2 H  s                 10      0.625764  1 O  dxx        
     5     -0.351436  1 O  pz                15      0.333460  1 O  dzz        
    21      0.326676  3 H  s                 16      0.326676  2 H  s          

 Vector   14  Occ=0.000000D+00  E= 1.529509D+00  Symmetry=a2
              MO Center= -1.2D-15, -8.6D-17, -1.3D-01, r^2= 7.7D-01
   Bfn.  Coefficient  Atom+Function         Bfn.  Coefficient  Atom+Function  
  ----- ------------  ---------------      ----- ------------  ---------------
    11     -1.177966  1 O  dxy               24      0.350698  3 H  py         
    19     -0.350698  2 H  py         

 Vector   15  Occ=0.000000D+00  E= 1.537657D+00  Symmetry=a1
              MO Center=  8.3D-17, -5.8D-19,  2.5D-02, r^2= 8.4D-01
   Bfn.  Coefficient  Atom+Function         Bfn.  Coefficient  Atom+Function  
  ----- ------------  ---------------      ----- ------------  ---------------
     6     -0.901910  1 O  s                 15      0.788597  1 O  dzz        
     9      0.519667  1 O  pz                 2      0.323895  1 O  s          
    10     -0.255740  1 O  dxx               20     -0.248205  2 H  pz         
    25     -0.248205  3 H  pz                13     -0.245550  1 O  dyy        
    16      0.237555  2 H  s                 21      0.237555  3 H  s          


 center of mass
 --------------
 x =   0.00000000 y =   0.00000000 z =   0.09921406

 moments of inertia (a.u.)
 ------------------
           2.270969023714           0.000000000000           0.000000000000
           0.000000000000           6.421267634361           0.000000000000
           0.000000000000           0.000000000000           4.150298610647

     Multipole analysis of the density
     ---------------------------------

     L   x y z        total         alpha         beta         nuclear
     -   - - -        -----         -----         ----         -------
     0   0 0 0      0.000000     -5.000000     -5.000000     10.000000

     1   1 0 0      0.000000      0.000000      0.000000      0.000000
     1   0 1 0      0.000000      0.000000      0.000000      0.000000
     1   0 0 1     -0.803751     -0.401875     -0.401875      0.000000

     2   2 0 0     -3.194726     -3.656400     -3.656400      4.118075
     2   1 1 0      0.000000      0.000000      0.000000      0.000000
     2   1 0 1      0.000000      0.000000      0.000000      0.000000
     2   0 2 0     -5.306780     -2.653390     -2.653390      0.000000
     2   0 1 1      0.000000      0.000000      0.000000      0.000000
     2   0 0 2     -4.442836     -3.236337     -3.236337      2.029839


 Parallel integral file used       4 records with       0 large values


 Task  times  cpu:        0.2s     wall:        0.3s


                                NWChem Input Module
                                -------------------



                                 NWChem DFT Module
                                 -----------------


                          TDDFT H2O B3LYP/6-31G** QA TEST


  Caching 1-el integrals 

            General Information
            -------------------
          SCF calculation type: DFT
          Wavefunction type:  closed shell.
          No. of atoms     :     3
          No. of electrons :    10
           Alpha electrons :     5
            Beta electrons :     5
          Charge           :     0
          Spin multiplicity:     1
          Use of symmetry is: off; symmetry adaption is: on 
          Maximum number of iterations:  30
          AO basis - number of functions:    25
                     number of shells:    12
          Convergence on energy requested: 1.00D-06
          Convergence on density requested: 1.00D-05
          Convergence on gradient requested: 5.00D-04

              XC Information
              --------------
                         B3LYP Method XC Potential
                     Hartree-Fock (Exact) Exchange  0.200          
                        Slater Exchange Functional  0.800 local    
                    Becke 1988 Exchange Functional  0.720 non-local
              Lee-Yang-Parr Correlation Functional  0.810          
                  VWN I RPA Correlation Functional  0.190 local    

             Grid Information
             ----------------
          Grid used for XC integration:  medium    
          Radial quadrature: Mura-Knowles        
          Angular quadrature: Lebedev. 
          Tag              B.-S. Rad. Rad. Pts. Rad. Cut. Ang. Pts.
          ---              ---------- --------- --------- ---------
          O                   0.60       49           5.0       434
          H                   0.35       45           6.0       434
          Grid pruning is: on 
          Number of quadrature shells:   139
          Spatial weights used:  Erf1

          Convergence Information
          -----------------------
          Convergence aids based upon iterative change in 
          total energy or number of iterations. 
          Levelshifting, if invoked, occurs when the 
          HOMO/LUMO gap drops below (HL_TOL): 1.00D-02
          DIIS, if invoked, will attempt to extrapolate 
          using up to (NFOCK): 10 stored Fock matrices.

                    Damping( 0%)  Levelshifting(0.5)       DIIS
                  --------------- ------------------- ---------------
          dE  on:    start            ASAP                start   
          dE off:    2 iters         30 iters            30 iters 


      Screening Tolerance Information
      -------------------------------
          Density screening/tol_rho: 1.00D-10
          AO Gaussian exp screening on grid/accAOfunc:  14
          CD Gaussian exp screening on grid/accCDfunc:  20
          XC Gaussian exp screening on grid/accXCfunc:  20
          Schwarz screening/accCoul: 1.00D-08


 Loading old vectors from job with title :

TDDFT H2O B3LYP/6-31G** QA TEST


      Symmetry analysis of molecular orbitals - initial
      -------------------------------------------------

  Numbering of irreducible representations: 

     1 a1          2 a2          3 b1          4 b2      

  Orbital symmetries:

     1 a1          2 a1          3 b1          4 a1          5 b2      
     6 a1          7 b1          8 b1          9 a1         10 b2      
    11 a1         12 b1         13 a1         14 a2         15 a1      

   Time after variat. SCF:      0.2
   Time prior to 1st pass:      0.2

 #quartets = 3.081D+03 #integrals = 2.937D+04 #direct =  0.0% #cached =100.0%


 Integral file          = ./tddft_h2o.aoints.0
 Record size in doubles =  65536        No. of integs per rec  =  43688
 Max. records in memory =      2        Max. records in file   =  26331
 No. of bits per label  =      8        No. of bits per value  =     64


File balance: exchanges=     0  moved=     0  time=   0.0


 Grid_pts file          = ./tddft_h2o.gridpts.0
 Record size in doubles =  12289        No. of grid_pts per rec  =   3070
 Max. records in memory =      5        Max. recs in file   =    140426


           Memory utilization after 1st SCF pass: 
           Heap Space remaining (MW):       12.91            12913017
          Stack Space remaining (MW):       13.11            13106954

   convergence    iter        energy       DeltaE   RMS-Dens  Diis-err    time
 ---------------- ----- ----------------- --------- --------- ---------  ------
 d= 0,ls=0.0,diis     1    -76.4197379269 -8.55D+01  1.06D-07  7.63D-12     0.3
 d= 0,ls=0.0,diis     2    -76.4197379269  1.42D-14  6.71D-08  1.13D-11     0.4


         Total DFT energy =      -76.419737926903
      One electron energy =     -123.023468272838
           Coulomb energy =       46.835818768831
    Exchange-Corr. energy =       -9.351529805448
 Nuclear repulsion energy =        9.119441382552

 Numeric. integr. density =       10.000001105833

     Total iterative time =      0.2s



                       DFT Final Molecular Orbital Analysis
                       ------------------------------------

 Vector    1  Occ=2.000000D+00  E=-1.913801D+01  Symmetry=a1
              MO Center= -9.0D-15,  8.9D-20,  1.2D-01, r^2= 1.5D-02
   Bfn.  Coefficient  Atom+Function         Bfn.  Coefficient  Atom+Function  
  ----- ------------  ---------------      ----- ------------  ---------------
     1      0.992881  1 O  s          

 Vector    2  Occ=2.000000D+00  E=-9.973141D-01  Symmetry=a1
              MO Center= -2.1D-12, -3.2D-17, -8.7D-02, r^2= 5.0D-01
   Bfn.  Coefficient  Atom+Function         Bfn.  Coefficient  Atom+Function  
  ----- ------------  ---------------      ----- ------------  ---------------
     2      0.467607  1 O  s                  6      0.422148  1 O  s          
     1     -0.210485  1 O  s                 21      0.151985  3 H  s          
    16      0.151985  2 H  s          

 Vector    3  Occ=2.000000D+00  E=-5.149839D-01  Symmetry=b1
              MO Center=  2.0D-12,  1.1D-29, -1.1D-01, r^2= 7.9D-01
   Bfn.  Coefficient  Atom+Function         Bfn.  Coefficient  Atom+Function  
  ----- ------------  ---------------      ----- ------------  ---------------
     3     -0.513996  1 O  px                 7     -0.247229  1 O  px         
    16     -0.244124  2 H  s                 21      0.244124  3 H  s          
    17     -0.157240  2 H  s                 22      0.157240  3 H  s          

 Vector    4  Occ=2.000000D+00  E=-3.710237D-01  Symmetry=a1
              MO Center=  4.0D-13, -4.7D-17,  1.9D-01, r^2= 7.0D-01
   Bfn.  Coefficient  Atom+Function         Bfn.  Coefficient  Atom+Function  
  ----- ------------  ---------------      ----- ------------  ---------------
     5     -0.552652  1 O  pz                 6     -0.416361  1 O  s          
     9     -0.364042  1 O  pz                 2     -0.174171  1 O  s          

 Vector    5  Occ=2.000000D+00  E=-2.919624D-01  Symmetry=b2
              MO Center= -2.7D-14,  2.0D-16,  9.4D-02, r^2= 5.9D-01
   Bfn.  Coefficient  Atom+Function         Bfn.  Coefficient  Atom+Function  
  ----- ------------  ---------------      ----- ------------  ---------------
     4      0.643967  1 O  py                 8      0.494567  1 O  py         

 Vector    6  Occ=0.000000D+00  E= 6.534604D-02  Symmetry=a1
              MO Center=  1.8D-12,  2.1D-18, -6.2D-01, r^2= 2.4D+00
   Bfn.  Coefficient  Atom+Function         Bfn.  Coefficient  Atom+Function  
  ----- ------------  ---------------      ----- ------------  ---------------
     6      1.261195  1 O  s                 17     -0.969306  2 H  s          
    22     -0.969306  3 H  s                  9     -0.469996  1 O  pz         
     5     -0.275960  1 O  pz         

 Vector    7  Occ=0.000000D+00  E= 1.512261D-01  Symmetry=b1
              MO Center= -2.9D-12,  2.0D-16, -5.7D-01, r^2= 2.5D+00
   Bfn.  Coefficient  Atom+Function         Bfn.  Coefficient  Atom+Function  
  ----- ------------  ---------------      ----- ------------  ---------------
    22     -1.286510  3 H  s                 17      1.286510  2 H  s          
     7     -0.758485  1 O  px                 3     -0.410623  1 O  px         

 Vector    8  Occ=0.000000D+00  E= 7.568468D-01  Symmetry=b1
              MO Center=  8.4D-12, -1.4D-16, -2.6D-01, r^2= 1.7D+00
   Bfn.  Coefficient  Atom+Function         Bfn.  Coefficient  Atom+Function  
  ----- ------------  ---------------      ----- ------------  ---------------
    17     -0.795376  2 H  s                 22      0.795376  3 H  s          
    16      0.770846  2 H  s                 21     -0.770846  3 H  s          
    12     -0.460025  1 O  dxz                3     -0.202259  1 O  px         
     7     -0.166493  1 O  px         

 Vector    9  Occ=0.000000D+00  E= 8.055101D-01  Symmetry=a1
              MO Center= -7.6D-12, -1.7D-16, -1.7D-01, r^2= 1.5D+00
   Bfn.  Coefficient  Atom+Function         Bfn.  Coefficient  Atom+Function  
  ----- ------------  ---------------      ----- ------------  ---------------
     5      0.647807  1 O  pz                22     -0.601436  3 H  s          
    17     -0.601436  2 H  s                 21      0.566894  3 H  s          
    16      0.566894  2 H  s                  9     -0.558049  1 O  pz         
    10      0.262150  1 O  dxx                6      0.238812  1 O  s          
    23     -0.164396  3 H  px                18      0.164396  2 H  px         

 Vector   10  Occ=0.000000D+00  E= 8.913503D-01  Symmetry=b2
              MO Center= -2.9D-14, -1.4D-14,  1.1D-01, r^2= 1.1D+00
   Bfn.  Coefficient  Atom+Function         Bfn.  Coefficient  Atom+Function  
  ----- ------------  ---------------      ----- ------------  ---------------
     8     -1.037304  1 O  py                 4      0.959670  1 O  py         

 Vector   11  Occ=0.000000D+00  E= 8.935286D-01  Symmetry=a1
              MO Center= -1.9D-13,  1.4D-14,  2.6D-01, r^2= 1.5D+00
   Bfn.  Coefficient  Atom+Function         Bfn.  Coefficient  Atom+Function  
  ----- ------------  ---------------      ----- ------------  ---------------
     6     -1.350166  1 O  s                  2      0.816728  1 O  s          
     9     -0.807033  1 O  pz                 5      0.529854  1 O  pz         
    21     -0.502429  3 H  s                 16     -0.502429  2 H  s          
    22      0.381525  3 H  s                 17      0.381525  2 H  s          
    13      0.323630  1 O  dyy               15      0.272322  1 O  dzz        

 Vector   12  Occ=0.000000D+00  E= 1.015566D+00  Symmetry=b1
              MO Center= -4.3D-13,  1.4D-16,  1.2D-01, r^2= 1.6D+00
   Bfn.  Coefficient  Atom+Function         Bfn.  Coefficient  Atom+Function  
  ----- ------------  ---------------      ----- ------------  ---------------
     7      1.795569  1 O  px                22      0.963662  3 H  s          
    17     -0.963662  2 H  s                  3     -0.864461  1 O  px         
    12     -0.157552  1 O  dxz               21      0.152363  3 H  s          
    16     -0.152363  2 H  s          

 Vector   13  Occ=0.000000D+00  E= 1.175374D+00  Symmetry=a1
              MO Center=  7.7D-13,  2.5D-16, -3.7D-01, r^2= 1.4D+00
   Bfn.  Coefficient  Atom+Function         Bfn.  Coefficient  Atom+Function  
  ----- ------------  ---------------      ----- ------------  ---------------
     6      3.527323  1 O  s                  2     -1.425462  1 O  s          
     9     -0.990461  1 O  pz                17     -0.770199  2 H  s          
    22     -0.770199  3 H  s                 10     -0.625764  1 O  dxx        
     5      0.351436  1 O  pz                15     -0.333460  1 O  dzz        
    21     -0.326676  3 H  s                 16     -0.326676  2 H  s          

 Vector   14  Occ=0.000000D+00  E= 1.529509D+00  Symmetry=a2
              MO Center= -6.5D-13, -2.9D-16, -1.3D-01, r^2= 7.7D-01
   Bfn.  Coefficient  Atom+Function         Bfn.  Coefficient  Atom+Function  
  ----- ------------  ---------------      ----- ------------  ---------------
    11      1.177966  1 O  dxy               24     -0.350698  3 H  py         
    19      0.350698  2 H  py         

 Vector   15  Occ=0.000000D+00  E= 1.537657D+00  Symmetry=a1
              MO Center= -9.5D-14, -9.8D-17,  2.5D-02, r^2= 8.4D-01
   Bfn.  Coefficient  Atom+Function         Bfn.  Coefficient  Atom+Function  
  ----- ------------  ---------------      ----- ------------  ---------------
     6     -0.901910  1 O  s                 15      0.788597  1 O  dzz        
     9      0.519667  1 O  pz                 2      0.323896  1 O  s          
    10     -0.255739  1 O  dxx               25     -0.248206  3 H  pz         
    20     -0.248206  2 H  pz                13     -0.245549  1 O  dyy        
    21      0.237555  3 H  s                 16      0.237555  2 H  s          


 center of mass
 --------------
 x =   0.00000000 y =   0.00000000 z =   0.09921406

 moments of inertia (a.u.)
 ------------------
           2.270969023714           0.000000000000           0.000000000000
           0.000000000000           6.421267634361           0.000000000000
           0.000000000000           0.000000000000           4.150298610647

     Multipole analysis of the density
     ---------------------------------

     L   x y z        total         alpha         beta         nuclear
     -   - - -        -----         -----         ----         -------
     0   0 0 0      0.000000     -5.000000     -5.000000     10.000000

     1   1 0 0      0.000000      0.000000      0.000000      0.000000
     1   0 1 0      0.000000      0.000000      0.000000      0.000000
     1   0 0 1     -0.803750     -0.401875     -0.401875      0.000000

     2   2 0 0     -3.194728     -3.656402     -3.656402      4.118075
     2   1 1 0      0.000000      0.000000      0.000000      0.000000
     2   1 0 1      0.000000      0.000000      0.000000      0.000000
     2   0 2 0     -5.306781     -2.653391     -2.653391      0.000000
     2   0 1 1      0.000000      0.000000      0.000000      0.000000
     2   0 0 2     -4.442837     -3.236338     -3.236338      2.029839


 Parallel integral file used       4 records with       0 large values

                                NWChem TDDFT Module
                                -------------------


                          TDDFT H2O B3LYP/6-31G** QA TEST


            General Information
            -------------------
           No. of orbitals :    50
            Alpha orbitals :    25
             Beta orbitals :    25
        Alpha frozen cores :     0
         Beta frozen cores :     0
     Alpha frozen virtuals :     0
      Beta frozen virtuals :     0
         Spin multiplicity :     1
    Number of AO functions :    25
        Use of symmetry is : off
      Symmetry adaption is : on 
         Schwarz screening : 0.10D-07

              XC Information
              --------------
                  B3LYP Method XC Potential
              Hartree-Fock (Exact) Exchange   0.20          
                 Slater Exchange Functional   0.80 local    
             Becke 1988 Exchange Functional   0.72 non-local
       Lee-Yang-Parr Correlation Functional   0.81          
           VWN I RPA Correlation Functional   0.19 local    

             TDDFT Information
             -----------------
          Calculation type : TDDFT             
         Wavefunction type : Restricted singlets
          No. of electrons :    10
           Alpha electrons :     5
            Beta electrons :     5
              No. of roots :    10
          Max subspacesize :   100
            Max iterations :   100
               Target root :     1
           Target symmetry : none
      Symmetry restriction : off
                 Algorithm : Incore multiple tensor contraction
        Davidson threshold : 0.10D-03

            Memory Information
            ------------------
          Available GA space size is         104856975 doubles
          Available MA space size is          26212761 doubles
          Length of a trial vector is          100
          Estimated peak GA usage is             94500 doubles
          Estimated peak MA usage is             71000 doubles

  Entering Davidson iterations
  Restricted singlet excited states

  Iter   NTrls   NConv    DeltaV     DeltaE      Time   
  ----  ------  ------  ---------  ---------  --------- 
    1     10       0     0.44E+00   0.10+100        0.9
    2     30       0     0.52E-01   0.53E-01        1.7
    3     50       1     0.12E-01   0.86E-03        1.7
    4     68       6     0.24E-02   0.19E-04        1.6
    5     76       8     0.40E-03   0.55E-06        0.8
    6     80      10     0.66E-04   0.13E-07        0.5
  ----  ------  ------  ---------  ---------  --------- 
  Convergence criterion met

  Ground state a1     -76.419737927 a.u.

  -------------------------------------------------------
  Root  1 singlet b2    0.294221028 a.u. (  8.0061649 eV)
  -------------------------------------------------------
     Transition Moments    X  0.00000   Y -0.26890   Z  0.00000
     Transition Moments   XX  0.00000  XY  0.00000  XZ  0.00000
     Transition Moments   YY  0.00000  YZ  0.08066  ZZ  0.00000
     Transition Moments  XXX  0.00000 XXY -0.93672 XXZ  0.00000
     Transition Moments  XYY  0.00000 XYZ  0.00000 XZZ  0.00000
     Transition Moments  YYY -1.60959 YYZ  0.00000 YZZ -0.72276
     Transition Moments  ZZZ  0.00000
     Dipole Oscillator Strength                          0.01418

     Occ.  5  b2  ---  Virt.  6  a1  -1.00002 X
  -------------------------------------------------------
  Root  2 singlet a2    0.369097202 a.u. ( 10.0436502 eV)
  -------------------------------------------------------
     Transition Moments    X  0.00000   Y  0.00000   Z  0.00000
     Transition Moments   XX  0.00000  XY -0.24936  XZ  0.00000
     Transition Moments   YY  0.00000  YZ  0.00000  ZZ  0.00000
     Transition Moments  XXX  0.00000 XXY  0.00000 XXZ  0.00000
     Transition Moments  XYY  0.00000 XYZ  0.34740 XZZ  0.00000
     Transition Moments  YYY  0.00000 YYZ  0.00000 YZZ  0.00000
     Transition Moments  ZZZ  0.00000
     Dipole Oscillator Strength                          0.00000

     Occ.  5  b2  ---  Virt.  7  b1   0.99936 X
  -------------------------------------------------------
  Root  3 singlet a1    0.387064448 a.u. ( 10.5325640 eV)
  -------------------------------------------------------
     Transition Moments    X  0.00000   Y  0.00000   Z  0.60463
     Transition Moments   XX -0.62350  XY  0.00000  XZ  0.00000
     Transition Moments   YY -0.09429  YZ  0.00000  ZZ -0.45941
     Transition Moments  XXX  0.00000 XXY  0.00000 XXZ  1.72772
     Transition Moments  XYY  0.00000 XYZ  0.00000 XZZ  0.00000
     Transition Moments  YYY  0.00000 YYZ  0.91748 YZZ  0.00000
     Transition Moments  ZZZ  3.60522
     Dipole Oscillator Strength                          0.09433

     Occ.  3  b1  ---  Virt.  7  b1   0.11875 X
     Occ.  4  a1  ---  Virt.  6  a1  -0.99241 X
  -------------------------------------------------------
  Root  4 singlet b1    0.466992150 a.u. ( 12.7075084 eV)
  -------------------------------------------------------
     Transition Moments    X  0.47326   Y  0.00000   Z  0.00000
     Transition Moments   XX  0.00000  XY  0.00000  XZ -0.58528
     Transition Moments   YY  0.00000  YZ  0.00000  ZZ  0.00000
     Transition Moments  XXX  2.47430 XXY  0.00000 XXZ  0.00000
     Transition Moments  XYY  0.51687 XYZ  0.00000 XZZ  1.56810
     Transition Moments  YYY  0.00000 YYZ  0.00000 YZZ  0.00000
     Transition Moments  ZZZ  0.00000
     Dipole Oscillator Strength                          0.06973

     Occ.  3  b1  ---  Virt.  6  a1   0.19330 X
     Occ.  4  a1  ---  Virt.  7  b1  -0.98016 X
  -------------------------------------------------------
  Root  5 singlet b1    0.533227416 a.u. ( 14.5098624 eV)
  -------------------------------------------------------
     Transition Moments    X -1.05196   Y  0.00000   Z  0.00000
     Transition Moments   XX  0.00000  XY  0.00000  XZ  0.96330
     Transition Moments   YY  0.00000  YZ  0.00000  ZZ  0.00000
     Transition Moments  XXX -7.34419 XXY  0.00000 XXZ  0.00000
     Transition Moments  XYY -1.45603 XYZ  0.00000 XZZ -2.57081
     Transition Moments  YYY  0.00000 YYZ  0.00000 YZZ  0.00000
     Transition Moments  ZZZ  0.00000
     Dipole Oscillator Strength                          0.39338

     Occ.  3  b1  ---  Virt.  6  a1   0.98069 X
     Occ.  4  a1  ---  Virt.  7  b1   0.19253 X
  -------------------------------------------------------
  Root  6 singlet a1    0.652737995 a.u. ( 17.7619121 eV)
  -------------------------------------------------------
     Transition Moments    X  0.00000   Y  0.00000   Z -0.68471
     Transition Moments   XX  1.92244  XY  0.00000  XZ  0.00000
     Transition Moments   YY  0.09170  YZ  0.00000  ZZ  0.58365
     Transition Moments  XXX  0.00000 XXY  0.00000 XXZ -2.81222
     Transition Moments  XYY  0.00000 XYZ  0.00000 XZZ  0.00000
     Transition Moments  YYY  0.00000 YYZ -0.83325 YZZ  0.00000
     Transition Moments  ZZZ -2.91254
     Dipole Oscillator Strength                          0.20401

     Occ.  2  a1  ---  Virt.  6  a1  -0.07438 X
     Occ.  3  b1  ---  Virt.  7  b1   0.97814 X
     Occ.  4  a1  ---  Virt.  6  a1   0.11134 X
     Occ.  4  a1  ---  Virt.  9  a1   0.08439 X
     Occ.  4  a1  ---  Virt. 11  a1   0.06625 X
     Occ.  5  b2  ---  Virt. 10  b2  -0.12788 X
  -------------------------------------------------------
  Root  7 singlet a2    0.962204498 a.u. ( 26.1829277 eV)
  -------------------------------------------------------
     Transition Moments    X  0.00000   Y  0.00000   Z  0.00000
     Transition Moments   XX  0.00000  XY  0.41976  XZ  0.00000
     Transition Moments   YY  0.00000  YZ  0.00000  ZZ  0.00000
     Transition Moments  XXX  0.00000 XXY  0.00000 XXZ  0.00000
     Transition Moments  XYY  0.00000 XYZ  0.19957 XZZ  0.00000
     Transition Moments  YYY  0.00000 YYZ  0.00000 YZZ  0.00000
     Transition Moments  ZZZ  0.00000
     Dipole Oscillator Strength                          0.00000

     Occ.  5  b2  ---  Virt.  8  b1   0.99958 X
  -------------------------------------------------------
  Root  8 singlet b2    1.009123512 a.u. ( 27.4596596 eV)
  -------------------------------------------------------
     Transition Moments    X  0.00000   Y -0.39330   Z  0.00000
     Transition Moments   XX  0.00000  XY  0.00000  XZ  0.00000
     Transition Moments   YY  0.00000  YZ -0.33633  ZZ  0.00000
     Transition Moments  XXX  0.00000 XXY -0.47047 XXZ  0.00000
     Transition Moments  XYY  0.00000 XYZ  0.00000 XZZ  0.00000
     Transition Moments  YYY -1.82858 YYZ  0.00000 YZZ -0.66686
     Transition Moments  ZZZ  0.00000
     Dipole Oscillator Strength                          0.10406

     Occ.  5  b2  ---  Virt.  9  a1  -0.97515 X
     Occ.  5  b2  ---  Virt. 11  a1  -0.21394 X
  -------------------------------------------------------
  Root  9 singlet a1    1.018624648 a.u. ( 27.7181988 eV)
  -------------------------------------------------------
     Transition Moments    X  0.00000   Y  0.00000   Z  0.22039
     Transition Moments   XX -0.78607  XY  0.00000  XZ  0.00000
     Transition Moments   YY  0.18701  YZ  0.00000  ZZ -0.47718
     Transition Moments  XXX  0.00000 XXY  0.00000 XXZ  0.93141
     Transition Moments  XYY  0.00000 XYZ  0.00000 XZZ  0.00000
     Transition Moments  YYY  0.00000 YYZ  0.50865 YZZ  0.00000
     Transition Moments  ZZZ  1.56142
     Dipole Oscillator Strength                          0.03298

     Occ.  2  a1  ---  Virt.  6  a1  -0.94922 X
     Occ.  4  a1  ---  Virt.  9  a1  -0.12842 X
     Occ.  5  b2  ---  Virt. 10  b2   0.27970 X
  -------------------------------------------------------
  Root 10 singlet b1    1.074907662 a.u. ( 29.2497382 eV)
  -------------------------------------------------------
     Transition Moments    X -0.44638   Y  0.00000   Z  0.00000
     Transition Moments   XX  0.00000  XY  0.00000  XZ  0.08748
     Transition Moments   YY  0.00000  YZ  0.00000  ZZ  0.00000
     Transition Moments  XXX -1.09943 XXY  0.00000 XXZ  0.00000
     Transition Moments  XYY -0.25083 XYZ  0.00000 XZZ -0.87893
     Transition Moments  YYY  0.00000 YYZ  0.00000 YZZ  0.00000
     Transition Moments  ZZZ  0.00000
     Dipole Oscillator Strength                          0.14279

     Occ.  2  a1  ---  Virt.  7  b1   0.54450 X
     Occ.  3  b1  ---  Virt.  9  a1   0.16427 X
     Occ.  3  b1  ---  Virt. 11  a1  -0.06638 X
     Occ.  4  a1  ---  Virt.  8  b1   0.81845 X

              Target root =      1
          Target symmetry = none
      Ground state energy =    -76.419737926903
        Excitation energy =      0.294221028124
     Excited state energy =    -76.125516898779


 Task  times  cpu:        7.4s     wall:        7.5s
 Summary of allocated global arrays
-----------------------------------
  No active global arrays



                         GA Statistics for process    0
                         ------------------------------

       create   destroy   get      put      acc     scatter   gather  read&inc
calls: 2.15e+04 2.15e+04 6.16e+04 3.29e+04 3.53e+04  400        0      513     
number of processes/call 1.25e+00 1.43e+00 1.54e+00 2.20e+00 0.00e+00
bytes total:             3.53e+07 6.73e+06 2.35e+07 3.36e+05 0.00e+00 4.10e+03
bytes remote:            2.35e+07 1.08e+06 1.84e+07 -2.56e+05 0.00e+00 0.00e+00
Max memory consumed for GA by this process: 278800 bytes
MA_summarize_allocated_blocks: starting scan ...
MA_summarize_allocated_blocks: scan completed: 0 heap blocks, 0 stack blocks
MA usage statistics:

	allocation statistics:
					      heap	     stack
					      ----	     -----
	current number of blocks	         0	         0
	maximum number of blocks	        24	        52
	current total bytes		         0	         0
	maximum total bytes		   1553344	  22510568
	maximum total K-bytes		      1554	     22511
	maximum total M-bytes		         2	        23


                                NWChem Input Module
                                -------------------





                                     CITATION
                                     --------
                Please cite the following reference when publishing
                           results obtained with NWChem:

                 M. Valiev, E.J. Bylaska, N. Govind, K. Kowalski,
              T.P. Straatsma, H.J.J. van Dam, D. Wang, J. Nieplocha,
                        E. Apra, T.L. Windus, W.A. de Jong
                 "NWChem: a comprehensive and scalable open-source
                  solution for large scale molecular simulations"
                      Comput. Phys. Commun. 181, 1477 (2010)
                           doi:10.1016/j.cpc.2010.04.018

                              AUTHORS & CONTRIBUTORS
                              ----------------------
      E. J. Bylaska, W. A. de Jong, N. Govind, K. Kowalski, T. P. Straatsma,
     M. Valiev, H. J. J. Van Dam, D. Wang, E. Apra, T. L. Windus, J. Hammond,
     J. Autschbach, P. Nichols, S. Hirata, M. T. Hackler, Y. Zhao, P.-D. Fan,
      R. J. Harrison, M. Dupuis, D. M. A. Smith, J. Nieplocha, V. Tipparaju,
          M. Krishnan, A. Vazquez-Mayagoitia, L. Jensen, M. Swart, Q. Wu,
          T. Van Voorhis, A. A. Auer, M. Nooijen, L. D. Crosby, E. Brown,
             G. Cisneros, G. I. Fann, H. Fruchtl, J. Garza, K. Hirao,
        R. Kendall, J. A. Nichols, K. Tsemekhman, K. Wolinski, J. Anchell,
       D. Bernholdt, P. Borowski, T. Clark, D. Clerc, H. Dachsel, M. Deegan,
        K. Dyall, D. Elwood, E. Glendening, M. Gutowski, A. Hess, J. Jaffe,
        B. Johnson, J. Ju, R. Kobayashi, R. Kutteh, Z. Lin, R. Littlefield,
    X. Long, B. Meng, T. Nakajima, S. Niu, L. Pollack, M. Rosing, G. Sandrone,
       M. Stave, H. Taylor, G. Thomas, J. H. van Lenthe, A. Wong, Z. Zhang.

 Total times  cpu:        7.6s     wall:        7.9s
