 argument  1 = tddft_ac_co.nw



============================== echo of input deck ==============================
#
# Test for Casida-Salahub asymptotic correction
# Casida, Salahub JCP 113, 8918 (2000).
# CO AC-LDA -HOMO = 13.78 eV (different geometry, different basis set)
# CO Delta SCF IP = 14.10 eV versus -HOMO = 9.10 eV (shift = 5.00 eV)
# Tozer, Handy, JCP 109, 10180 (1998).
# Experimental vertical excitation energies of CO
# Singlet: 8.51, 9.88, 10.23, 10.78, 11.40, 11.53, 12.4 eV
# Triplet: 6.32, 8.51, 9.36, 9.88, 10.4, 11.3, 11.55 eV
#
# turned off autsym since c4v is non-abelian
# imposed c2v abelian group
#
start tddft_ac_co

echo

charge 0

geometry
O 0.0 0.0  0.0000
C 0.0 0.0  1.1283
symmetry c2v
end

basis spherical
C library aug-cc-pVDZ
O library aug-cc-pVDZ
end

dft
xc slater vwn_5
cs00 0.1837
end

tddft
nroots 12
end

task tddft energy
================================================================================


                                         
                                         


              Northwest Computational Chemistry Package (NWChem) 6.0
              ------------------------------------------------------


                    Environmental Molecular Sciences Laboratory
                       Pacific Northwest National Laboratory
                                Richland, WA 99352

                              Copyright (c) 1994-2010
                       Pacific Northwest National Laboratory
                            Battelle Memorial Institute

             NWChem is an open-source computational chemistry package
                        distributed under the terms of the
                      Educational Community License (ECL) 2.0
             A copy of the license is included with this distribution
                              in the LICENSE.TXT file

                                  ACKNOWLEDGMENT
                                  --------------

            This software and its documentation were developed at the
            EMSL at Pacific Northwest National Laboratory, a multiprogram
            national laboratory, operated for the U.S. Department of Energy
            by Battelle under Contract Number DE-AC05-76RL01830. Support
            for this work was provided by the Department of Energy Office
            of Biological and Environmental Research, Office of Basic
            Energy Sciences, and the Office of Advanced Scientific Computing.


           Job information
           ---------------

    hostname      = arcen
    program       = /home/d3y133/nwchem-releases/nwchem-6.0-gfortran/bin/LINUX64/nwchem
    date          = Fri Aug  6 14:00:47 2010

    compiled      = Fri_Aug_06_13:42:42_2010
    source        = /home/d3y133/nwchem-releases/nwchem-6.0-gfortran
    nwchem branch = 6.0
    input         = tddft_ac_co.nw
    prefix        = tddft_ac_co.
    data base     = ./tddft_ac_co.db
    status        = startup
    nproc         =        4
    time left     =     -1s



           Memory information
           ------------------

    heap     =   13107201 doubles =    100.0 Mbytes
    stack    =   13107201 doubles =    100.0 Mbytes
    global   =   26214400 doubles =    200.0 Mbytes (distinct from heap & stack)
    total    =   52428802 doubles =    400.0 Mbytes
    verify   = yes
    hardfail = no 


           Directory information
           ---------------------

  0 permanent = .
  0 scratch   = .




                                NWChem Input Module
                                -------------------



 Scaling coordinates for geometry "geometry" by  1.889725989
 (inverse scale =  0.529177249)

 Turning off AUTOSYM since
 SYMMETRY directive was detected!


          ------
          auto-z
          ------


                             Geometry "geometry" -> ""
                             -------------------------

 Output coordinates in angstroms (scale by  1.889725989 to convert to a.u.)

  No.       Tag          Charge          X              Y              Z
 ---- ---------------- ---------- -------------- -------------- --------------
    1 O                    8.0000     0.00000000     0.00000000    -0.48355714
    2 C                    6.0000     0.00000000     0.00000000     0.64474286

      Atomic Mass 
      ----------- 

      O                 15.994910
      C                 12.000000


 Effective nuclear repulsion energy (a.u.)      22.5121935230

            Nuclear Dipole moment (a.u.) 
            ----------------------------
        X                 Y               Z
 ---------------- ---------------- ----------------
     0.0000000000     0.0000000000     0.0000000000

      Symmetry information
      --------------------

 Group name             C2v       
 Group number             16
 Group order               4
 No. of unique centers     2

      Symmetry unique atoms

     1    2



                                Z-matrix (autoz)
                                -------- 

 Units are Angstrom for bonds and degrees for angles

      Type          Name      I     J     K     L     M      Value
      ----------- --------  ----- ----- ----- ----- ----- ----------
    1 Stretch                  1     2                       1.12830


            XYZ format geometry
            -------------------
     2
 geometry
 O                     0.00000000     0.00000000    -0.48355714
 C                     0.00000000     0.00000000     0.64474286

 ==============================================================================
                                internuclear distances
 ------------------------------------------------------------------------------
       center one      |      center two      | atomic units |  angstroms
 ------------------------------------------------------------------------------
    2 C                |   1 O                |     2.13218  |     1.12830
 ------------------------------------------------------------------------------
                         number of included internuclear distances:          1
 ==============================================================================



  library name resolved from: .nwchemrc
  library file name is: </home/d3y133/nwchem-releases/nwchem-6.0-gfortran/QA/../src/basis/libraries/>
  
                      Basis "ao basis" -> "" (spherical)
                      -----
  C (Carbon)
  ----------
            Exponent  Coefficients 
       -------------- ---------------------------------------------------------
  1 S  6.66500000E+03  0.000692
  1 S  1.00000000E+03  0.005329
  1 S  2.28000000E+02  0.027077
  1 S  6.47100000E+01  0.101718
  1 S  2.10600000E+01  0.274740
  1 S  7.49500000E+00  0.448564
  1 S  2.79700000E+00  0.285074
  1 S  5.21500000E-01  0.015204

  2 S  6.66500000E+03 -0.000146
  2 S  1.00000000E+03 -0.001154
  2 S  2.28000000E+02 -0.005725
  2 S  6.47100000E+01 -0.023312
  2 S  2.10600000E+01 -0.063955
  2 S  7.49500000E+00 -0.149981
  2 S  2.79700000E+00 -0.127262
  2 S  5.21500000E-01  0.544529

  3 S  1.59600000E-01  1.000000

  4 S  4.69000000E-02  1.000000

  5 P  9.43900000E+00  0.038109
  5 P  2.00200000E+00  0.209480
  5 P  5.45600000E-01  0.508557

  6 P  1.51700000E-01  1.000000

  7 P  4.04100000E-02  1.000000

  8 D  5.50000000E-01  1.000000

  9 D  1.51000000E-01  1.000000

  O (Oxygen)
  ----------
            Exponent  Coefficients 
       -------------- ---------------------------------------------------------
  1 S  1.17200000E+04  0.000710
  1 S  1.75900000E+03  0.005470
  1 S  4.00800000E+02  0.027837
  1 S  1.13700000E+02  0.104800
  1 S  3.70300000E+01  0.283062
  1 S  1.32700000E+01  0.448719
  1 S  5.02500000E+00  0.270952
  1 S  1.01300000E+00  0.015458

  2 S  1.17200000E+04 -0.000160
  2 S  1.75900000E+03 -0.001263
  2 S  4.00800000E+02 -0.006267
  2 S  1.13700000E+02 -0.025716
  2 S  3.70300000E+01 -0.070924
  2 S  1.32700000E+01 -0.165411
  2 S  5.02500000E+00 -0.116955
  2 S  1.01300000E+00  0.557368

  3 S  3.02300000E-01  1.000000

  4 S  7.89600000E-02  1.000000

  5 P  1.77000000E+01  0.043018
  5 P  3.85400000E+00  0.228913
  5 P  1.04600000E+00  0.508728

  6 P  2.75300000E-01  1.000000

  7 P  6.85600000E-02  1.000000

  8 D  1.18500000E+00  1.000000

  9 D  3.32000000E-01  1.000000



 Summary of "ao basis" -> "" (spherical)
 ------------------------------------------------------------------------------
       Tag                 Description            Shells   Functions and Types
 ---------------- ------------------------------  ------  ---------------------
 C                        aug-cc-pVDZ                9       23   4s3p2d
 O                        aug-cc-pVDZ                9       23   4s3p2d



                                 NWChem DFT Module
                                 -----------------


  Caching 1-el integrals 

            General Information
            -------------------
          SCF calculation type: DFT
          Wavefunction type:  closed shell.
          No. of atoms     :     2
          No. of electrons :    14
           Alpha electrons :     7
            Beta electrons :     7
          Charge           :     0
          Spin multiplicity:     1
          Use of symmetry is: off; symmetry adaption is: on 
          Maximum number of iterations:  30
          AO basis - number of functions:    46
                     number of shells:    18
          Convergence on energy requested: 1.00D-06
          Convergence on density requested: 1.00D-05
          Convergence on gradient requested: 5.00D-04

              XC Information
              --------------
                        Slater Exchange Functional  1.000 local    
                      VWN V Correlation Functional  1.000 local    

            Casida-Salahub correction with a shift       0.183700 au

             Grid Information
             ----------------
          Grid used for XC integration:  medium    
          Radial quadrature: Mura-Knowles        
          Angular quadrature: Lebedev. 
          Tag              B.-S. Rad. Rad. Pts. Rad. Cut. Ang. Pts.
          ---              ---------- --------- --------- ---------
          O                   0.60       49           9.0       434
          C                   0.70       49           8.0       434
          Grid pruning is: on 
          Number of quadrature shells:    98
          Spatial weights used:  Erf1

          Convergence Information
          -----------------------
          Convergence aids based upon iterative change in 
          total energy or number of iterations. 
          Levelshifting, if invoked, occurs when the 
          HOMO/LUMO gap drops below (HL_TOL): 1.00D-02
          DIIS, if invoked, will attempt to extrapolate 
          using up to (NFOCK): 10 stored Fock matrices.

                    Damping( 0%)  Levelshifting(0.5)       DIIS
                  --------------- ------------------- ---------------
          dE  on:    start            ASAP                start   
          dE off:    2 iters         30 iters            30 iters 


      Screening Tolerance Information
      -------------------------------
          Density screening/tol_rho: 1.00D-10
          AO Gaussian exp screening on grid/accAOfunc:  14
          CD Gaussian exp screening on grid/accCDfunc:  20
          XC Gaussian exp screening on grid/accXCfunc:  20
          Schwarz screening/accCoul: 1.00D-08


      Superposition of Atomic Density Guess
      -------------------------------------

 Sum of atomic energies:        -112.43383664

      Non-variational initial energy
      ------------------------------

 Total energy =    -112.864338
 1-e energy   =    -197.551791
 2-e energy   =      62.175259
 HOMO         =      -0.391857
 LUMO         =       0.019273


      Symmetry analysis of molecular orbitals - initial
      -------------------------------------------------


 !! scf_movecs_sym_adapt:   28 vectors were symmetry contaminated

  Symmetry fudging

 !! scf_movecs_sym_adapt:   26 vectors were symmetry contaminated

  Numbering of irreducible representations: 

     1 a1          2 a2          3 b1          4 b2      

  Orbital symmetries:

     1 a1          2 a1          3 a1          4 a1          5 b2      
     6 b1          7 a1          8 b2          9 b1         10 a1      
    11 a1         12 b1         13 b2         14 a1         15 b1      
    16 b2         17 a1      

   Time after variat. SCF:      0.1
   Time prior to 1st pass:      0.1

 #quartets = 1.471D+04 #integrals = 1.425D+05 #direct =  0.0% #cached =100.0%


 Integral file          = ./tddft_ac_co.aoints.0
 Record size in doubles =  65536        No. of integs per rec  =  43688
 Max. records in memory =      3        Max. records in file   =  26331
 No. of bits per label  =      8        No. of bits per value  =     64


File balance: exchanges=     0  moved=     0  time=   0.0


 Grid_pts file          = ./tddft_ac_co.gridpts.0
 Record size in doubles =  12289        No. of grid_pts per rec  =   3070
 Max. records in memory =      5        Max. recs in file   =    140426


 !! scf_movecs_sym_adapt:   20 vectors were symmetry contaminated

  Symmetry fudging

 !! scf_movecs_sym_adapt:   20 vectors were symmetry contaminated


           Memory utilization after 1st SCF pass: 
           Heap Space remaining (MW):       12.85            12847203
          Stack Space remaining (MW):       13.11            13106859

   convergence    iter        energy       DeltaE   RMS-Dens  Diis-err    time
 ---------------- ----- ----------------- --------- --------- ---------  ------
 d= 0,ls=0.0,diis     1   -112.3719555371 -1.35D+02  2.73D-02  5.58D-01     0.4

 !! scf_movecs_sym_adapt:   20 vectors were symmetry contaminated

  Symmetry fudging

 !! scf_movecs_sym_adapt:   20 vectors were symmetry contaminated

 d= 0,ls=0.0,diis     2   -112.0024144083  3.70D-01  1.79D-02  4.64D+00     0.4

 !! scf_movecs_sym_adapt:   20 vectors were symmetry contaminated

  Symmetry fudging

 !! scf_movecs_sym_adapt:   20 vectors were symmetry contaminated

 d= 0,ls=0.0,diis     3   -112.4292521284 -4.27D-01  1.58D-03  2.86D-02     0.5

 !! scf_movecs_sym_adapt:   20 vectors were symmetry contaminated

  Symmetry fudging

 !! scf_movecs_sym_adapt:   20 vectors were symmetry contaminated

 d= 0,ls=0.0,diis     4   -112.4302320906 -9.80D-04  6.78D-04  2.53D-03     0.6

 !! scf_movecs_sym_adapt:   20 vectors were symmetry contaminated

  Symmetry fudging

 !! scf_movecs_sym_adapt:   18 vectors were symmetry contaminated

 d= 0,ls=0.0,diis     5   -112.4314925418 -1.26D-03  7.16D-05  1.95D-05     0.7

 !! scf_movecs_sym_adapt:   20 vectors were symmetry contaminated

  Symmetry fudging

 !! scf_movecs_sym_adapt:   20 vectors were symmetry contaminated

 d= 0,ls=0.0,diis     6   -112.4314330894  5.95D-05  7.51D-06  1.22D-06     0.8

 !! scf_movecs_sym_adapt:   20 vectors were symmetry contaminated

  Symmetry fudging

 !! scf_movecs_sym_adapt:   20 vectors were symmetry contaminated

 d= 0,ls=0.0,diis     7   -112.4314288191  4.27D-06  2.37D-06  6.21D-08     0.9

 !! scf_movecs_sym_adapt:   20 vectors were symmetry contaminated

  Symmetry fudging

 !! scf_movecs_sym_adapt:   16 vectors were symmetry contaminated

 d= 0,ls=0.0,diis     8   -112.4314267990  2.02D-06  9.37D-08  5.10D-11     1.0

 !! scf_movecs_sym_adapt:   20 vectors were symmetry contaminated

  Symmetry fudging

 !! scf_movecs_sym_adapt:   20 vectors were symmetry contaminated

 d= 0,ls=0.0,diis     9   -112.4314268525 -5.35D-08  6.06D-09  3.06D-13     1.1


         Total DFT energy =     -112.431426852458
      One electron energy =     -197.978580202523
           Coulomb energy =       75.984169275875
    Exchange-Corr. energy =      -12.949209448797
 Nuclear repulsion energy =       22.512193522986

 Numeric. integr. density =       14.000000556753

     Total iterative time =      0.9s



                       DFT Final Molecular Orbital Analysis
                       ------------------------------------

 Vector    1  Occ=2.000000D+00  E=-1.892045D+01  Symmetry=a1
              MO Center= -3.2D-19,  1.1D-19, -4.8D-01, r^2= 1.5D-02
   Bfn.  Coefficient  Atom+Function         Bfn.  Coefficient  Atom+Function  
  ----- ------------  ---------------      ----- ------------  ---------------
     1     -1.007153  1 O  s          

 Vector    2  Occ=2.000000D+00  E=-1.011789D+01  Symmetry=a1
              MO Center=  4.5D-19,  9.5D-19,  6.4D-01, r^2= 2.8D-02
   Bfn.  Coefficient  Atom+Function         Bfn.  Coefficient  Atom+Function  
  ----- ------------  ---------------      ----- ------------  ---------------
    24      1.010412  2 C  s          

 Vector    3  Occ=2.000000D+00  E=-1.247122D+00  Symmetry=a1
              MO Center=  2.0D-17,  3.9D-17, -1.6D-01, r^2= 4.3D-01
   Bfn.  Coefficient  Atom+Function         Bfn.  Coefficient  Atom+Function  
  ----- ------------  ---------------      ----- ------------  ---------------
     2     -0.413711  1 O  s                  3     -0.333524  1 O  s          
    30      0.230554  2 C  pz                25     -0.228009  2 C  s          
     7     -0.179279  1 O  pz         

 Vector    4  Occ=2.000000D+00  E=-6.951882D-01  Symmetry=a1
              MO Center=  5.5D-17,  2.3D-17, -4.9D-01, r^2= 7.8D-01
   Bfn.  Coefficient  Atom+Function         Bfn.  Coefficient  Atom+Function  
  ----- ------------  ---------------      ----- ------------  ---------------
     7      0.488650  1 O  pz                 3     -0.434416  1 O  s          
    26      0.308250  2 C  s                 25      0.287323  2 C  s          
     2     -0.239630  1 O  s                 10      0.192721  1 O  pz         
     4     -0.187450  1 O  s          

 Vector    5  Occ=2.000000D+00  E=-6.213806D-01  Symmetry=b1
              MO Center= -4.4D-17,  5.8D-33, -1.8D-01, r^2= 8.0D-01
   Bfn.  Coefficient  Atom+Function         Bfn.  Coefficient  Atom+Function  
  ----- ------------  ---------------      ----- ------------  ---------------
     5      0.558734  1 O  px                28      0.329146  2 C  px         
     8      0.317420  1 O  px         

 Vector    6  Occ=2.000000D+00  E=-6.213806D-01  Symmetry=b2
              MO Center=  3.0D-33, -5.0D-17, -1.8D-01, r^2= 8.0D-01
   Bfn.  Coefficient  Atom+Function         Bfn.  Coefficient  Atom+Function  
  ----- ------------  ---------------      ----- ------------  ---------------
     6      0.558734  1 O  py                29      0.329146  2 C  py         
     9      0.317420  1 O  py         

 Vector    7  Occ=2.000000D+00  E=-5.067601D-01  Symmetry=a1
              MO Center=  7.9D-17, -1.8D-17,  8.7D-01, r^2= 1.1D+00
   Bfn.  Coefficient  Atom+Function         Bfn.  Coefficient  Atom+Function  
  ----- ------------  ---------------      ----- ------------  ---------------
    30      0.458267  2 C  pz                26      0.420955  2 C  s          
     7     -0.276637  1 O  pz                25      0.252808  2 C  s          
    33      0.198493  2 C  pz                 4      0.164792  1 O  s          

 Vector    8  Occ=0.000000D+00  E=-2.550515D-01  Symmetry=b1
              MO Center= -2.2D-16,  2.2D-32,  4.5D-01, r^2= 1.5D+00
   Bfn.  Coefficient  Atom+Function         Bfn.  Coefficient  Atom+Function  
  ----- ------------  ---------------      ----- ------------  ---------------
    28      0.575543  2 C  px                31      0.551020  2 C  px         
     5     -0.411477  1 O  px                 8     -0.357847  1 O  px         
    11     -0.196183  1 O  px                34      0.185230  2 C  px         

 Vector    9  Occ=0.000000D+00  E=-2.550515D-01  Symmetry=b2
              MO Center=  3.6D-33, -3.5D-17,  4.5D-01, r^2= 1.5D+00
   Bfn.  Coefficient  Atom+Function         Bfn.  Coefficient  Atom+Function  
  ----- ------------  ---------------      ----- ------------  ---------------
    29     -0.575543  2 C  py                32     -0.551020  2 C  py         
     6      0.411477  1 O  py                 9      0.357847  1 O  py         
    12      0.196183  1 O  py                35     -0.185230  2 C  py         

 Vector   10  Occ=0.000000D+00  E=-1.224549D-01  Symmetry=a1
              MO Center=  1.5D-15, -2.4D-15, -6.0D-01, r^2= 6.6D+00
   Bfn.  Coefficient  Atom+Function         Bfn.  Coefficient  Atom+Function  
  ----- ------------  ---------------      ----- ------------  ---------------
    27     -1.875586  2 C  s                  4      1.025756  1 O  s          
    36      0.584793  2 C  pz                 3      0.466128  1 O  s          
    33      0.418036  2 C  pz                13      0.355859  1 O  pz         

 Vector   11  Occ=0.000000D+00  E=-8.128780D-02  Symmetry=a1
              MO Center=  4.9D-15, -6.5D-15,  1.9D+00, r^2= 6.8D+00
   Bfn.  Coefficient  Atom+Function         Bfn.  Coefficient  Atom+Function  
  ----- ------------  ---------------      ----- ------------  ---------------
    27      0.915032  2 C  s                 36      0.858462  2 C  pz         
    26     -0.366292  2 C  s                  4     -0.326660  1 O  s          

 Vector   12  Occ=0.000000D+00  E=-7.613262D-02  Symmetry=b1
              MO Center= -5.7D-15, -1.5D-31,  3.0D-01, r^2= 8.7D+00
   Bfn.  Coefficient  Atom+Function         Bfn.  Coefficient  Atom+Function  
  ----- ------------  ---------------      ----- ------------  ---------------
    34     -0.877611  2 C  px                11     -0.276212  1 O  px         
    28      0.272637  2 C  px                31      0.255958  2 C  px         

 Vector   13  Occ=0.000000D+00  E=-7.613262D-02  Symmetry=b2
              MO Center=  2.5D-31,  8.9D-15,  3.0D-01, r^2= 8.7D+00
   Bfn.  Coefficient  Atom+Function         Bfn.  Coefficient  Atom+Function  
  ----- ------------  ---------------      ----- ------------  ---------------
    35     -0.877611  2 C  py                12     -0.276212  1 O  py         
    29      0.272637  2 C  py                32      0.255958  2 C  py         

 Vector   14  Occ=0.000000D+00  E=-1.012223D-02  Symmetry=a1
              MO Center= -2.3D-16, -1.6D-16, -6.4D-01, r^2= 7.2D+00
   Bfn.  Coefficient  Atom+Function         Bfn.  Coefficient  Atom+Function  
  ----- ------------  ---------------      ----- ------------  ---------------
    13     -1.881312  1 O  pz                26      0.941691  2 C  s          
    36      0.768669  2 C  pz                 4     -0.587074  1 O  s          
    27      0.362574  2 C  s                 33      0.242564  2 C  pz         

 Vector   15  Occ=0.000000D+00  E= 2.098090D-02  Symmetry=b1
              MO Center= -6.3D-16, -5.0D-31,  1.8D-01, r^2= 9.7D+00
   Bfn.  Coefficient  Atom+Function         Bfn.  Coefficient  Atom+Function  
  ----- ------------  ---------------      ----- ------------  ---------------
    11     -2.018085  1 O  px                34      1.568339  2 C  px         
     5      0.237044  1 O  px                31      0.216584  2 C  px         
     8      0.175777  1 O  px         

 Vector   16  Occ=0.000000D+00  E= 2.098090D-02  Symmetry=b2
              MO Center= -5.2D-31,  6.8D-17,  1.8D-01, r^2= 9.7D+00
   Bfn.  Coefficient  Atom+Function         Bfn.  Coefficient  Atom+Function  
  ----- ------------  ---------------      ----- ------------  ---------------
    12     -2.018085  1 O  py                35      1.568339  2 C  py         
     6      0.237044  1 O  py                32      0.216584  2 C  py         
     9      0.175777  1 O  py         

 Vector   17  Occ=0.000000D+00  E= 8.721827D-02  Symmetry=a1
              MO Center=  1.8D-15,  3.3D-15, -3.5D-01, r^2= 1.0D+01
   Bfn.  Coefficient  Atom+Function         Bfn.  Coefficient  Atom+Function  
  ----- ------------  ---------------      ----- ------------  ---------------
     4      6.030046  1 O  s                 27     -3.893772  2 C  s          
    36      1.945837  2 C  pz                26     -1.559759  2 C  s          
    33      0.715940  2 C  pz                44     -0.504494  2 C  d  0       
    13      0.457992  1 O  pz                10      0.397668  1 O  pz         
     2     -0.222699  1 O  s          

 Vector   18  Occ=0.000000D+00  E= 1.109573D-01  Symmetry=a1
              MO Center= -6.3D-16, -2.6D-16,  5.9D-01, r^2= 3.2D+00
   Bfn.  Coefficient  Atom+Function         Bfn.  Coefficient  Atom+Function  
  ----- ------------  ---------------      ----- ------------  ---------------
    46      0.953999  2 C  d  2       

 Vector   19  Occ=0.000000D+00  E= 1.109583D-01  Symmetry=a2
              MO Center=  1.6D-17,  1.3D-16,  5.9D-01, r^2= 3.2D+00
   Bfn.  Coefficient  Atom+Function         Bfn.  Coefficient  Atom+Function  
  ----- ------------  ---------------      ----- ------------  ---------------
    42     -0.954000  2 C  d -2       

 Vector   20  Occ=0.000000D+00  E= 2.003092D-01  Symmetry=a1
              MO Center= -3.4D-15, -1.5D-15,  7.9D-01, r^2= 5.3D+00
   Bfn.  Coefficient  Atom+Function         Bfn.  Coefficient  Atom+Function  
  ----- ------------  ---------------      ----- ------------  ---------------
     4      4.383265  1 O  s                 26     -2.637812  2 C  s          
    27     -2.326016  2 C  s                 13      1.711456  1 O  pz         
    33      1.461306  2 C  pz                10      0.751043  1 O  pz         
    44      0.700225  2 C  d  0               7      0.304917  1 O  pz         
    25     -0.204403  2 C  s          

 Vector   21  Occ=0.000000D+00  E= 2.667488D-01  Symmetry=b2
              MO Center= -1.1D-17,  1.9D-15,  1.2D+00, r^2= 4.1D+00
   Bfn.  Coefficient  Atom+Function         Bfn.  Coefficient  Atom+Function  
  ----- ------------  ---------------      ----- ------------  ---------------
    43     -1.441264  2 C  d -1              12     -1.038975  1 O  py         
    35      0.909032  2 C  py                 9     -0.619717  1 O  py         
    29      0.341356  2 C  py                 6     -0.161350  1 O  py         

 Vector   22  Occ=0.000000D+00  E= 2.667488D-01  Symmetry=b1
              MO Center=  3.8D-15, -1.3D-17,  1.2D+00, r^2= 4.1D+00
   Bfn.  Coefficient  Atom+Function         Bfn.  Coefficient  Atom+Function  
  ----- ------------  ---------------      ----- ------------  ---------------
    45     -1.441264  2 C  d  1              11      1.038975  1 O  px         
    34     -0.909032  2 C  px                 8      0.619717  1 O  px         
    28     -0.341356  2 C  px                 5      0.161350  1 O  px         

 Vector   23  Occ=0.000000D+00  E= 3.590783D-01  Symmetry=b1
              MO Center= -9.6D-16, -1.2D-16,  7.0D-02, r^2= 3.9D+00
   Bfn.  Coefficient  Atom+Function         Bfn.  Coefficient  Atom+Function  
  ----- ------------  ---------------      ----- ------------  ---------------
    31     -2.119276  2 C  px                11      1.097890  1 O  px         
    45     -0.929793  2 C  d  1              28      0.772524  2 C  px         
     8      0.683575  1 O  px                22     -0.365784  1 O  d  1       

 Vector   24  Occ=0.000000D+00  E= 3.590783D-01  Symmetry=b2
              MO Center=  1.7D-17, -2.6D-15,  7.0D-02, r^2= 3.9D+00
   Bfn.  Coefficient  Atom+Function         Bfn.  Coefficient  Atom+Function  
  ----- ------------  ---------------      ----- ------------  ---------------
    32      2.119276  2 C  py                12     -1.097890  1 O  py         
    43     -0.929793  2 C  d -1              29     -0.772524  2 C  py         
     9     -0.683575  1 O  py                20     -0.365784  1 O  d -1       

 Vector   25  Occ=0.000000D+00  E= 3.672943D-01  Symmetry=a1
              MO Center=  1.3D-16, -2.7D-16,  7.4D-01, r^2= 4.5D+00
   Bfn.  Coefficient  Atom+Function         Bfn.  Coefficient  Atom+Function  
  ----- ------------  ---------------      ----- ------------  ---------------
     4      3.624338  1 O  s                 33      3.599610  2 C  pz         
     3      3.018872  1 O  s                 26     -2.615482  2 C  s          
    27     -2.417835  2 C  s                 44     -1.654312  2 C  d  0       
    10      0.571613  1 O  pz                36      0.380876  2 C  pz         
    30     -0.373742  2 C  pz                25     -0.229530  2 C  s          

 Vector   26  Occ=0.000000D+00  E= 4.838530D-01  Symmetry=a1
              MO Center= -1.1D-16,  9.2D-17,  7.6D-02, r^2= 2.9D+00
   Bfn.  Coefficient  Atom+Function         Bfn.  Coefficient  Atom+Function  
  ----- ------------  ---------------      ----- ------------  ---------------
     3     -1.282114  1 O  s                 44      1.085806  2 C  d  0       
    13      1.042130  1 O  pz                30     -0.735321  2 C  pz         
    33     -0.711412  2 C  pz                36     -0.664311  2 C  pz         
    21      0.564518  1 O  d  0              27      0.415219  2 C  s          
    10     -0.387805  1 O  pz                 4     -0.345756  1 O  s          

 Vector   27  Occ=0.000000D+00  E= 6.313495D-01  Symmetry=a1
              MO Center= -1.4D-15,  1.8D-16, -2.8D-01, r^2= 2.2D+00
   Bfn.  Coefficient  Atom+Function         Bfn.  Coefficient  Atom+Function  
  ----- ------------  ---------------      ----- ------------  ---------------
    23     -1.126131  1 O  d  2              46      0.633497  2 C  d  2       


 center of mass
 --------------
 x =   0.00000000 y =   0.00000000 z =   0.00016614

 moments of inertia (a.u.)
 ------------------
          31.169570572997           0.000000000000           0.000000000000
           0.000000000000          31.169570572997           0.000000000000
           0.000000000000           0.000000000000           0.000000000000

     Multipole analysis of the density
     ---------------------------------

     L   x y z        total         alpha         beta         nuclear
     -   - - -        -----         -----         ----         -------
     0   0 0 0      0.000000     -7.000000     -7.000000     14.000000

     1   1 0 0      0.000000      0.000000      0.000000      0.000000
     1   0 1 0      0.000000      0.000000      0.000000      0.000000
     1   0 0 1     -0.043024     -0.021512     -0.021512      0.000000

     2   2 0 0     -7.767377     -3.883688     -3.883688      0.000000
     2   1 1 0      0.000000      0.000000      0.000000      0.000000
     2   1 0 1      0.000000      0.000000      0.000000      0.000000
     2   0 2 0     -7.767377     -3.883688     -3.883688      0.000000
     2   0 1 1      0.000000      0.000000      0.000000      0.000000
     2   0 0 2     -9.317850    -12.452381    -12.452381     15.586911


 Parallel integral file used       4 records with       0 large values

                                NWChem TDDFT Module
                                -------------------


            General Information
            -------------------
           No. of orbitals :    92
            Alpha orbitals :    46
             Beta orbitals :    46
        Alpha frozen cores :     0
         Beta frozen cores :     0
     Alpha frozen virtuals :     0
      Beta frozen virtuals :     0
         Spin multiplicity :     1
    Number of AO functions :    46
        Use of symmetry is : off
      Symmetry adaption is : on 
         Schwarz screening : 0.10D-07

              XC Information
              --------------
                 Slater Exchange Functional   1.00 local    
               VWN V Correlation Functional   1.00 local    

     Casida-Salahub correction with a shift       0.183700 au

             TDDFT Information
             -----------------
          Calculation type : TDDFT             
         Wavefunction type : Restricted singlets & triplets
          No. of electrons :    14
           Alpha electrons :     7
            Beta electrons :     7
              No. of roots :    12
          Max subspacesize :   273
            Max iterations :   100
               Target root :     1
           Target symmetry : none
      Symmetry restriction : off
                 Algorithm : Optimal
        Davidson threshold : 0.10D-03

            Memory Information
            ------------------
          Available GA space size is         104855484 doubles
          Available MA space size is          26212417 doubles
          Length of a trial vector is          273
          Algorithm : Incore multiple tensor contraction
          Estimated peak GA usage is            516268 doubles
          Estimated peak MA usage is            102000 doubles

  Entering Davidson iterations
  Restricted singlet excited states

  Iter   NTrls   NConv    DeltaV     DeltaE      Time   
  ----  ------  ------  ---------  ---------  --------- 
    1     12       1     0.69E+00   0.10+100        1.2
    2     23       1     0.23E+00   0.10E+00        1.2
    3     45       1     0.37E-01   0.57E-01        1.9
    4     67       1     0.94E-01   0.30E-02        2.0
    5     89       2     0.29E-01   0.55E-02        2.0
    6    109       5     0.48E-02   0.25E-03        1.9
    7    123      10     0.11E-02   0.57E-05        1.5
    8    127      11     0.30E-03   0.17E-06        0.9
    9    129      12     0.94E-04   0.96E-08        0.7
  ----  ------  ------  ---------  ---------  --------- 
  Convergence criterion met

  Ground state a1    -112.431426852 a.u.

  -------------------------------------------------------
  Root  1 singlet b2    0.301391624 a.u. (  8.2012869 eV)
  -------------------------------------------------------
     Transition Moments    X  0.14523   Y -0.60661   Z  0.00000
     Transition Moments   XX  0.00000  XY  0.00000  XZ  0.42549
     Transition Moments   YY  0.00000  YZ -1.77720  ZZ  0.00000
     Transition Moments  XXX  0.77922 XXY -1.08490 XXZ  0.00000
     Transition Moments  XYY  0.25974 XYZ  0.00000 XZZ  0.81391
     Transition Moments  YYY -3.25470 YYZ  0.00000 YZZ -3.39959
     Transition Moments  ZZZ  0.00000
     Dipole Oscillator Strength                          0.07817

     Occ.  4  a1  ---  Virt.  9  b2   0.13416 X
     Occ.  7  a1  ---  Virt.  8  b1  -0.23045 X
     Occ.  7  a1  ---  Virt.  9  b2  -0.96255 X
     Occ.  7  a1  ---  Virt.  9  b2   0.08646 Y
     Occ.  7  a1  ---  Virt. 13  b2  -0.06589 X
  -------------------------------------------------------
  Root  2 singlet b1    0.301391624 a.u. (  8.2012869 eV)
  -------------------------------------------------------
     Transition Moments    X  0.60661   Y  0.14523   Z  0.00000
     Transition Moments   XX  0.00000  XY  0.00000  XZ  1.77720
     Transition Moments   YY  0.00000  YZ  0.42549  ZZ  0.00000
     Transition Moments  XXX  3.25470 XXY  0.25974 XXZ  0.00000
     Transition Moments  XYY  1.08490 XYZ  0.00000 XZZ  3.39960
     Transition Moments  YYY  0.77922 YYZ  0.00000 YZZ  0.81391
     Transition Moments  ZZZ  0.00000
     Dipole Oscillator Strength                          0.07817

     Occ.  4  a1  ---  Virt.  8  b1   0.13416 X
     Occ.  7  a1  ---  Virt.  8  b1  -0.96255 X
     Occ.  7  a1  ---  Virt.  8  b1   0.08646 Y
     Occ.  7  a1  ---  Virt.  9  b2   0.23045 X
     Occ.  7  a1  ---  Virt. 12  b1   0.06589 X
  -------------------------------------------------------
  Root  3 singlet a2    0.366329038 a.u. (  9.9683246 eV)
  -------------------------------------------------------
     Transition Moments    X  0.00000   Y  0.00000   Z  0.00000
     Transition Moments   XX  0.00000  XY  0.00000  XZ  0.00000
     Transition Moments   YY  0.00000  YZ  0.00000  ZZ  0.00000
     Transition Moments  XXX  0.00000 XXY  0.00000 XXZ  0.00000
     Transition Moments  XYY  0.00000 XYZ  0.00000 XZZ  0.00000
     Transition Moments  YYY  0.00000 YYZ  0.00000 YZZ  0.00000
     Transition Moments  ZZZ  0.00000
     Dipole Oscillator Strength                          0.00000

     Occ.  5  b1  ---  Virt.  9  b2   0.70711 X
     Occ.  6  b2  ---  Virt.  8  b1   0.70711 X
  -------------------------------------------------------
  Root  4 singlet a1    0.383697836 a.u. ( 10.4409538 eV)
  -------------------------------------------------------
     Transition Moments    X  0.00000   Y  0.00000   Z  0.00000
     Transition Moments   XX -0.28453  XY  0.00000  XZ  0.00000
     Transition Moments   YY  0.28453  YZ  0.00000  ZZ  0.00000
     Transition Moments  XXX  0.00000 XXY  0.00000 XXZ -1.08979
     Transition Moments  XYY  0.00000 XYZ  0.00000 XZZ  0.00000
     Transition Moments  YYY  0.00000 YYZ  1.08979 YZZ  0.00000
     Transition Moments  ZZZ  0.00000
     Dipole Oscillator Strength                          0.00000

     Occ.  5  b1  ---  Virt.  8  b1   0.70695 X
     Occ.  6  b2  ---  Virt.  9  b2   0.70695 X
  -------------------------------------------------------
  Root  5 singlet a2    0.383697841 a.u. ( 10.4409539 eV)
  -------------------------------------------------------
     Transition Moments    X  0.00000   Y  0.00000   Z  0.00000
     Transition Moments   XX  0.00000  XY -0.28453  XZ  0.00000
     Transition Moments   YY  0.00000  YZ  0.00000  ZZ  0.00000
     Transition Moments  XXX  0.00000 XXY  0.00000 XXZ  0.00000
     Transition Moments  XYY  0.00000 XYZ -1.08979 XZZ  0.00000
     Transition Moments  YYY  0.00000 YYZ  0.00000 YZZ  0.00000
     Transition Moments  ZZZ  0.00000
     Dipole Oscillator Strength                          0.00000

     Occ.  5  b1  ---  Virt.  9  b2  -0.70695 X
     Occ.  6  b2  ---  Virt.  8  b1   0.70695 X
  -------------------------------------------------------
  Root  6 singlet a1    0.393832725 a.u. ( 10.7167383 eV)
  -------------------------------------------------------
     Transition Moments    X  0.00000   Y  0.00000   Z -0.26596
     Transition Moments   XX  1.00783  XY  0.00000  XZ  0.00000
     Transition Moments   YY  1.00783  YZ  0.00000  ZZ -0.47172
     Transition Moments  XXX  0.00000 XXY  0.00000 XXZ  0.05937
     Transition Moments  XYY  0.00000 XYZ  0.00000 XZZ  0.00000
     Transition Moments  YYY  0.00000 YYZ  0.05937 YZZ  0.00000
     Transition Moments  ZZZ -5.23756
     Dipole Oscillator Strength                          0.01857

     Occ.  5  b1  ---  Virt.  8  b1  -0.07971 X
     Occ.  6  b2  ---  Virt.  9  b2   0.07971 X
     Occ.  7  a1  ---  Virt. 10  a1   0.97375 X
     Occ.  7  a1  ---  Virt. 11  a1   0.18119 X
  -------------------------------------------------------
  Root  7 singlet b1    0.429000671 a.u. ( 11.6737072 eV)
  -------------------------------------------------------
     Transition Moments    X  0.47861   Y  0.11462   Z  0.00000
     Transition Moments   XX  0.00000  XY  0.00000  XZ  0.44443
     Transition Moments   YY  0.00000  YZ  0.10643  ZZ  0.00000
     Transition Moments  XXX  6.81742 XXY  0.54420 XXZ  0.00000
     Transition Moments  XYY  2.27247 XYZ  0.00000 XZZ  3.63152
     Transition Moments  YYY  1.63260 YYZ  0.00000 YZZ  0.86966
     Transition Moments  ZZZ  0.00000
     Dipole Oscillator Strength                          0.06927

     Occ.  4  a1  ---  Virt.  8  b1  -0.07816 X
     Occ.  7  a1  ---  Virt.  8  b1   0.05570 X
     Occ.  7  a1  ---  Virt. 12  b1   0.96742 X
     Occ.  7  a1  ---  Virt. 13  b2   0.23167 X
  -------------------------------------------------------
  Root  8 singlet b2    0.429000671 a.u. ( 11.6737072 eV)
  -------------------------------------------------------
     Transition Moments    X  0.11462   Y -0.47861   Z  0.00000
     Transition Moments   XX  0.00000  XY  0.00000  XZ  0.10643
     Transition Moments   YY  0.00000  YZ -0.44443  ZZ  0.00000
     Transition Moments  XXX  1.63260 XXY -2.27248 XXZ  0.00000
     Transition Moments  XYY  0.54420 XYZ  0.00000 XZZ  0.86966
     Transition Moments  YYY -6.81743 YYZ  0.00000 YZZ -3.63152
     Transition Moments  ZZZ  0.00000
     Dipole Oscillator Strength                          0.06927

     Occ.  4  a1  ---  Virt.  9  b2  -0.07816 X
     Occ.  7  a1  ---  Virt.  9  b2   0.05570 X
     Occ.  7  a1  ---  Virt. 12  b1   0.23167 X
     Occ.  7  a1  ---  Virt. 13  b2  -0.96742 X
  -------------------------------------------------------
  Root  9 singlet a1    0.430293221 a.u. ( 11.7088793 eV)
  -------------------------------------------------------
     Transition Moments    X  0.00000   Y  0.00000   Z  0.87630
     Transition Moments   XX  0.77628  XY  0.00000  XZ  0.00000
     Transition Moments   YY  0.77628  YZ  0.00000  ZZ  2.77895
     Transition Moments  XXX  0.00000 XXY  0.00000 XXZ  4.26611
     Transition Moments  XYY  0.00000 XYZ  0.00000 XZZ  0.00000
     Transition Moments  YYY  0.00000 YYZ  4.26611 YZZ  0.00000
     Transition Moments  ZZZ 18.57329
     Dipole Oscillator Strength                          0.22028

     Occ.  5  b1  ---  Virt.  8  b1  -0.07121 X
     Occ.  5  b1  ---  Virt. 12  b1  -0.05658 X
     Occ.  6  b2  ---  Virt.  9  b2   0.07121 X
     Occ.  6  b2  ---  Virt. 13  b2  -0.05658 X
     Occ.  7  a1  ---  Virt. 10  a1   0.16299 X
     Occ.  7  a1  ---  Virt. 11  a1  -0.97438 X
  -------------------------------------------------------
  Root 10 singlet b2    0.484381507 a.u. ( 13.1806970 eV)
  -------------------------------------------------------
     Transition Moments    X  0.12717   Y -0.53122   Z  0.00000
     Transition Moments   XX  0.00000  XY  0.00000  XZ  0.09993
     Transition Moments   YY  0.00000  YZ -0.41743  ZZ  0.00000
     Transition Moments  XXX  0.34506 XXY -0.48045 XXZ  0.00000
     Transition Moments  XYY  0.11502 XYZ  0.00000 XZZ  0.54595
     Transition Moments  YYY -1.44136 YYZ  0.00000 YZZ -2.28052
     Transition Moments  ZZZ  0.00000
     Dipole Oscillator Strength                          0.09635

     Occ.  4  a1  ---  Virt.  8  b1  -0.22545 X
     Occ.  4  a1  ---  Virt.  9  b2  -0.94172 X
     Occ.  4  a1  ---  Virt. 13  b2  -0.06342 X
     Occ.  5  b1  ---  Virt. 19  a2   0.06682 X
     Occ.  6  b2  ---  Virt. 10  a1  -0.07515 X
     Occ.  6  b2  ---  Virt. 11  a1   0.05081 X
     Occ.  6  b2  ---  Virt. 14  a1   0.05168 X
     Occ.  6  b2  ---  Virt. 18  a1   0.06682 X
     Occ.  7  a1  ---  Virt.  9  b2  -0.13077 X
     Occ.  7  a1  ---  Virt. 13  b2   0.07116 X
     Occ.  7  a1  ---  Virt. 16  b2   0.10688 X
  -------------------------------------------------------
  Root 11 singlet b1    0.484381508 a.u. ( 13.1806971 eV)
  -------------------------------------------------------
     Transition Moments    X  0.53122   Y  0.12717   Z  0.00000
     Transition Moments   XX  0.00000  XY  0.00000  XZ  0.41744
     Transition Moments   YY  0.00000  YZ  0.09993  ZZ  0.00000
     Transition Moments  XXX  1.44135 XXY  0.11502 XXZ  0.00000
     Transition Moments  XYY  0.48045 XYZ  0.00000 XZZ  2.28051
     Transition Moments  YYY  0.34506 YYZ  0.00000 YZZ  0.54595
     Transition Moments  ZZZ  0.00000
     Dipole Oscillator Strength                          0.09635

     Occ.  4  a1  ---  Virt.  8  b1  -0.94172 X
     Occ.  4  a1  ---  Virt.  9  b2   0.22545 X
     Occ.  4  a1  ---  Virt. 12  b1   0.06342 X
     Occ.  5  b1  ---  Virt. 10  a1   0.07515 X
     Occ.  5  b1  ---  Virt. 11  a1  -0.05081 X
     Occ.  5  b1  ---  Virt. 14  a1  -0.05168 X
     Occ.  5  b1  ---  Virt. 18  a1   0.06682 X
     Occ.  6  b2  ---  Virt. 19  a2  -0.06682 X
     Occ.  7  a1  ---  Virt.  8  b1  -0.13077 X
     Occ.  7  a1  ---  Virt. 12  b1  -0.07116 X
     Occ.  7  a1  ---  Virt. 15  b1  -0.10688 X
  -------------------------------------------------------
  Root 12 singlet a1    0.491743238 a.u. ( 13.3810200 eV)
  -------------------------------------------------------
     Transition Moments    X  0.00000   Y  0.00000   Z -0.42817
     Transition Moments   XX -0.78948  XY  0.00000  XZ  0.00000
     Transition Moments   YY -0.78948  YZ  0.00000  ZZ  2.08809
     Transition Moments  XXX  0.00000 XXY  0.00000 XXZ -1.63149
     Transition Moments  XYY  0.00000 XYZ  0.00000 XZZ  0.00000
     Transition Moments  YYY  0.00000 YYZ -1.63149 YZZ  0.00000
     Transition Moments  ZZZ  2.04906
     Dipole Oscillator Strength                          0.06010

     Occ.  4  a1  ---  Virt. 10  a1  -0.09759 X
     Occ.  5  b1  ---  Virt.  8  b1   0.29986 X
     Occ.  5  b1  ---  Virt. 12  b1  -0.09393 X
     Occ.  5  b1  ---  Virt. 15  b1   0.06932 X
     Occ.  6  b2  ---  Virt.  9  b2  -0.29986 X
     Occ.  6  b2  ---  Virt. 13  b2  -0.09393 X
     Occ.  6  b2  ---  Virt. 16  b2   0.06932 X
     Occ.  7  a1  ---  Virt. 14  a1  -0.88435 X

              Target root =      1
          Target symmetry = none
      Ground state energy =   -112.431426852458
        Excitation energy =      0.301391624051
     Excited state energy =   -112.130035228407


  Entering Davidson iterations
  Restricted triplet excited states

  Iter   NTrls   NConv    DeltaV     DeltaE      Time   
  ----  ------  ------  ---------  ---------  --------- 
    1     12       1     0.10E+00   0.10+100        1.2
    2     23       1     0.21E-01   0.48E-02        1.1
    3     45       1     0.75E-02   0.21E-03        1.9
    4     67       1     0.22E-02   0.18E-04        1.9
    5     89       3     0.77E-03   0.16E-05        2.0
    6    107       9     0.18E-03   0.15E-06        1.7
    7    113      12     0.78E-04   0.68E-08        0.9
  ----  ------  ------  ---------  ---------  --------- 
  Convergence criterion met

  Ground state a1    -112.431426852 a.u.

  -------------------------------------------------------
  Root  1 triplet b1    0.218250373 a.u. (  5.9388973 eV)
  -------------------------------------------------------
     Transition Moments                    Spin forbidden
     Oscillator Strength                   Spin forbidden

     Occ.  7  a1  ---  Virt.  8  b1   1.00048 X
     Occ.  7  a1  ---  Virt.  8  b1   0.07123 Y
  -------------------------------------------------------
  Root  2 triplet b2    0.218250373 a.u. (  5.9388973 eV)
  -------------------------------------------------------
     Transition Moments                    Spin forbidden
     Oscillator Strength                   Spin forbidden

     Occ.  7  a1  ---  Virt.  9  b2   1.00048 X
     Occ.  7  a1  ---  Virt.  9  b2   0.07123 Y
  -------------------------------------------------------
  Root  3 triplet a1    0.312885719 a.u. (  8.5140572 eV)
  -------------------------------------------------------
     Transition Moments                    Spin forbidden
     Oscillator Strength                   Spin forbidden

     Occ.  5  b1  ---  Virt.  8  b1  -0.70646 X
     Occ.  5  b1  ---  Virt.  8  b1  -0.05559 Y
     Occ.  6  b2  ---  Virt.  9  b2   0.70646 X
     Occ.  6  b2  ---  Virt.  9  b2   0.05559 Y
  -------------------------------------------------------
  Root  4 triplet a1    0.341350706 a.u. (  9.2886293 eV)
  -------------------------------------------------------
     Transition Moments                    Spin forbidden
     Oscillator Strength                   Spin forbidden

     Occ.  5  b1  ---  Virt.  8  b1  -0.70691 X
     Occ.  6  b2  ---  Virt.  9  b2  -0.70691 X
  -------------------------------------------------------
  Root  5 triplet a2    0.341350714 a.u. (  9.2886295 eV)
  -------------------------------------------------------
     Transition Moments                    Spin forbidden
     Oscillator Strength                   Spin forbidden

     Occ.  5  b1  ---  Virt.  9  b2   0.70691 X
     Occ.  6  b2  ---  Virt.  8  b1  -0.70691 X
  -------------------------------------------------------
  Root  6 triplet a2    0.366329038 a.u. (  9.9683246 eV)
  -------------------------------------------------------
     Transition Moments                    Spin forbidden
     Oscillator Strength                   Spin forbidden

     Occ.  5  b1  ---  Virt.  9  b2   0.70711 X
     Occ.  6  b2  ---  Virt.  8  b1   0.70711 X
  -------------------------------------------------------
  Root  7 triplet a1    0.376314869 a.u. ( 10.2400530 eV)
  -------------------------------------------------------
     Transition Moments                    Spin forbidden
     Oscillator Strength                   Spin forbidden

     Occ.  7  a1  ---  Virt. 10  a1   0.99372 X
     Occ.  7  a1  ---  Virt. 11  a1  -0.09214 X
  -------------------------------------------------------
  Root  8 triplet a1    0.416699783 a.u. ( 11.3389829 eV)
  -------------------------------------------------------
     Transition Moments                    Spin forbidden
     Oscillator Strength                   Spin forbidden

     Occ.  7  a1  ---  Virt. 10  a1  -0.09415 X
     Occ.  7  a1  ---  Virt. 11  a1  -0.99389 X
  -------------------------------------------------------
  Root  9 triplet b2    0.418575804 a.u. ( 11.3900320 eV)
  -------------------------------------------------------
     Transition Moments                    Spin forbidden
     Oscillator Strength                   Spin forbidden

     Occ.  4  a1  ---  Virt.  9  b2   0.93522 X
     Occ.  7  a1  ---  Virt.  9  b2  -0.05676 X
     Occ.  7  a1  ---  Virt. 13  b2  -0.34286 X
  -------------------------------------------------------
  Root 10 triplet b1    0.418575804 a.u. ( 11.3900320 eV)
  -------------------------------------------------------
     Transition Moments                    Spin forbidden
     Oscillator Strength                   Spin forbidden

     Occ.  4  a1  ---  Virt.  8  b1   0.93522 X
     Occ.  7  a1  ---  Virt.  8  b1  -0.05676 X
     Occ.  7  a1  ---  Virt. 12  b1   0.34286 X
  -------------------------------------------------------
  Root 11 triplet b1    0.426893306 a.u. ( 11.6163628 eV)
  -------------------------------------------------------
     Transition Moments                    Spin forbidden
     Oscillator Strength                   Spin forbidden

     Occ.  4  a1  ---  Virt.  8  b1  -0.30671 X
     Occ.  4  a1  ---  Virt.  9  b2  -0.15897 X
     Occ.  7  a1  ---  Virt. 12  b1   0.83271 X
     Occ.  7  a1  ---  Virt. 13  b2  -0.43160 X
  -------------------------------------------------------
  Root 12 triplet b2    0.426893306 a.u. ( 11.6163628 eV)
  -------------------------------------------------------
     Transition Moments                    Spin forbidden
     Oscillator Strength                   Spin forbidden

     Occ.  4  a1  ---  Virt.  8  b1   0.15897 X
     Occ.  4  a1  ---  Virt.  9  b2  -0.30671 X
     Occ.  7  a1  ---  Virt. 12  b1  -0.43160 X
     Occ.  7  a1  ---  Virt. 13  b2  -0.83271 X

              Target root =      1
          Target symmetry = none
      Ground state energy =   -112.431426852458
        Excitation energy =      0.218250372696
     Excited state energy =   -112.213176479762


 Task  times  cpu:       25.5s     wall:       26.0s
 Summary of allocated global arrays
-----------------------------------
  No active global arrays



                         GA Statistics for process    0
                         ------------------------------

       create   destroy   get      put      acc     scatter   gather  read&inc
calls: 9.37e+04 9.37e+04 4.75e+05 1.58e+05 7.44e+04  968        0      439     
number of processes/call 1.03e+00 1.09e+00 1.00e+00 1.00e+00 0.00e+00
bytes total:             3.67e+08 6.30e+07 1.01e+08 4.10e+06 0.00e+00 3.51e+03
bytes remote:            2.59e+08 7.26e+06 7.56e+07 0.00e+00 0.00e+00 0.00e+00
Max memory consumed for GA by this process: 1142456 bytes
MA_summarize_allocated_blocks: starting scan ...
MA_summarize_allocated_blocks: scan completed: 0 heap blocks, 0 stack blocks
MA usage statistics:

	allocation statistics:
					      heap	     stack
					      ----	     -----
	current number of blocks	         0	         0
	maximum number of blocks	        24	        48
	current total bytes		         0	         0
	maximum total bytes		   2079984	  22511320
	maximum total K-bytes		      2080	     22512
	maximum total M-bytes		         3	        23


                                NWChem Input Module
                                -------------------





                                     CITATION
                                     --------
                Please cite the following reference when publishing
                           results obtained with NWChem:

                 M. Valiev, E.J. Bylaska, N. Govind, K. Kowalski,
              T.P. Straatsma, H.J.J. van Dam, D. Wang, J. Nieplocha,
                        E. Apra, T.L. Windus, W.A. de Jong
                 "NWChem: a comprehensive and scalable open-source
                  solution for large scale molecular simulations"
                      Comput. Phys. Commun. 181, 1477 (2010)
                           doi:10.1016/j.cpc.2010.04.018

                              AUTHORS & CONTRIBUTORS
                              ----------------------
      E. J. Bylaska, W. A. de Jong, N. Govind, K. Kowalski, T. P. Straatsma,
     M. Valiev, H. J. J. Van Dam, D. Wang, E. Apra, T. L. Windus, J. Hammond,
     J. Autschbach, P. Nichols, S. Hirata, M. T. Hackler, Y. Zhao, P.-D. Fan,
      R. J. Harrison, M. Dupuis, D. M. A. Smith, J. Nieplocha, V. Tipparaju,
          M. Krishnan, A. Vazquez-Mayagoitia, L. Jensen, M. Swart, Q. Wu,
          T. Van Voorhis, A. A. Auer, M. Nooijen, L. D. Crosby, E. Brown,
             G. Cisneros, G. I. Fann, H. Fruchtl, J. Garza, K. Hirao,
        R. Kendall, J. A. Nichols, K. Tsemekhman, K. Wolinski, J. Anchell,
       D. Bernholdt, P. Borowski, T. Clark, D. Clerc, H. Dachsel, M. Deegan,
        K. Dyall, D. Elwood, E. Glendening, M. Gutowski, A. Hess, J. Jaffe,
        B. Johnson, J. Ju, R. Kobayashi, R. Kutteh, Z. Lin, R. Littlefield,
    X. Long, B. Meng, T. Nakajima, S. Niu, L. Pollack, M. Rosing, G. Sandrone,
       M. Stave, H. Taylor, G. Thomas, J. H. van Lenthe, A. Wong, Z. Zhang.

 Total times  cpu:       25.5s     wall:       26.1s
