 argument  1 = vectors_rotate.nw



============================== echo of input deck ==============================
 start vectors_rotate

title  "vectors rotate test"

echo

geometry test1 noautosym noautoz nocenter
 o     -0.6 0.0 0.0
 o      0.6 0.0 0.0
symmetry c1
end

geometry test2 noautosym noautoz nocenter
 o     -0.54812727458556054 -0.24404198584548012  0.0
 o      0.54812727458556054  0.24404198584548012   0.0
symmetry c1
end

basis "ao basis"
 *    library 6-31G*
end

set geometry test1
dft
 vectors input atomic output test1.mo
end
task dft

set geometry test2
dft
 vectors input rotate test1 test1.mo output test2.mo
end
task dft
================================================================================


                                         
                                         


              Northwest Computational Chemistry Package (NWChem) 6.0
              ------------------------------------------------------


                    Environmental Molecular Sciences Laboratory
                       Pacific Northwest National Laboratory
                                Richland, WA 99352

                              Copyright (c) 1994-2010
                       Pacific Northwest National Laboratory
                            Battelle Memorial Institute

             NWChem is an open-source computational chemistry package
                        distributed under the terms of the
                      Educational Community License (ECL) 2.0
             A copy of the license is included with this distribution
                              in the LICENSE.TXT file

                                  ACKNOWLEDGMENT
                                  --------------

            This software and its documentation were developed at the
            EMSL at Pacific Northwest National Laboratory, a multiprogram
            national laboratory, operated for the U.S. Department of Energy
            by Battelle under Contract Number DE-AC05-76RL01830. Support
            for this work was provided by the Department of Energy Office
            of Biological and Environmental Research, Office of Basic
            Energy Sciences, and the Office of Advanced Scientific Computing.


           Job information
           ---------------

    hostname      = arcen
    program       = /home/d3y133/nwchem-releases/nwchem-6.0-gfortran/bin/LINUX64/nwchem
    date          = Fri Aug  6 13:47:23 2010

    compiled      = Fri_Aug_06_13:42:42_2010
    source        = /home/d3y133/nwchem-releases/nwchem-6.0-gfortran
    nwchem branch = 6.0
    input         = vectors_rotate.nw
    prefix        = vectors_rotate.
    data base     = ./vectors_rotate.db
    status        = startup
    nproc         =        4
    time left     =     -1s



           Memory information
           ------------------

    heap     =   13107201 doubles =    100.0 Mbytes
    stack    =   13107201 doubles =    100.0 Mbytes
    global   =   26214400 doubles =    200.0 Mbytes (distinct from heap & stack)
    total    =   52428802 doubles =    400.0 Mbytes
    verify   = yes
    hardfail = no 


           Directory information
           ---------------------

  0 permanent = .
  0 scratch   = .




                                NWChem Input Module
                                -------------------


                                vectors rotate test
                                -------------------

 Scaling coordinates for geometry "test1" by  1.889725989
 (inverse scale =  0.529177249)



                              Geometry "test1" -> ""
                              ----------------------

 Output coordinates in angstroms (scale by  1.889725989 to convert to a.u.)

  No.       Tag          Charge          X              Y              Z
 ---- ---------------- ---------- -------------- -------------- --------------
    1 o                    8.0000    -0.60000000     0.00000000     0.00000000
    2 o                    8.0000     0.60000000     0.00000000     0.00000000

      Atomic Mass 
      ----------- 

      o                 15.994910


 Effective nuclear repulsion energy (a.u.)      28.2227866133

            Nuclear Dipole moment (a.u.) 
            ----------------------------
        X                 Y               Z
 ---------------- ---------------- ----------------
     0.0000000000     0.0000000000     0.0000000000


            XYZ format geometry
            -------------------
     2
 test1
 o                    -0.60000000     0.00000000     0.00000000
 o                     0.60000000     0.00000000     0.00000000

 ==============================================================================
                                internuclear distances
 ------------------------------------------------------------------------------
       center one      |      center two      | atomic units |  angstroms
 ------------------------------------------------------------------------------
    2 o                |   1 o                |     2.26767  |     1.20000
 ------------------------------------------------------------------------------
                         number of included internuclear distances:          1
 ==============================================================================




 Scaling coordinates for geometry "test2" by  1.889725989
 (inverse scale =  0.529177249)



                            Geometry "test2" -> "     "
                            ---------------------------

 Output coordinates in angstroms (scale by  1.889725989 to convert to a.u.)

  No.       Tag          Charge          X              Y              Z
 ---- ---------------- ---------- -------------- -------------- --------------
    1 o                    8.0000    -0.54812727    -0.24404199     0.00000000
    2 o                    8.0000     0.54812727     0.24404199     0.00000000

      Atomic Mass 
      ----------- 

      o                 15.994910


 Effective nuclear repulsion energy (a.u.)      28.2227866133

            Nuclear Dipole moment (a.u.) 
            ----------------------------
        X                 Y               Z
 ---------------- ---------------- ----------------
     0.0000000000     0.0000000000     0.0000000000


            XYZ format geometry
            -------------------
     2
 test2
 o                    -0.54812727    -0.24404199     0.00000000
 o                     0.54812727     0.24404199     0.00000000

 ==============================================================================
                                internuclear distances
 ------------------------------------------------------------------------------
       center one      |      center two      | atomic units |  angstroms
 ------------------------------------------------------------------------------
    2 o                |   1 o                |     2.26767  |     1.20000
 ------------------------------------------------------------------------------
                         number of included internuclear distances:          1
 ==============================================================================



  library name resolved from: .nwchemrc
  library file name is: </home/d3y133/nwchem-releases/nwchem-6.0-gfortran/QA/../src/basis/libraries/>
  


 Summary of "ao basis" -> "" (cartesian)
 ------------------------------------------------------------------------------
       Tag                 Description            Shells   Functions and Types
 ---------------- ------------------------------  ------  ---------------------
 *                           6-31G*                   on all atoms 



                                 NWChem DFT Module
                                 -----------------


                                vectors rotate test


                      Basis "ao basis" -> "ao basis" (cartesian)
                      -----
  o (Oxygen)
  ----------
            Exponent  Coefficients 
       -------------- ---------------------------------------------------------
  1 S  5.48467170E+03  0.001831
  1 S  8.25234950E+02  0.013950
  1 S  1.88046960E+02  0.068445
  1 S  5.29645000E+01  0.232714
  1 S  1.68975700E+01  0.470193
  1 S  5.79963530E+00  0.358521

  2 S  1.55396160E+01 -0.110778
  2 S  3.59993360E+00 -0.148026
  2 S  1.01376180E+00  1.130767

  3 P  1.55396160E+01  0.070874
  3 P  3.59993360E+00  0.339753
  3 P  1.01376180E+00  0.727159

  4 S  2.70005800E-01  1.000000

  5 P  2.70005800E-01  1.000000

  6 D  8.00000000E-01  1.000000



 Summary of "ao basis" -> "ao basis" (cartesian)
 ------------------------------------------------------------------------------
       Tag                 Description            Shells   Functions and Types
 ---------------- ------------------------------  ------  ---------------------
 o                           6-31G*                  6       15   3s2p1d


  Caching 1-el integrals 

            General Information
            -------------------
          SCF calculation type: DFT
          Wavefunction type:  closed shell.
          No. of atoms     :     2
          No. of electrons :    16
           Alpha electrons :     8
            Beta electrons :     8
          Charge           :     0
          Spin multiplicity:     1
          Use of symmetry is: off; symmetry adaption is: off
          Maximum number of iterations:  30
          AO basis - number of functions:    30
                     number of shells:    12
          Convergence on energy requested: 1.00D-06
          Convergence on density requested: 1.00D-05
          Convergence on gradient requested: 5.00D-04

              XC Information
              --------------
                        Slater Exchange Functional  1.000 local    
                      VWN V Correlation Functional  1.000 local    

             Grid Information
             ----------------
          Grid used for XC integration:  medium    
          Radial quadrature: Mura-Knowles        
          Angular quadrature: Lebedev. 
          Tag              B.-S. Rad. Rad. Pts. Rad. Cut. Ang. Pts.
          ---              ---------- --------- --------- ---------
          o                   0.60       49           5.0       434
          Grid pruning is: on 
          Number of quadrature shells:    98
          Spatial weights used:  Erf1

          Convergence Information
          -----------------------
          Convergence aids based upon iterative change in 
          total energy or number of iterations. 
          Levelshifting, if invoked, occurs when the 
          HOMO/LUMO gap drops below (HL_TOL): 1.00D-02
          DIIS, if invoked, will attempt to extrapolate 
          using up to (NFOCK): 10 stored Fock matrices.

                    Damping( 0%)  Levelshifting(0.5)       DIIS
                  --------------- ------------------- ---------------
          dE  on:    start            ASAP                start   
          dE off:    2 iters         30 iters            30 iters 


      Screening Tolerance Information
      -------------------------------
          Density screening/tol_rho: 1.00D-10
          AO Gaussian exp screening on grid/accAOfunc:  14
          CD Gaussian exp screening on grid/accCDfunc:  20
          XC Gaussian exp screening on grid/accXCfunc:  20
          Schwarz screening/accCoul: 1.00D-08


      Superposition of Atomic Density Guess
      -------------------------------------

 Sum of atomic energies:        -149.50870446

      Non-variational initial energy
      ------------------------------

 Total energy =    -149.611940
 1-e energy   =    -262.405978
 2-e energy   =      84.571251
 HOMO         =      -0.189150
 LUMO         =      -0.189150

   Time after variat. SCF:      0.0
   Time prior to 1st pass:      0.0

 #quartets = 3.074D+03 #integrals = 3.368D+04 #direct =  0.0% #cached =100.0%


 Integral file          = ./vectors_rotate.aoints.0
 Record size in doubles =  65536        No. of integs per rec  =  43688
 Max. records in memory =      2        Max. records in file   =  26331
 No. of bits per label  =      8        No. of bits per value  =     64


File balance: exchanges=     0  moved=     0  time=   0.0


 Grid_pts file          = ./vectors_rotate.gridpts.0
 Record size in doubles =  12289        No. of grid_pts per rec  =   3070
 Max. records in memory =      5        Max. recs in file   =    140426


           Memory utilization after 1st SCF pass: 
           Heap Space remaining (MW):       12.91            12912945
          Stack Space remaining (MW):       13.11            13106941

   convergence    iter        energy       DeltaE   RMS-Dens  Diis-err    time
 ---------------- ----- ----------------- --------- --------- ---------  ------
 d= 0,ls=0.0,diis     1   -149.1553714366 -1.77D+02  8.63D-02  7.47D-01     0.1
 d= 0,ls=0.0,diis     2   -149.1661795293 -1.08D-02  8.44D-02  3.19D-01     0.1
 d= 0,ls=0.0,diis     3   -149.1936783236 -2.75D-02  8.41D-02  3.85D-02     0.2
 d= 0,ls=0.0,diis     4   -149.1941263996 -4.48D-04  9.43D-04  3.30D-02     0.2
 d= 0,ls=0.5,diis     5   -149.1957741198 -1.65D-03  1.41D-03  1.59D-02     0.2
 d= 0,ls=0.5,diis     6   -149.1972131427 -1.44D-03  4.81D-04  1.01D-03     0.2
 d= 0,ls=0.5,diis     7   -149.1973149278 -1.02D-04  7.11D-05  7.30D-06     0.3
 d= 0,ls=0.5,diis     8   -149.1973160308 -1.10D-06  1.65D-05  7.50D-07     0.3
 d= 0,ls=0.5,diis     9   -149.1973161170 -8.61D-08  4.89D-06  1.03D-07     0.3


         Total DFT energy =     -149.197316127383
      One electron energy =     -261.948033813241
           Coulomb energy =      100.433865491639
    Exchange-Corr. energy =      -15.905934419098
 Nuclear repulsion energy =       28.222786613317

 Numeric. integr. density =       16.000000023573

     Total iterative time =      0.3s



                       DFT Final Molecular Orbital Analysis
                       ------------------------------------

 Vector    1  Occ=2.000000D+00  E=-1.876913D+01
              MO Center= -1.1D-05,  1.9D-17, -5.4D-18, r^2= 3.8D-01
   Bfn.  Coefficient  Atom+Function         Bfn.  Coefficient  Atom+Function  
  ----- ------------  ---------------      ----- ------------  ---------------
     1     -0.700868  1 O  s                 16     -0.700855  2 O  s          

 Vector    2  Occ=2.000000D+00  E=-1.876912D+01
              MO Center=  1.1D-05,  9.0D-18,  7.6D-18, r^2= 3.8D-01
   Bfn.  Coefficient  Atom+Function         Bfn.  Coefficient  Atom+Function  
  ----- ------------  ---------------      ----- ------------  ---------------
    16      0.700421  2 O  s                  1     -0.700408  1 O  s          

 Vector    3  Occ=2.000000D+00  E=-1.191124D+00
              MO Center= -3.8D-11, -9.1D-16,  4.7D-16, r^2= 4.4D-01
   Bfn.  Coefficient  Atom+Function         Bfn.  Coefficient  Atom+Function  
  ----- ------------  ---------------      ----- ------------  ---------------
     2      0.344445  1 O  s                 17      0.344445  2 O  s          
     6      0.217545  1 O  s                 21      0.217545  2 O  s          
     3      0.199530  1 O  px                18     -0.199530  2 O  px         
     1     -0.151083  1 O  s                 16     -0.151083  2 O  s          

 Vector    4  Occ=2.000000D+00  E=-7.036833D-01
              MO Center= -1.2D-10, -5.6D-16, -1.9D-16, r^2= 1.1D+00
   Bfn.  Coefficient  Atom+Function         Bfn.  Coefficient  Atom+Function  
  ----- ------------  ---------------      ----- ------------  ---------------
     6     -0.483148  1 O  s                 21      0.483148  2 O  s          
     2     -0.382861  1 O  s                 17      0.382861  2 O  s          
     1      0.166447  1 O  s                 16     -0.166447  2 O  s          

 Vector    5  Occ=2.000000D+00  E=-4.889946D-01
              MO Center= -3.5D-11, -1.4D-14,  2.5D-15, r^2= 8.2D-01
   Bfn.  Coefficient  Atom+Function         Bfn.  Coefficient  Atom+Function  
  ----- ------------  ---------------      ----- ------------  ---------------
     4      0.457616  1 O  py                19      0.457616  2 O  py         
     8      0.256244  1 O  py                23      0.256244  2 O  py         

 Vector    6  Occ=2.000000D+00  E=-4.776315D-01
              MO Center=  1.4D-10,  1.4D-14, -4.0D-15, r^2= 1.1D+00
   Bfn.  Coefficient  Atom+Function         Bfn.  Coefficient  Atom+Function  
  ----- ------------  ---------------      ----- ------------  ---------------
    18      0.465783  2 O  px                 3     -0.465783  1 O  px         
    21      0.305644  2 O  s                  6      0.305644  1 O  s          
    22      0.214937  2 O  px                 7     -0.214937  1 O  px         

 Vector    7  Occ=2.000000D+00  E=-4.430016D-01
              MO Center= -1.3D-10,  2.0D-16,  1.7D-15, r^2= 8.3D-01
   Bfn.  Coefficient  Atom+Function         Bfn.  Coefficient  Atom+Function  
  ----- ------------  ---------------      ----- ------------  ---------------
     5      0.453209  1 O  pz                20      0.453209  2 O  pz         
     9      0.260588  1 O  pz                24      0.260588  2 O  pz         

 Vector    8  Occ=2.000000D+00  E=-1.797310D-01
              MO Center=  1.3D-10, -1.6D-16,  4.6D-18, r^2= 9.5D-01
   Bfn.  Coefficient  Atom+Function         Bfn.  Coefficient  Atom+Function  
  ----- ------------  ---------------      ----- ------------  ---------------
    20     -0.525313  2 O  pz                 5      0.525313  1 O  pz         
    24     -0.396761  2 O  pz                 9      0.396761  1 O  pz         

 Vector    9  Occ=0.000000D+00  E=-2.257427D-01
              MO Center=  3.2D-11,  3.4D-16,  1.7D-16, r^2= 9.3D-01
   Bfn.  Coefficient  Atom+Function         Bfn.  Coefficient  Atom+Function  
  ----- ------------  ---------------      ----- ------------  ---------------
    19     -0.531472  2 O  py                 4      0.531472  1 O  py         
    23     -0.386730  2 O  py                 8      0.386730  1 O  py         

 Vector   10  Occ=0.000000D+00  E= 1.740579D-01
              MO Center=  2.0D-11, -9.4D-17,  7.0D-17, r^2= 1.1D+00
   Bfn.  Coefficient  Atom+Function         Bfn.  Coefficient  Atom+Function  
  ----- ------------  ---------------      ----- ------------  ---------------
     6     -1.070912  1 O  s                 21      1.070912  2 O  s          
    22     -0.983312  2 O  px                 7     -0.983312  1 O  px         
    18     -0.543657  2 O  px                 3     -0.543657  1 O  px         
     2     -0.248376  1 O  s                 17      0.248376  2 O  s          

 Vector   11  Occ=0.000000D+00  E= 6.292737D-01
              MO Center= -4.7D-10, -8.9D-15, -1.2D-15, r^2= 1.7D+00
   Bfn.  Coefficient  Atom+Function         Bfn.  Coefficient  Atom+Function  
  ----- ------------  ---------------      ----- ------------  ---------------
    21      1.375296  2 O  s                  6      1.375296  1 O  s          
     2     -0.922531  1 O  s                 17     -0.922531  2 O  s          
    10     -0.360626  1 O  dxx               25     -0.360626  2 O  dxx        
    15     -0.258391  1 O  dzz               30     -0.258391  2 O  dzz        
    13     -0.251552  1 O  dyy               28     -0.251552  2 O  dyy        

 Vector   12  Occ=0.000000D+00  E= 6.628494D-01
              MO Center=  1.9D-10, -1.2D-15, -1.0D-15, r^2= 2.6D+00
   Bfn.  Coefficient  Atom+Function         Bfn.  Coefficient  Atom+Function  
  ----- ------------  ---------------      ----- ------------  ---------------
     7      1.493954  1 O  px                22      1.493954  2 O  px         
     6      0.727198  1 O  s                 21     -0.727198  2 O  s          
     3     -0.531132  1 O  px                18     -0.531132  2 O  px         
    25     -0.354368  2 O  dxx               10      0.354368  1 O  dxx        
    17     -0.273564  2 O  s                  2      0.273564  1 O  s          

 Vector   13  Occ=0.000000D+00  E= 7.197969D-01
              MO Center= -2.3D-10,  8.4D-15, -1.5D-15, r^2= 1.5D+00
   Bfn.  Coefficient  Atom+Function         Bfn.  Coefficient  Atom+Function  
  ----- ------------  ---------------      ----- ------------  ---------------
     4     -0.646006  1 O  py                19     -0.646006  2 O  py         
     8      0.625382  1 O  py                23      0.625382  2 O  py         

 Vector   14  Occ=0.000000D+00  E= 7.503210D-01
              MO Center= -2.4D-10,  4.9D-16,  2.8D-15, r^2= 1.5D+00
   Bfn.  Coefficient  Atom+Function         Bfn.  Coefficient  Atom+Function  
  ----- ------------  ---------------      ----- ------------  ---------------
     5      0.648146  1 O  pz                20      0.648146  2 O  pz         
     9     -0.623726  1 O  pz                24     -0.623726  2 O  pz         

 Vector   15  Occ=0.000000D+00  E= 7.937958D-01
              MO Center=  2.5D-10,  8.6D-17, -1.7D-16, r^2= 2.0D+00
   Bfn.  Coefficient  Atom+Function         Bfn.  Coefficient  Atom+Function  
  ----- ------------  ---------------      ----- ------------  ---------------
    22      0.804218  2 O  px                 7     -0.804218  1 O  px         
    18     -0.539664  2 O  px                 3      0.539664  1 O  px         
     6      0.210863  1 O  s                 21      0.210863  2 O  s          

 Vector   16  Occ=0.000000D+00  E= 8.479443D-01
              MO Center=  2.3D-10, -1.5D-15,  4.1D-16, r^2= 1.9D+00
   Bfn.  Coefficient  Atom+Function         Bfn.  Coefficient  Atom+Function  
  ----- ------------  ---------------      ----- ------------  ---------------
    23     -1.059687  2 O  py                 8      1.059687  1 O  py         
    19      0.620480  2 O  py                 4     -0.620480  1 O  py         
    24      0.182382  2 O  pz                 9     -0.182382  1 O  pz         

 Vector   17  Occ=0.000000D+00  E= 8.728669D-01
              MO Center=  2.4D-10,  6.0D-16,  4.0D-15, r^2= 1.9D+00
   Bfn.  Coefficient  Atom+Function         Bfn.  Coefficient  Atom+Function  
  ----- ------------  ---------------      ----- ------------  ---------------
    24     -1.056428  2 O  pz                 9      1.056428  1 O  pz         
    20      0.625668  2 O  pz                 5     -0.625668  1 O  pz         
    23     -0.181821  2 O  py                 8      0.181821  1 O  py         

 Vector   18  Occ=0.000000D+00  E= 1.238229D+00
              MO Center=  1.7D-11,  2.4D-15, -3.8D-15, r^2= 1.9D+00
   Bfn.  Coefficient  Atom+Function         Bfn.  Coefficient  Atom+Function  
  ----- ------------  ---------------      ----- ------------  ---------------
    21      4.942755  2 O  s                  6     -4.942755  1 O  s          
    22     -2.364597  2 O  px                 7     -2.364597  1 O  px         
    17     -1.273354  2 O  s                  2      1.273354  1 O  s          
    30     -0.330006  2 O  dzz               15      0.330006  1 O  dzz        
    28     -0.316570  2 O  dyy               13      0.316570  1 O  dyy        


 center of mass
 --------------
 x =   0.00000000 y =   0.00000000 z =   0.00000000

 moments of inertia (a.u.)
 ------------------
           0.000000000000           0.000000000000           0.000000000000
           0.000000000000          41.125573636767           0.000000000000
           0.000000000000           0.000000000000          41.125573636767

     Multipole analysis of the density
     ---------------------------------

     L   x y z        total         alpha         beta         nuclear
     -   - - -        -----         -----         ----         -------
     0   0 0 0      0.000000     -8.000000     -8.000000     16.000000

     1   1 0 0      0.000000      0.000000      0.000000      0.000000
     1   0 1 0      0.000000      0.000000      0.000000      0.000000
     1   0 0 1      0.000000      0.000000      0.000000      0.000000

     2   2 0 0     -7.707841    -14.138586    -14.138586     20.569330
     2   1 1 0      0.000000      0.000000      0.000000      0.000000
     2   1 0 1      0.000000      0.000000      0.000000      0.000000
     2   0 2 0     -6.699074     -3.349537     -3.349537      0.000000
     2   0 1 1     -0.222771     -0.111386     -0.111386      0.000000
     2   0 0 2     -7.955089     -3.977544     -3.977544      0.000000


 Parallel integral file used       4 records with       0 large values


 Task  times  cpu:        0.3s     wall:        0.4s


                                NWChem Input Module
                                -------------------



                                 NWChem DFT Module
                                 -----------------


                                vectors rotate test


  Caching 1-el integrals 

            General Information
            -------------------
          SCF calculation type: DFT
          Wavefunction type:  closed shell.
          No. of atoms     :     2
          No. of electrons :    16
           Alpha electrons :     8
            Beta electrons :     8
          Charge           :     0
          Spin multiplicity:     1
          Use of symmetry is: off; symmetry adaption is: off
          Maximum number of iterations:  30
          AO basis - number of functions:    30
                     number of shells:    12
          Convergence on energy requested: 1.00D-06
          Convergence on density requested: 1.00D-05
          Convergence on gradient requested: 5.00D-04

              XC Information
              --------------
                        Slater Exchange Functional  1.000 local    
                      VWN V Correlation Functional  1.000 local    

             Grid Information
             ----------------
          Grid used for XC integration:  medium    
          Radial quadrature: Mura-Knowles        
          Angular quadrature: Lebedev. 
          Tag              B.-S. Rad. Rad. Pts. Rad. Cut. Ang. Pts.
          ---              ---------- --------- --------- ---------
          o                   0.60       49           5.0       434
          Grid pruning is: on 
          Number of quadrature shells:    98
          Spatial weights used:  Erf1

          Convergence Information
          -----------------------
          Convergence aids based upon iterative change in 
          total energy or number of iterations. 
          Levelshifting, if invoked, occurs when the 
          HOMO/LUMO gap drops below (HL_TOL): 1.00D-02
          DIIS, if invoked, will attempt to extrapolate 
          using up to (NFOCK): 10 stored Fock matrices.

                    Damping( 0%)  Levelshifting(0.5)       DIIS
                  --------------- ------------------- ---------------
          dE  on:    start            ASAP                start   
          dE off:    2 iters         30 iters            30 iters 


      Screening Tolerance Information
      -------------------------------
          Density screening/tol_rho: 1.00D-10
          AO Gaussian exp screening on grid/accAOfunc:  14
          CD Gaussian exp screening on grid/accCDfunc:  20
          XC Gaussian exp screening on grid/accXCfunc:  20
          Schwarz screening/accCoul: 1.00D-08


     Orbital rotation guess
     ----------------------

 input vectors filename    = test1.mo
 input vectors geometry    = test1

         Rotation matrix
         ---------------
    0.913545    0.406737    0.000000
    0.406737   -0.913545    0.000000
    0.000000    0.000000   -1.000000

   -0.548127   -0.244042    0.000000
    0.548127    0.244042    0.000000
 det(rot)    1.00000000000000     
   Time after variat. SCF:      0.4
   Time prior to 1st pass:      0.4

 #quartets = 3.074D+03 #integrals = 6.110D+04 #direct =  0.0% #cached =100.0%


 Integral file          = ./vectors_rotate.aoints.0
 Record size in doubles =  65536        No. of integs per rec  =  43688
 Max. records in memory =      2        Max. records in file   =  26331
 No. of bits per label  =      8        No. of bits per value  =     64


File balance: exchanges=     0  moved=     0  time=   0.0


 Grid_pts file          = ./vectors_rotate.gridpts.0
 Record size in doubles =  12289        No. of grid_pts per rec  =   3070
 Max. records in memory =      5        Max. recs in file   =    140426


           Memory utilization after 1st SCF pass: 
           Heap Space remaining (MW):       12.91            12912945
          Stack Space remaining (MW):       13.11            13106941

   convergence    iter        energy       DeltaE   RMS-Dens  Diis-err    time
 ---------------- ----- ----------------- --------- --------- ---------  ------
 d= 0,ls=0.5,diis     1   -149.1973161278 -1.77D+02  1.55D-06  8.54D-09     0.4
 d= 0,ls=0.5,diis     2   -149.1973161287 -8.88D-10  3.27D-07  2.37D-10     0.4


         Total DFT energy =     -149.197316128700
      One electron energy =     -261.948005769241
           Coulomb energy =      100.433835072773
    Exchange-Corr. energy =      -15.905932045548
 Nuclear repulsion energy =       28.222786613317

 Numeric. integr. density =       16.000000028567

     Total iterative time =      0.1s



                       DFT Final Molecular Orbital Analysis
                       ------------------------------------

 Vector    1  Occ=2.000000D+00  E=-1.876913D+01
              MO Center= -2.5D-05, -1.1D-05,  1.6D-16, r^2= 3.8D-01
   Bfn.  Coefficient  Atom+Function         Bfn.  Coefficient  Atom+Function  
  ----- ------------  ---------------      ----- ------------  ---------------
     1      0.700877  1 O  s                 16      0.700845  2 O  s          

 Vector    2  Occ=2.000000D+00  E=-1.876912D+01
              MO Center=  2.5D-05,  1.1D-05,  2.5D-16, r^2= 3.8D-01
   Bfn.  Coefficient  Atom+Function         Bfn.  Coefficient  Atom+Function  
  ----- ------------  ---------------      ----- ------------  ---------------
    16     -0.700431  2 O  s                  1      0.700398  1 O  s          

 Vector    3  Occ=2.000000D+00  E=-1.191125D+00
              MO Center= -9.0D-11, -3.7D-11,  3.9D-13, r^2= 4.4D-01
   Bfn.  Coefficient  Atom+Function         Bfn.  Coefficient  Atom+Function  
  ----- ------------  ---------------      ----- ------------  ---------------
     2      0.344445  1 O  s                 17      0.344445  2 O  s          
    21      0.217545  2 O  s                  6      0.217545  1 O  s          
    18     -0.182280  2 O  px                 3      0.182280  1 O  px         
     1     -0.151083  1 O  s                 16     -0.151083  2 O  s          

 Vector    4  Occ=2.000000D+00  E=-7.036841D-01
              MO Center= -2.2D-10, -1.1D-10, -3.0D-13, r^2= 1.1D+00
   Bfn.  Coefficient  Atom+Function         Bfn.  Coefficient  Atom+Function  
  ----- ------------  ---------------      ----- ------------  ---------------
     6      0.483148  1 O  s                 21     -0.483148  2 O  s          
     2      0.382862  1 O  s                 17     -0.382862  2 O  s          
     1     -0.166447  1 O  s                 16      0.166447  2 O  s          

 Vector    5  Occ=2.000000D+00  E=-4.889866D-01
              MO Center= -8.2D-11, -1.2D-11, -3.7D-12, r^2= 8.2D-01
   Bfn.  Coefficient  Atom+Function         Bfn.  Coefficient  Atom+Function  
  ----- ------------  ---------------      ----- ------------  ---------------
     4     -0.418056  1 O  py                19     -0.418056  2 O  py         
     8     -0.234088  1 O  py                23     -0.234088  2 O  py         
     3      0.186130  1 O  px                18      0.186130  2 O  px         

 Vector    6  Occ=2.000000D+00  E=-4.776325D-01
              MO Center=  2.5D-10,  8.9D-11,  4.2D-12, r^2= 1.1D+00
   Bfn.  Coefficient  Atom+Function         Bfn.  Coefficient  Atom+Function  
  ----- ------------  ---------------      ----- ------------  ---------------
    18     -0.425514  2 O  px                 3      0.425514  1 O  px         
    21     -0.305643  2 O  s                  6     -0.305643  1 O  s          
     7      0.196354  1 O  px                22     -0.196354  2 O  px         
     4      0.189451  1 O  py                19     -0.189451  2 O  py         

 Vector    7  Occ=2.000000D+00  E=-4.430119D-01
              MO Center= -2.9D-10, -1.3D-10, -2.5D-13, r^2= 8.3D-01
   Bfn.  Coefficient  Atom+Function         Bfn.  Coefficient  Atom+Function  
  ----- ------------  ---------------      ----- ------------  ---------------
     5     -0.453208  1 O  pz                20     -0.453208  2 O  pz         
     9     -0.260589  1 O  pz                24     -0.260589  2 O  pz         

 Vector    8  Occ=2.000000D+00  E=-1.797413D-01
              MO Center=  2.9D-10,  1.3D-10, -3.3D-12, r^2= 9.5D-01
   Bfn.  Coefficient  Atom+Function         Bfn.  Coefficient  Atom+Function  
  ----- ------------  ---------------      ----- ------------  ---------------
    20      0.525309  2 O  pz                 5     -0.525309  1 O  pz         
    24      0.396769  2 O  pz                 9     -0.396769  1 O  pz         

 Vector    9  Occ=0.000000D+00  E=-2.257347D-01
              MO Center=  7.2D-11,  1.4D-11,  2.9D-12, r^2= 9.3D-01
   Bfn.  Coefficient  Atom+Function         Bfn.  Coefficient  Atom+Function  
  ----- ------------  ---------------      ----- ------------  ---------------
    19      0.485523  2 O  py                 4     -0.485523  1 O  py         
    23      0.353297  2 O  py                 8     -0.353297  1 O  py         
     3      0.216169  1 O  px                18     -0.216169  2 O  px         
     7      0.157298  1 O  px                22     -0.157298  2 O  px         

 Vector   10  Occ=0.000000D+00  E= 1.740567D-01
              MO Center= -5.3D-11,  3.7D-12,  7.4D-13, r^2= 1.1D+00
   Bfn.  Coefficient  Atom+Function         Bfn.  Coefficient  Atom+Function  
  ----- ------------  ---------------      ----- ------------  ---------------
    21      1.070909  2 O  s                  6     -1.070909  1 O  s          
     7     -0.898298  1 O  px                22     -0.898298  2 O  px         
    18     -0.496656  2 O  px                 3     -0.496656  1 O  px         
    23     -0.399948  2 O  py                 8     -0.399948  1 O  py         
     2     -0.248376  1 O  s                 17      0.248376  2 O  s          

 Vector   11  Occ=0.000000D+00  E= 6.292732D-01
              MO Center= -5.4D-09, -2.0D-09,  4.7D-13, r^2= 1.7D+00
   Bfn.  Coefficient  Atom+Function         Bfn.  Coefficient  Atom+Function  
  ----- ------------  ---------------      ----- ------------  ---------------
    21      1.375296  2 O  s                  6      1.375296  1 O  s          
     2     -0.922530  1 O  s                 17     -0.922530  2 O  s          
    10     -0.342581  1 O  dxx               25     -0.342581  2 O  dxx        
    13     -0.269598  1 O  dyy               28     -0.269598  2 O  dyy        
    15     -0.258389  1 O  dzz               30     -0.258389  2 O  dzz        

 Vector   12  Occ=0.000000D+00  E= 6.628489D-01
              MO Center=  4.0D-09,  2.1D-09,  6.8D-12, r^2= 2.6D+00
   Bfn.  Coefficient  Atom+Function         Bfn.  Coefficient  Atom+Function  
  ----- ------------  ---------------      ----- ------------  ---------------
     7     -1.364796  1 O  px                22     -1.364796  2 O  px         
     6     -0.727199  1 O  s                 21      0.727199  2 O  s          
    23     -0.607646  2 O  py                 8     -0.607646  1 O  py         
     3      0.485213  1 O  px                18      0.485213  2 O  px         
    25      0.303723  2 O  dxx               10     -0.303723  1 O  dxx        

 Vector   13  Occ=0.000000D+00  E= 7.198021D-01
              MO Center= -3.9D-10, -5.1D-10,  5.3D-11, r^2= 1.5D+00
   Bfn.  Coefficient  Atom+Function         Bfn.  Coefficient  Atom+Function  
  ----- ------------  ---------------      ----- ------------  ---------------
     4      0.590154  1 O  py                19      0.590154  2 O  py         
     8     -0.571316  1 O  py                23     -0.571316  2 O  py         
    18     -0.262754  2 O  px                 3     -0.262754  1 O  px         
     7      0.254366  1 O  px                22      0.254366  2 O  px         

 Vector   14  Occ=0.000000D+00  E= 7.503140D-01
              MO Center= -5.3D-10, -2.5D-10, -5.2D-11, r^2= 1.5D+00
   Bfn.  Coefficient  Atom+Function         Bfn.  Coefficient  Atom+Function  
  ----- ------------  ---------------      ----- ------------  ---------------
     5     -0.648147  1 O  pz                20     -0.648147  2 O  pz         
     9      0.623725  1 O  pz                24      0.623725  2 O  pz         

 Vector   15  Occ=0.000000D+00  E= 7.937954D-01
              MO Center=  1.1D-09,  4.8D-10, -1.1D-12, r^2= 2.0D+00
   Bfn.  Coefficient  Atom+Function         Bfn.  Coefficient  Atom+Function  
  ----- ------------  ---------------      ----- ------------  ---------------
     7      0.734690  1 O  px                22     -0.734690  2 O  px         
    18      0.493007  2 O  px                 3     -0.493007  1 O  px         
     8      0.327105  1 O  py                23     -0.327105  2 O  py         
    19      0.219501  2 O  py                 4     -0.219501  1 O  py         
    21     -0.210863  2 O  s                  6     -0.210863  1 O  s          

 Vector   16  Occ=0.000000D+00  E= 8.479485D-01
              MO Center=  8.6D-10, -5.6D-10,  1.5D-10, r^2= 1.9D+00
   Bfn.  Coefficient  Atom+Function         Bfn.  Coefficient  Atom+Function  
  ----- ------------  ---------------      ----- ------------  ---------------
    23     -0.968072  2 O  py                 8      0.968072  1 O  py         
    19      0.566837  2 O  py                 4     -0.566837  1 O  py         
     7     -0.431013  1 O  px                22      0.431013  2 O  px         
    18     -0.252372  2 O  px                 3      0.252372  1 O  px         
    24      0.182382  2 O  pz                 9     -0.182382  1 O  pz         

 Vector   17  Occ=0.000000D+00  E= 8.728611D-01
              MO Center=  5.4D-10,  2.1D-10, -1.9D-10, r^2= 1.9D+00
   Bfn.  Coefficient  Atom+Function         Bfn.  Coefficient  Atom+Function  
  ----- ------------  ---------------      ----- ------------  ---------------
    24      1.056424  2 O  pz                 9     -1.056424  1 O  pz         
    20     -0.625672  2 O  pz                 5      0.625672  1 O  pz         
    23      0.166102  2 O  py                 8     -0.166102  1 O  py         

 Vector   18  Occ=0.000000D+00  E= 1.238229D+00
              MO Center= -6.3D-11,  5.8D-10,  3.5D-11, r^2= 1.9D+00
   Bfn.  Coefficient  Atom+Function         Bfn.  Coefficient  Atom+Function  
  ----- ------------  ---------------      ----- ------------  ---------------
     6      4.942756  1 O  s                 21     -4.942756  2 O  s          
    22      2.160167  2 O  px                 7      2.160167  1 O  px         
     2     -1.273354  1 O  s                 17      1.273354  2 O  s          
     8      0.961769  1 O  py                23      0.961769  2 O  py         
    15     -0.330003  1 O  dzz               30      0.330003  2 O  dzz        


 center of mass
 --------------
 x =   0.00000000 y =   0.00000000 z =   0.00000000

 moments of inertia (a.u.)
 ------------------
           6.803596806171         -15.281128621476           0.000000000000
         -15.281128621476          34.321976830596           0.000000000000
           0.000000000000           0.000000000000          41.125573636767

     Multipole analysis of the density
     ---------------------------------

     L   x y z        total         alpha         beta         nuclear
     -   - - -        -----         -----         ----         -------
     0   0 0 0      0.000000     -8.000000     -8.000000     16.000000

     1   1 0 0      0.000000      0.000000      0.000000      0.000000
     1   0 1 0      0.000000      0.000000      0.000000      0.000000
     1   0 0 1      0.000000      0.000000      0.000000      0.000000

     2   2 0 0     -7.540963    -12.353706    -12.353706     17.166449
     2   1 1 0     -0.374849     -4.008922     -4.008922      7.642996
     2   1 0 1      0.090616      0.045308      0.045308      0.000000
     2   0 2 0     -6.865932     -5.134407     -5.134407      3.402881
     2   0 1 1     -0.203526     -0.101763     -0.101763      0.000000
     2   0 0 2     -7.955144     -3.977572     -3.977572      0.000000


 Parallel integral file used       4 records with       0 large values


 Task  times  cpu:        0.1s     wall:        0.2s
 Summary of allocated global arrays
-----------------------------------
  No active global arrays



                         GA Statistics for process    0
                         ------------------------------

       create   destroy   get      put      acc     scatter   gather  read&inc
calls:  207      207     1909      650      362        0        0      183     
number of processes/call 1.42e+00 1.28e+00 1.00e+00 0.00e+00 0.00e+00
bytes total:             2.65e+06 6.16e+05 6.52e+05 0.00e+00 0.00e+00 1.46e+03
bytes remote:            1.47e+06 2.71e+05 4.28e+05 0.00e+00 0.00e+00 0.00e+00
Max memory consumed for GA by this process: 85560 bytes
MA_summarize_allocated_blocks: starting scan ...
MA_summarize_allocated_blocks: scan completed: 0 heap blocks, 0 stack blocks
MA usage statistics:

	allocation statistics:
					      heap	     stack
					      ----	     -----
	current number of blocks	         0	         0
	maximum number of blocks	        23	        46
	current total bytes		         0	         0
	maximum total bytes		   1553552	  22510648
	maximum total K-bytes		      1554	     22511
	maximum total M-bytes		         2	        23


                                NWChem Input Module
                                -------------------





                                     CITATION
                                     --------
                Please cite the following reference when publishing
                           results obtained with NWChem:

                 M. Valiev, E.J. Bylaska, N. Govind, K. Kowalski,
              T.P. Straatsma, H.J.J. van Dam, D. Wang, J. Nieplocha,
                        E. Apra, T.L. Windus, W.A. de Jong
                 "NWChem: a comprehensive and scalable open-source
                  solution for large scale molecular simulations"
                      Comput. Phys. Commun. 181, 1477 (2010)
                           doi:10.1016/j.cpc.2010.04.018

                              AUTHORS & CONTRIBUTORS
                              ----------------------
      E. J. Bylaska, W. A. de Jong, N. Govind, K. Kowalski, T. P. Straatsma,
     M. Valiev, H. J. J. Van Dam, D. Wang, E. Apra, T. L. Windus, J. Hammond,
     J. Autschbach, P. Nichols, S. Hirata, M. T. Hackler, Y. Zhao, P.-D. Fan,
      R. J. Harrison, M. Dupuis, D. M. A. Smith, J. Nieplocha, V. Tipparaju,
          M. Krishnan, A. Vazquez-Mayagoitia, L. Jensen, M. Swart, Q. Wu,
          T. Van Voorhis, A. A. Auer, M. Nooijen, L. D. Crosby, E. Brown,
             G. Cisneros, G. I. Fann, H. Fruchtl, J. Garza, K. Hirao,
        R. Kendall, J. A. Nichols, K. Tsemekhman, K. Wolinski, J. Anchell,
       D. Bernholdt, P. Borowski, T. Clark, D. Clerc, H. Dachsel, M. Deegan,
        K. Dyall, D. Elwood, E. Glendening, M. Gutowski, A. Hess, J. Jaffe,
        B. Johnson, J. Ju, R. Kobayashi, R. Kutteh, Z. Lin, R. Littlefield,
    X. Long, B. Meng, T. Nakajima, S. Niu, L. Pollack, M. Rosing, G. Sandrone,
       M. Stave, H. Taylor, G. Thomas, J. H. van Lenthe, A. Wong, Z. Zhang.

 Total times  cpu:        0.5s     wall:        0.7s
