<l0>
 Entering Gaussian System, Link 0=/usr/local/sys/Gaussian03/bin/g03
 Input=6-31G/f-15_p-15.com
 Output=6-31G/f-15_p-15.log
 Initial command:
 /usr/local/sys/Gaussian03/exe/l1.exe /local/pnique/Gau-8851.inp -scrdir=/local/pnique/
 </l0>
 <l1>
 Entering Link 1 = /usr/local/sys/Gaussian03/exe/l1.exe PID=      8852.
  
 Copyright (c) 1988,1990,1992,1993,1995,1998,2003,2004, Gaussian, Inc.
                  All Rights Reserved.
  
 This is the Gaussian(R) 03 program.  It is based on the
 the Gaussian(R) 98 system (copyright 1998, Gaussian, Inc.),
 the Gaussian(R) 94 system (copyright 1995, Gaussian, Inc.),
 the Gaussian 92(TM) system (copyright 1992, Gaussian, Inc.),
 the Gaussian 90(TM) system (copyright 1990, Gaussian, Inc.),
 the Gaussian 88(TM) system (copyright 1988, Gaussian, Inc.),
 the Gaussian 86(TM) system (copyright 1986, Carnegie Mellon
 University), and the Gaussian 82(TM) system (copyright 1983,
 Carnegie Mellon University). Gaussian is a federally registered
 trademark of Gaussian, Inc.
  
 This software contains proprietary and confidential information,
 including trade secrets, belonging to Gaussian, Inc.
  
 This software is provided under written license and may be
 used, copied, transmitted, or stored only in accord with that
 written license.
  
 The following legend is applicable only to US Government
 contracts under FAR:
  
                    RESTRICTED RIGHTS LEGEND
  
 Use, reproduction and disclosure by the US Government is
 subject to restrictions as set forth in subparagraphs (a)
 and (c) of the Commercial Computer Software - Restricted
 Rights clause in FAR 52.227-19.
  
 Gaussian, Inc.
 340 Quinnipiac St., Bldg. 40, Wallingford CT 06492
  
  
 ---------------------------------------------------------------
 Warning -- This program may not be used in any manner that
 competes with the business of Gaussian, Inc. or will provide
 assistance to any competitor of Gaussian, Inc.  The licensee
 of this program is prohibited from giving any competitor of
 Gaussian, Inc. access to this program.  By using this program,
 the user acknowledges that Gaussian, Inc. is engaged in the
 business of creating and licensing software in the field of
 computational chemistry and represents and warrants to the
 licensee that it is not a competitor of Gaussian, Inc. and that
 it will not use this program in any manner prohibited above.
 ---------------------------------------------------------------
  

 Cite this work as:
 Gaussian 03, Revision C.02,
 M. J. Frisch, G. W. Trucks, H. B. Schlegel, G. E. Scuseria, 
 M. A. Robb, J. R. Cheeseman, J. A. Montgomery, Jr., T. Vreven, 
 K. N. Kudin, J. C. Burant, J. M. Millam, S. S. Iyengar, J. Tomasi, 
 V. Barone, B. Mennucci, M. Cossi, G. Scalmani, N. Rega, 
 G. A. Petersson, H. Nakatsuji, M. Hada, M. Ehara, K. Toyota, 
 R. Fukuda, J. Hasegawa, M. Ishida, T. Nakajima, Y. Honda, O. Kitao, 
 H. Nakai, M. Klene, X. Li, J. E. Knox, H. P. Hratchian, J. B. Cross, 
 C. Adamo, J. Jaramillo, R. Gomperts, R. E. Stratmann, O. Yazyev, 
 A. J. Austin, R. Cammi, C. Pomelli, J. W. Ochterski, P. Y. Ayala, 
 K. Morokuma, G. A. Voth, P. Salvador, J. J. Dannenberg, 
 V. G. Zakrzewski, S. Dapprich, A. D. Daniels, M. C. Strain, 
 O. Farkas, D. K. Malick, A. D. Rabuck, K. Raghavachari, 
 J. B. Foresman, J. V. Ortiz, Q. Cui, A. G. Baboul, S. Clifford, 
 J. Cioslowski, B. B. Stefanov, G. Liu, A. Liashenko, P. Piskorz, 
 I. Komaromi, R. L. Martin, D. J. Fox, T. Keith, M. A. Al-Laham, 
 C. Y. Peng, A. Nanayakkara, M. Challacombe, P. M. W. Gill, 
 B. Johnson, W. Chen, M. W. Wong, C. Gonzalez, and J. A. Pople, 
 Gaussian, Inc., Wallingford CT, 2004.
 
 ******************************************
 Gaussian 03:  IA32L-G03RevC.02 12-Jun-2004
                 2-Jul-2006 
 ******************************************
 %Mem=900MB
 ----------------------------------------------------------------------
 # MP2/6-31G 5D 7F SCF=(Conver=10) Opt=Z-matrix IOp(1/7=100) # TrackIO 
 GFInput MaxDisk=16GB
 ----------------------------------------------------------------------
 1/1=2048,7=100,10=7,18=40,38=1/1,3;
 2/1=2048,17=6,18=5,29=3,40=1/2;
 3/1=2048,5=1,6=6,8=11,11=9,16=1,24=10,25=1,30=1/1,2,3;
 4/1=2048/1;
 5/1=2048,5=2,6=10,38=5/2;
 8/1=2048,6=4,10=2,27=-          /1;
 9/1=2048,15=2,16=-3,27=-          /6;
 10/1=2048,5=1/2;
 6/1=2048,7=2,8=2,9=2,10=2/1;
 7/1=2048,12=2,29=1/1,2,3,16;
 1/1=2048,7=100,10=7,18=40/3(1);
 99/1=2048/99;
 2/1=2048,29=3/2;
 3/1=2048,5=1,6=6,8=11,11=9,16=1,25=1,30=1/1,2,3;
 4/1=2048,5=5,16=3/1;
 5/1=2048,5=2,6=10,38=5/2;
 8/1=2048,6=4,10=2,27=-          /1;
 9/1=2048,15=2,16=-3,27=-          /6;
 10/1=2048,5=1/2;
 7/1=2048,12=2/1,2,3,16;
 1/1=2048,7=100,18=40/3(-8);
 2/1=2048,29=3/2;
 6/1=2048,7=2,8=2,9=2,10=2/1;
 99/1=2048/99;
 </l1>
 <l101>
 -------------
 HCO-L-Ala-NH2
 -------------
 Symbolic Z-matrix:
 Charge =  0 Multiplicity = 1
 H1
 C2                   1    rC2H1
 N3                   2    rN3C2    1    aN3C2H1
 O4                   2    rO4C2    3    aO4C2N3  1    pO4C2N3H1 0
 C5                   3    rC5N3    2    aC5N3C2  1    dC5N3C2H1 0
 H6                   3    rH6N3    2    aH6N3C2  5    pH6N3C2C5 0
 C7                   5    rC7C5    3    aC7C5N3  2    dC7C5N3C2 0
 C8                   5    rC8C5    3    aC8C5N3  7    pC8C5N3C7 0
 H9                   5    rH9C5    3    aH9C5N3  7    pH9C5N3C7 0
 H10                  8    rH10C8   5    aH10C8C5 3    dH10C8C5N3 0
 H11                  8    rH11C8   5    aH11C8C5 10   pH11C8C5H10 0
 H12                  8    rH12C8   5    aH12C8C5 10   pH12C8C5H10 0
 N13                  7    rN13C7   5    aN13C7C5 3    dN13C7C5N3 0
 O14                  7    rO14C7   5    aO14C7C5 13   pO14C7C5N13 0
 H15                  13   rH15N13  7    aH15N13C7 5    dH15N13C7C5 0
 H16                  13   rH16N13  7    aH16N13C7 15   pH16N13C7H15 0
       Variables:
  rC2H1                 1.08154                  
  rN3C2                 1.34368                  
  rO4C2                 1.227                    
  rC5N3                 1.47714                  
  rH6N3                 0.99461                  
  rC7C5                 1.53219                  
  rC8C5                 1.5389                   
  rH9C5                 1.08267                  
  rH10C8                1.08284                  
  rH11C8                1.07857                  
  rH12C8                1.08468                  
  rN13C7                1.33652                  
  rO14C7                1.23359                  
  rH15N13               0.99347                  
  rH16N13               0.99624                  
  aN3C2H1             112.34524                  
  aO4C2N3             127.95263                  
  aC5N3C2             135.28408                  
  aH6N3C2             113.62199                  
  aC7C5N3             122.52254                  
  aC8C5N3             107.53801                  
  aH9C5N3             106.92809                  
  aH10C8C5            110.41382                  
  aH11C8C5            109.69027                  
  aH12C8C5            110.40458                  
  aN13C7C5            122.84249                  
  aO14C7C5            114.60352                  
  aH15N13C7           116.3928                   
  aH16N13C7           122.18234                  
  pO4C2N3H1          -179.42829                  
  dC5N3C2H1          -175.60914                  
  pH6N3C2C5           176.87081                  
  pC8C5N3C7          -124.95906                  
  pH9C5N3C7           118.81175                  
  dH10C8C5N3           65.81355                  
  pH11C8C5H10         120.46321                  
  pH12C8C5H10        -120.06204                  
  pO14C7C5N13        -175.35043                  
  dH15N13C7C5        -176.09432                  
  pH16N13C7H15       -162.02357                  
       Constants:
  dC7C5N3C2           -15.                       
  dN13C7C5N3          -15.                       
 
<missing>
                    Isotopes and Nuclear Properties:
 (Nuclear quadrupole moments (NQMom) in fm**2, nuclear magnetic moments (NMagM)
  in nuclear magnetons)

  Atom         1           2           3           4           5           6           7           8           9          10
 IAtWgt=           1          12          14          16          12           1          12          12           1           1
 AtmWgt=   1.0078250  12.0000000  14.0030740  15.9949146  12.0000000   1.0078250  12.0000000  12.0000000   1.0078250   1.0078250
 NucSpn=           1           0           2           0           0           1           0           0           1           1
 AtZEff=   0.0000000   0.0000000   0.0000000   0.0000000   0.0000000   0.0000000   0.0000000   0.0000000   0.0000000   0.0000000
 NQMom=    0.0000000   0.0000000   2.0440000   0.0000000   0.0000000   0.0000000   0.0000000   0.0000000   0.0000000   0.0000000
 NMagM=    2.7928460   0.0000000   0.4037610   0.0000000   0.0000000   2.7928460   0.0000000   0.0000000   2.7928460   2.7928460

</missing>
</l101>
<l103>
 GradGradGradGradGradGradGradGradGradGradGradGradGradGradGradGradGradGrad
 Berny optimization.
 Initialization pass.
                       ----------------------------
                       !    Initial Parameters    !
                       ! (Angstroms and Degrees)  !
 ----------------------                            ----------------------
 !      Name          Value   Derivative information (Atomic Units)     !
 ------------------------------------------------------------------------
 !      rC2H1        1.0815   estimate D2E/DX2                          !
 !      rN3C2        1.3437   estimate D2E/DX2                          !
 !      rO4C2        1.227    estimate D2E/DX2                          !
 !      rC5N3        1.4771   estimate D2E/DX2                          !
 !      rH6N3        0.9946   estimate D2E/DX2                          !
 !      rC7C5        1.5322   estimate D2E/DX2                          !
 !      rC8C5        1.5389   estimate D2E/DX2                          !
 !      rH9C5        1.0827   estimate D2E/DX2                          !
 !     rH10C8        1.0828   estimate D2E/DX2                          !
 !     rH11C8        1.0786   estimate D2E/DX2                          !
 !     rH12C8        1.0847   estimate D2E/DX2                          !
 !     rN13C7        1.3365   estimate D2E/DX2                          !
 !     rO14C7        1.2336   estimate D2E/DX2                          !
 !     rH15N13       0.9935   estimate D2E/DX2                          !
 !     rH16N13       0.9962   estimate D2E/DX2                          !
 !     aN3C2H1     112.3452   estimate D2E/DX2                          !
 !     aO4C2N3     127.9526   estimate D2E/DX2                          !
 !     aC5N3C2     135.2841   estimate D2E/DX2                          !
 !     aH6N3C2     113.622    estimate D2E/DX2                          !
 !     aC7C5N3     122.5225   estimate D2E/DX2                          !
 !     aC8C5N3     107.538    estimate D2E/DX2                          !
 !     aH9C5N3     106.9281   estimate D2E/DX2                          !
 !    aH10C8C5     110.4138   estimate D2E/DX2                          !
 !    aH11C8C5     109.6903   estimate D2E/DX2                          !
 !    aH12C8C5     110.4046   estimate D2E/DX2                          !
 !    aN13C7C5     122.8425   estimate D2E/DX2                          !
 !    aO14C7C5     114.6035   estimate D2E/DX2                          !
 !    aH15N13C7    116.3928   estimate D2E/DX2                          !
 !    aH16N13C7    122.1823   estimate D2E/DX2                          !
 !    pO4C2N3H1   -179.4283   estimate D2E/DX2                          !
 !    dC5N3C2H1   -175.6091   estimate D2E/DX2                          !
 !    pH6N3C2C5    176.8708   estimate D2E/DX2                          !
 !    pC8C5N3C7   -124.9591   estimate D2E/DX2                          !
 !    pH9C5N3C7    118.8118   estimate D2E/DX2                          !
 !   dH10C8C5N3     65.8136   estimate D2E/DX2                          !
 !   pH11C8C5H10   120.4632   estimate D2E/DX2                          !
 !   pH12C8C5H10  -120.062    estimate D2E/DX2                          !
 !   pO14C7C5N13  -175.3504   estimate D2E/DX2                          !
 !   dH15N13C7C5  -176.0943   estimate D2E/DX2                          !
 !  pH16N13C7H15  -162.0236   estimate D2E/DX2                          !
 !    dC7C5N3C2    -15.0      Frozen                                    !
 !   dN13C7C5N3    -15.0      Frozen                                    !
 ------------------------------------------------------------------------
 Trust Radius=3.00D-01 FncErr=1.00D-07 GrdErr=1.00D-07
 Number of steps in this run=  52 maximum allowed number of steps= 100.
 GradGradGradGradGradGradGradGradGradGradGradGradGradGradGradGradGradGrad

</l103>
<l???>
 ------------------------------------------------------------------------
                         Z-MATRIX (ANGSTROMS AND DEGREES)
 CD Cent Atom  N1     Length/X     N2    Alpha/Y     N3     Beta/Z      J
 ------------------------------------------------------------------------
   1   1  H 
   2   2  C     1   1.081536(  1)
   3   3  N     2   1.343678(  2)   1  112.345( 16)
   4   4  O     2   1.226996(  3)   3  127.953( 17)   1 -179.428( 30)   0
   5   5  C     3   1.477144(  4)   2  135.284( 18)   1 -175.609( 31)   0
   6   6  H     3   0.994610(  5)   2  113.622( 19)   5  176.871( 32)   0
   7   7  C     5   1.532185(  6)   3  122.523( 20)   2  -15.000( 33)   0
   8   8  C     5   1.538903(  7)   3  107.538( 21)   7 -124.959( 34)   0
   9   9  H     5   1.082665(  8)   3  106.928( 22)   7  118.812( 35)   0
  10  10  H     8   1.082837(  9)   5  110.414( 23)   3   65.814( 36)   0
  11  11  H     8   1.078567( 10)   5  109.690( 24)  10  120.463( 37)   0
  12  12  H     8   1.084681( 11)   5  110.405( 25)  10 -120.062( 38)   0
  13  13  N     7   1.336520( 12)   5  122.842( 26)   3  -15.000( 39)   0
  14  14  O     7   1.233592( 13)   5  114.604( 27)  13 -175.350( 40)   0
  15  15  H    13   0.993467( 14)   7  116.393( 28)   5 -176.094( 41)   0
  16  16  H    13   0.996241( 15)   7  122.182( 29)  15 -162.024( 42)   0
 ------------------------------------------------------------------------
                         Z-Matrix orientation:                         
 ---------------------------------------------------------------------
 Center     Atomic     Atomic              Coordinates (Angstroms)
 Number     Number      Type              X           Y           Z
 ---------------------------------------------------------------------
    1          1             0        0.000000    0.000000    0.000000
    2          6             0        0.000000    0.000000    1.081536
    3          7             0        1.242781    0.000000    1.592385
    4          8             0       -1.065766    0.009654    1.689457
    5          6             0        1.819656   -0.079569    2.949897
    6          1             0        1.957765    0.020065    0.901266
    7          6             0        0.983409    0.141557    4.214565
    8          6             0        3.006950    0.897808    3.007242
    9          1             0        2.199563   -1.085952    3.072490
   10          1             0        2.660804    1.918885    2.906633
   11          1             0        3.522832    0.788121    3.948061
   12          1             0        3.707037    0.689852    2.205267
   13          7             0       -0.230985    0.699262    4.192210
   14          8             0        1.555777   -0.153256    5.266814
   15          1             0       -0.663247    0.851672    5.073628
   16          1             0       -0.793473    0.713094    3.370072
 ---------------------------------------------------------------------
                    Distance matrix (angstroms):
                    1          2          3          4          5
     1  H    0.000000
     2  C    1.081536   0.000000
     3  N    2.019949   1.343678   0.000000
     4  O    1.997553   1.226996   2.310607   0.000000
     5  C    3.466896   2.609262   1.477144   3.149973   0.000000
     6  H    2.155348   1.966149   0.994610   3.124595   2.055698
     7  C    4.330092   3.286792   2.638777   3.254641   1.532185
     8  C    4.346414   3.681868   2.433141   4.371772   1.538903
     9  H    3.931610   3.159313   2.070129   3.711536   1.082665
    10  H    4.382980   3.754061   2.723996   4.360505   2.168691
    11  H    5.349642   4.609603   3.371791   5.173252   2.156392
    12  H    4.368206   3.934563   2.631364   4.848544   2.169952
    13  N    4.256401   3.196657   3.069210   2.726938   2.520922
    14  O    5.493930   4.467716   3.690920   4.438075   2.333060
    15  H    5.187190   4.135461   4.059229   3.510502   3.397388
    16  H    3.534896   2.524975   2.795533   1.842129   2.762843
                    6          7          8          9         10
     6  H    0.000000
     7  C    3.455732   0.000000
     8  C    2.511247   2.474725   0.000000
     9  H    2.448663   2.071266   2.142764   0.000000
    10  H    2.849786   2.771865   1.082837   3.044552   0.000000
    11  H    3.510315   2.633959   1.078567   2.455568   1.762467
    12  H    2.282320   3.428711   1.084681   2.485565   1.759841
    13  N    4.010268   1.336520   3.453664   3.216881   3.391553
    14  O    4.387442   1.233592   2.883801   2.469705   3.329460
    15  H    4.996987   1.988398   4.212176   3.994323   4.109030
    16  H    3.760931   2.048690   3.822170   3.504766   3.687918
                   11         12         13         14         15
    11  H    0.000000
    12  H    1.755256   0.000000
    13  N    3.762797   4.410901   0.000000
    14  O    2.548451   3.835600   2.252571   0.000000
    15  H    4.335227   5.230016   0.993467   2.443618   0.000000
    16  H    4.355478   4.648860   0.996241   3.141205   1.714137
                   16
    16  H    0.000000
                           Interatomic angles:
       H1-C2-N3=112.3452       H1-C2-O4=119.6997       N3-C2-O4=127.9526
       C2-N3-C5=135.2841       C2-N3-H6=113.622        C5-N3-H6=111.0349
       N3-C5-C7=122.5225       N3-C5-C8=107.538        C7-C5-C8=107.3776
       N3-C5-H9=106.9281       C7-C5-H9=103.427        C8-C5-H9=108.3861
      C5-C8-H10=110.4138      C5-C8-H11=109.6903     H10-C8-H11=109.2591
      C5-C8-H12=110.4046     H10-C8-H12=108.5669     H11-C8-H12=108.4653
      C5-C7-N13=122.8425      C5-C7-O14=114.6035     N13-C7-O14=122.3833
     C7-N13-H15=116.3928     C7-N13-H16=122.1823    H15-N13-H16=118.9712
     </l????
     <l202>
     <missing>
                          Input orientation:                          
 ---------------------------------------------------------------------
 Center     Atomic     Atomic              Coordinates (Angstroms)
 Number     Number      Type              X           Y           Z
 ---------------------------------------------------------------------
    1          1             0        2.673167   -0.694356    1.176039
    2          6             0        1.989614   -0.338797    0.407458
...
   16          1             0        0.631638    1.777215   -0.581971
 ---------------------------------------------------------------------
                    Distance matrix (angstroms):
                    1          2          3          4          5
     1  H    0.000000
     2  C    1.088294   0.000000
     ...
    16  H    4.343366   4.672133   0.992403   3.107543   1.709302
                   16
    16  H    0.000000
</missing>     
 Stoichiometry    C4H8N2O2
 Framework group  C1[X(C4H8N2O2)]
 Deg. of freedom    42
 Full point group                 C1      NOp   1
 Largest Abelian subgroup         C1      NOp   1
 Largest concise Abelian subgroup C1      NOp   1
                         Standard orientation:                         
 ---------------------------------------------------------------------
 Center     Atomic     Atomic              Coordinates (Angstroms)
 Number     Number      Type              X           Y           Z
 ---------------------------------------------------------------------
    1          1             0       -3.004390    0.907942   -0.042084
    2          6             0       -2.114020    0.295280   -0.082179
    3          7             0       -0.993069    1.029184   -0.183798
    4          8             0       -2.213530   -0.926298   -0.024186
    5          6             0        0.444180    0.732482   -0.351841
    6          1             0       -1.157717    2.010070   -0.185736
    7          6             0        1.029110   -0.664980   -0.122607
    8          6             0        1.227183    1.710707    0.541583
    9          1             0        0.690562    0.941753   -1.385120
   10          1             0        1.018929    1.517278    1.586452
   11          1             0        2.284964    1.598810    0.363015
   12          1             0        0.947325    2.734399    0.317386
   13          7             0        0.364350   -1.633335    0.515099
   14          8             0        2.197831   -0.799759   -0.493651
   15          1             0        0.856758   -2.483388    0.663148
   16          1             0       -0.628531   -1.630290    0.596791
 ---------------------------------------------------------------------
 Rotational constants (GHZ):      2.9776868      1.7058317      1.1800146
 </l202>
 <l301>
 Standard basis: 6-31G (5D, 7F)
 AO basis set in the form of general basis input:
  1 0
 S   3 1.00       0.000000000000
      0.1873113696D+02  0.3349460434D-01
      0.2825394365D+01  0.2347269535D+00
      0.6401216923D+00  0.8137573261D+00
 S   1 1.00       0.000000000000
      0.1612777588D+00  0.1000000000D+01
 ****
  2 0
 S   6 1.00       0.000000000000
      0.3047524880D+04  0.1834737132D-02
      0.4573695180D+03  0.1403732281D-01
      0.1039486850D+03  0.6884262226D-01
      0.2921015530D+02  0.2321844432D+00
      0.9286662960D+01  0.4679413484D+00
      0.3163926960D+01  0.3623119853D+00
 SP   3 1.00       0.000000000000
      0.7868272350D+01 -0.1193324198D+00  0.6899906659D-01
      0.1881288540D+01 -0.1608541517D+00  0.3164239610D+00
      0.5442492580D+00  0.1143456438D+01  0.7443082909D+00
 SP   1 1.00       0.000000000000
      0.1687144782D+00  0.1000000000D+01  0.1000000000D+01
 ****
  3 0
 S   6 1.00       0.000000000000
      0.4173511460D+04  0.1834772160D-02
      0.6274579110D+03  0.1399462700D-01
      0.1429020930D+03  0.6858655181D-01
      0.4023432930D+02  0.2322408730D+00
      0.1282021290D+02  0.4690699481D+00
      0.4390437010D+01  0.3604551991D+00
 SP   3 1.00       0.000000000000
      0.1162636186D+02 -0.1149611817D+00  0.6757974388D-01
      0.2716279807D+01 -0.1691174786D+00  0.3239072959D+00
      0.7722183966D+00  0.1145851947D+01  0.7408951398D+00
 SP   1 1.00       0.000000000000
      0.2120314975D+00  0.1000000000D+01  0.1000000000D+01
 ****
  4 0
 S   6 1.00       0.000000000000
      0.5484671660D+04  0.1831074430D-02
      0.8252349460D+03  0.1395017220D-01
      0.1880469580D+03  0.6844507810D-01
      0.5296450000D+02  0.2327143360D+00
      0.1689757040D+02  0.4701928980D+00
      0.5799635340D+01  0.3585208530D+00
 SP   3 1.00       0.000000000000
      0.1553961625D+02 -0.1107775495D+00  0.7087426823D-01
      0.3599933586D+01 -0.1480262627D+00  0.3397528391D+00
      0.1013761750D+01  0.1130767015D+01  0.7271585773D+00
 SP   1 1.00       0.000000000000
      0.2700058226D+00  0.1000000000D+01  0.1000000000D+01
 ****
  5 0
 S   6 1.00       0.000000000000
      0.3047524880D+04  0.1834737132D-02
      0.4573695180D+03  0.1403732281D-01
      0.1039486850D+03  0.6884262226D-01
      0.2921015530D+02  0.2321844432D+00
      0.9286662960D+01  0.4679413484D+00
      0.3163926960D+01  0.3623119853D+00
 SP   3 1.00       0.000000000000
      0.7868272350D+01 -0.1193324198D+00  0.6899906659D-01
      0.1881288540D+01 -0.1608541517D+00  0.3164239610D+00
      0.5442492580D+00  0.1143456438D+01  0.7443082909D+00
 SP   1 1.00       0.000000000000
      0.1687144782D+00  0.1000000000D+01  0.1000000000D+01
 ****
  6 0
 S   3 1.00       0.000000000000
      0.1873113696D+02  0.3349460434D-01
      0.2825394365D+01  0.2347269535D+00
      0.6401216923D+00  0.8137573261D+00
 S   1 1.00       0.000000000000
      0.1612777588D+00  0.1000000000D+01
 ****
  7 0
 S   6 1.00       0.000000000000
      0.3047524880D+04  0.1834737132D-02
      0.4573695180D+03  0.1403732281D-01
      0.1039486850D+03  0.6884262226D-01
      0.2921015530D+02  0.2321844432D+00
      0.9286662960D+01  0.4679413484D+00
      0.3163926960D+01  0.3623119853D+00
 SP   3 1.00       0.000000000000
      0.7868272350D+01 -0.1193324198D+00  0.6899906659D-01
      0.1881288540D+01 -0.1608541517D+00  0.3164239610D+00
      0.5442492580D+00  0.1143456438D+01  0.7443082909D+00
 SP   1 1.00       0.000000000000
      0.1687144782D+00  0.1000000000D+01  0.1000000000D+01
 ****
  8 0
 S   6 1.00       0.000000000000
      0.3047524880D+04  0.1834737132D-02
      0.4573695180D+03  0.1403732281D-01
      0.1039486850D+03  0.6884262226D-01
      0.2921015530D+02  0.2321844432D+00
      0.9286662960D+01  0.4679413484D+00
      0.3163926960D+01  0.3623119853D+00
 SP   3 1.00       0.000000000000
      0.7868272350D+01 -0.1193324198D+00  0.6899906659D-01
      0.1881288540D+01 -0.1608541517D+00  0.3164239610D+00
      0.5442492580D+00  0.1143456438D+01  0.7443082909D+00
 SP   1 1.00       0.000000000000
      0.1687144782D+00  0.1000000000D+01  0.1000000000D+01
 ****
  9 0
 S   3 1.00       0.000000000000
      0.1873113696D+02  0.3349460434D-01
      0.2825394365D+01  0.2347269535D+00
      0.6401216923D+00  0.8137573261D+00
 S   1 1.00       0.000000000000
      0.1612777588D+00  0.1000000000D+01
 ****
 10 0
 S   3 1.00       0.000000000000
      0.1873113696D+02  0.3349460434D-01
      0.2825394365D+01  0.2347269535D+00
      0.6401216923D+00  0.8137573261D+00
 S   1 1.00       0.000000000000
      0.1612777588D+00  0.1000000000D+01
 ****
 11 0
 S   3 1.00       0.000000000000
      0.1873113696D+02  0.3349460434D-01
      0.2825394365D+01  0.2347269535D+00
      0.6401216923D+00  0.8137573261D+00
 S   1 1.00       0.000000000000
      0.1612777588D+00  0.1000000000D+01
 ****
 12 0
 S   3 1.00       0.000000000000
      0.1873113696D+02  0.3349460434D-01
      0.2825394365D+01  0.2347269535D+00
      0.6401216923D+00  0.8137573261D+00
 S   1 1.00       0.000000000000
      0.1612777588D+00  0.1000000000D+01
 ****
 13 0
 S   6 1.00       0.000000000000
      0.4173511460D+04  0.1834772160D-02
      0.6274579110D+03  0.1399462700D-01
      0.1429020930D+03  0.6858655181D-01
      0.4023432930D+02  0.2322408730D+00
      0.1282021290D+02  0.4690699481D+00
      0.4390437010D+01  0.3604551991D+00
 SP   3 1.00       0.000000000000
      0.1162636186D+02 -0.1149611817D+00  0.6757974388D-01
      0.2716279807D+01 -0.1691174786D+00  0.3239072959D+00
      0.7722183966D+00  0.1145851947D+01  0.7408951398D+00
 SP   1 1.00       0.000000000000
      0.2120314975D+00  0.1000000000D+01  0.1000000000D+01
 ****
 14 0
 S   6 1.00       0.000000000000
      0.5484671660D+04  0.1831074430D-02
      0.8252349460D+03  0.1395017220D-01
      0.1880469580D+03  0.6844507810D-01
      0.5296450000D+02  0.2327143360D+00
      0.1689757040D+02  0.4701928980D+00
      0.5799635340D+01  0.3585208530D+00
 SP   3 1.00       0.000000000000
      0.1553961625D+02 -0.1107775495D+00  0.7087426823D-01
      0.3599933586D+01 -0.1480262627D+00  0.3397528391D+00
      0.1013761750D+01  0.1130767015D+01  0.7271585773D+00
 SP   1 1.00       0.000000000000
      0.2700058226D+00  0.1000000000D+01  0.1000000000D+01
 ****
 15 0
 S   3 1.00       0.000000000000
      0.1873113696D+02  0.3349460434D-01
      0.2825394365D+01  0.2347269535D+00
      0.6401216923D+00  0.8137573261D+00
 S   1 1.00       0.000000000000
      0.1612777588D+00  0.1000000000D+01
 ****
 16 0
 S   3 1.00       0.000000000000
      0.1873113696D+02  0.3349460434D-01
      0.2825394365D+01  0.2347269535D+00
      0.6401216923D+00  0.8137573261D+00
 S   1 1.00       0.000000000000
      0.1612777588D+00  0.1000000000D+01
 ****

 There are    88 symmetry adapted basis functions of A   symmetry.
 Integral buffers will be    262144 words long.
 Raffenetti 1 integral format.
 Two-electron integral symmetry is turned on.
    88 basis functions,   208 primitive gaussians,    88 cartesian basis functions
    31 alpha electrons       31 beta electrons
       nuclear repulsion energy       386.2766400798 Hartrees.
 NAtoms=   16 NActive=   16 NUniq=   16 SFac= 1.00D+00 NAtFMM=   60 Big=F
 </l301>
 <l302>
 <missing>
 NPDir=0 NMtPBC=     1 NCelOv=     1 NCel=       1 NClECP=     1 NCelD=      1
         NCelK=      1 NCelE2=     1 NClLst=     1 CellRange=     0.0.
 </missing>
 One-electron integrals computed using PRISM.
 NBasis=    88 RedAO= T  NBF=    88
 NBsUse=    88 1.00D-06 NBFU=    88
 <missing>
  Precomputing XC quadrature grid using
 IXCGrd= 2 IRadAn=           5 IRanWt=          -1 IRanGd=           0.
 NRdTot=     591 NPtTot=      157216 NUsed=      161382 NTot=      161414
 NSgBfM=    76    76    76    76.
 </missing>
 </l302>
 <l303>
 <missing>
 DipDrv:  MaxL=1.
 </missing>
  </l303>
  <l401>
  <other>
 SCF N**3 symmetry information disabled.
 Harris functional with IExCor= 1614 diagonalized for initial guess.
 ExpMin= 4.38D-02 ExpMax= 4.56D+03 ExpMxC= 6.82D+02 IAcc=3 IRadAn=         5 AccDes= 0.00D+00
 HarFok:  IExCor=1614 AccDes= 0.00D+00 IRadAn=         5 IDoV=1
 ScaDFX=  1.000000  1.000000  1.000000  1.000000
 Harris En= -76.6781276489755    
 <S**2> of initial guess= 1.0000
 </other>
 Harris functional with IExCor=  205 diagonalized for initial guess.
 ExpMin= 1.61D-01 ExpMax= 5.48D+03 ExpMxC= 8.25D+02 IAcc=1 IRadAn=         1 AccDes= 1.00D-06
 HarFok:  IExCor= 205 AccDes= 1.00D-06 IRadAn=         1 IDoV=1
 ScaDFX=  1.000000  1.000000  1.000000  1.000000
 </l401>
 <l???>
 Initial guess orbital symmetries:
       Occupied  (A) (A) (A) (A) (A) (A) (A) (A) (A) (A) (A) (A)
                 (A) (A) (A) (A) (A) (A) (A) (A) (A) (A) (A) (A)
                 (A) (A) (A) (A) (A) (A) (A)
       Virtual   (A) (A) (A) (A) (A) (A) (A) (A) (A) (A) (A) (A)
                 (A) (A) (A) (A) (A) (A) (A) (A) (A) (A) (A) (A)
                 (A) (A) (A) (A) (A) (A) (A) (A) (A) (A) (A) (A)
                 (A) (A) (A) (A) (A) (A) (A) (A) (A) (A) (A) (A)
                 (A) (A) (A) (A) (A) (A) (A) (A) (A)
 The electronic state of the initial guess is 1-A.
 Requested convergence on RMS density matrix=1.00D-10 within 128 cycles.
 Requested convergence on MAX density matrix=1.00D-08.
 Requested convergence on             energy=1.00D-08.
 No special actions if energy rises.
 Keep R1 integrals in memory in canonical form, NReq=     8461272.
 SCF Done:  E(RHF) =  -414.583054792     A.U. after   19 cycles
             Convg  =    0.3628D-10             -V/T =  1.9995
             S**2   =   0.0000
 ExpMin= 1.61D-01 ExpMax= 5.48D+03 ExpMxC= 8.25D+02 IAcc=1 IRadAn=         1 AccDes= 1.00D-06
 HarFok:  IExCor= 205 AccDes= 1.00D-06 IRadAn=         1 IDoV=1
 ScaDFX=  1.000000  1.000000  1.000000  1.000000
 </l???>
 <l801>
 Range of M.O.s used for correlation:     9    88
 NBasis=    88 NAE=    31 NBE=    31 NFC=     8 NFV=     0
 NROrb=     80 NOA=    23 NOB=    23 NVA=    57 NVB=    57
 Not enough disk for semidirect, minimum=     1392232
 Fully direct method using O(ONN) memory.
 JobTyp=1 Pass  1:  I=   9 to  31 NPSUse=  1 ParTrn=F ParDer=F DoDerP=T.
 Spin components of T(2) and E(2):
     alpha-alpha T2 =       0.3736907225D-01 E2=     -0.1028467881D+00
     alpha-beta  T2 =       0.2201760431D+00 E2=     -0.6125828055D+00
     beta-beta   T2 =       0.3736907225D-01 E2=     -0.1028467881D+00
 ANorm=    0.1137942963D+01
 E2 =    -0.8182763816D+00 EUMP2 =    -0.41540133117344D+03
 </l???>
 <missing>
 (Enter /opt//g03/l1101.exe)
 Using compressed storage, NAtomX=     7.
 Will process   8 centers per pass.
 Leave Link 1101 at Mon Mar 30 15:36:29 2009, MaxMem=    6291456 cpu:       0.2
 (Enter /opt//g03/l1102.exe)
 Use density number 0.
 Symmetrizing basis deriv contribution to polar:
 IMax=3 JMax=2 DiffMx= 0.00D+00
 Leave Link 1102 at Mon Mar 30 15:36:29 2009, MaxMem=    6291456 cpu:       0.0
 (Enter /opt//g03/l1110.exe)
 Forming Gx(P) for the SCF density, NAtomX=     7.
 Integral derivatives from FoFDir, PRISM(SPDF).
 Do as many integral derivatives as possible in FoFDir.
 G2DrvN: MDV=       6291398.
 G2DrvN: will do    8 centers at a time, making    1 passes doing MaxLOS=2.
 Symmetry not used in FoFDir.
 MinBra= 0 MaxBra= 2 Meth= 1.
 IRaf=       0 NMat=   1 IRICut=       1 DoRegI=T DoRafI=F ISym2E= 0 JSym2E=0.
 FoFDir/FoFCou used for L=0 through L=2.
 Leave Link 1110 at Mon Mar 30 15:37:22 2009, MaxMem=    6291456 cpu:     105.2
 </missing>
 <l1002>
 DoAtom=TTTTTTTTTTTTTTTT
          Differentiating once with respect to electric field.
                with respect to dipole field.
          Differentiating once with respect to nuclear coordinates.
          Store integrals in memory, NReq=     8070217.
          There are   1 degrees of freedom in the 1st order CPHF.
     1 vectors were produced by pass  0.
 AX will form   1 AO Fock derivatives at one time.
     1 vectors were produced by pass  1.
     1 vectors were produced by pass  2.
     1 vectors were produced by pass  3.
     1 vectors were produced by pass  4.
     1 vectors were produced by pass  5.
     1 vectors were produced by pass  6.
     1 vectors were produced by pass  7.
     1 vectors were produced by pass  8.
     1 vectors were produced by pass  9.
     1 vectors were produced by pass 10.
     1 vectors were produced by pass 11.
     1 vectors were produced by pass 12.
     1 vectors were produced by pass 13.
     1 vectors were produced by pass 14.
     1 vectors were produced by pass 15.
 Inv2:  IOpt= 1 Iter= 1 AM= 3.91D-16 Conv= 1.00D-12.
 Inverted reduced A of dimension   16 with in-core refinement.
 End of Minotr Frequency-dependent properties file   721 does not exist.
</l1002>
<l601>
<missing>
 Copying SCF densities to generalized density rwf, ISCF=1 IROHF=0.
</missing>

 **********************************************************************

            Population analysis using the SCF density.

 **********************************************************************

 Orbital symmetries:
       Occupied  (A) (A) (A) (A) (A) (A) (A) (A) (A) (A) (A) (A)
                 (A) (A) (A) (A) (A) (A) (A) (A) (A) (A) (A) (A)
                 (A) (A) (A) (A) (A) (A) (A)
       Virtual   (A) (A) (A) (A) (A) (A) (A) (A) (A) (A) (A) (A)
                 (A) (A) (A) (A) (A) (A) (A) (A) (A) (A) (A) (A)
                 (A) (A) (A) (A) (A) (A) (A) (A) (A) (A) (A) (A)
                 (A) (A) (A) (A) (A) (A) (A) (A) (A) (A) (A) (A)
                 (A) (A) (A) (A) (A) (A) (A) (A) (A)
 The electronic state is 1-A.
 Alpha  occ. eigenvalues --  -20.56035 -20.52321 -15.62562 -15.57122 -11.39538
 Alpha  occ. eigenvalues --  -11.37401 -11.31265 -11.24224  -1.42440  -1.39542
 Alpha  occ. eigenvalues --   -1.27511  -1.21448  -1.07341  -0.92289  -0.87101
 Alpha  occ. eigenvalues --   -0.78612  -0.77926  -0.73449  -0.68817  -0.66535
 Alpha  occ. eigenvalues --   -0.61755  -0.60369  -0.60084  -0.56777  -0.55839
 Alpha  occ. eigenvalues --   -0.54402  -0.52379  -0.45191  -0.42013  -0.41381
 Alpha  occ. eigenvalues --   -0.39503
 Alpha virt. eigenvalues --    0.16062   0.17827   0.19205   0.24834   0.26734
 Alpha virt. eigenvalues --    0.27774   0.29045   0.31297   0.32648   0.34939
 Alpha virt. eigenvalues --    0.39139   0.39584   0.40518   0.44707   0.52071
 Alpha virt. eigenvalues --    0.55227   0.64638   0.69687   0.71369   0.76376
 Alpha virt. eigenvalues --    0.76800   0.81145   0.86464   0.86929   0.88459
 Alpha virt. eigenvalues --    0.92345   0.95122   0.96436   0.97881   1.00097
 Alpha virt. eigenvalues --    1.05313   1.08222   1.09499   1.10665   1.13658
 Alpha virt. eigenvalues --    1.17472   1.19815   1.20915   1.22274   1.24270
 Alpha virt. eigenvalues --    1.25808   1.27111   1.29257   1.34635   1.37932
 Alpha virt. eigenvalues --    1.40959   1.45672   1.46350   1.51209   1.55094
 Alpha virt. eigenvalues --    1.60816   1.65356   1.71803   1.82556   1.94937
 Alpha virt. eigenvalues --    2.10742   2.32774
          Condensed to atoms (all electrons):
              1          2          3          4          5          6
     1  H    0.556030   0.431363  -0.120962  -0.052150   0.001509   0.001948
     2  C    0.431363   4.483664   0.063436   0.479815  -0.010150  -0.018630
     3  N   -0.120962   0.063436   7.906867  -0.107401  -0.066682   0.326906
     4  O   -0.052150   0.479815  -0.107401   8.290485   0.003489   0.001684
     5  C    0.001509  -0.010150  -0.066682   0.003489   5.485506  -0.023139
     6  H    0.001948  -0.018630   0.326906   0.001684  -0.023139   0.331654
     7  C    0.000016  -0.001061  -0.014052   0.001089   0.234385   0.001899
     8  C   -0.000145   0.000916  -0.071873  -0.000024   0.297539  -0.003031
     9  H   -0.000069  -0.000353  -0.056727   0.000059   0.420497  -0.001091
    10  H    0.000002   0.000116   0.001453  -0.000003  -0.044411  -0.000076
    11  H    0.000002  -0.000027   0.004762   0.000000  -0.041490   0.000061
    12  H   -0.000005  -0.000060  -0.003522   0.000000  -0.044957   0.003780
    13  N   -0.000226  -0.000087   0.009642  -0.032094  -0.141785  -0.000145
    14  O    0.000000  -0.000021   0.003577   0.000002  -0.115232  -0.000050
    15  H    0.000003   0.000108  -0.000235   0.000524   0.005305   0.000005
    16  H    0.000615  -0.005533  -0.001014   0.039659   0.000487  -0.000048
              7          8          9         10         11         12
     1  H    0.000016  -0.000145  -0.000069   0.000002   0.000002  -0.000005
     2  C   -0.001061   0.000916  -0.000353   0.000116  -0.000027  -0.000060
     3  N   -0.014052  -0.071873  -0.056727   0.001453   0.004762  -0.003522
     4  O    0.001089  -0.000024   0.000059  -0.000003   0.000000   0.000000
     5  C    0.234385   0.297539   0.420497  -0.044411  -0.041490  -0.044957
     6  H    0.001899  -0.003031  -0.001091  -0.000076   0.000061   0.003780
     7  C    4.482783  -0.056492  -0.044533  -0.005873  -0.002877   0.005834
     8  C   -0.056492   5.186447  -0.043598   0.382923   0.386164   0.385488
     9  H   -0.044533  -0.043598   0.481880   0.004092   0.000460  -0.004058
    10  H   -0.005873   0.382923   0.004092   0.527360  -0.018869  -0.029669
    11  H   -0.002877   0.386164   0.000460  -0.018869   0.463056  -0.023380
    12  H    0.005834   0.385488  -0.004058  -0.029669  -0.023380   0.559694
    13  N    0.144063  -0.000505   0.003117   0.001859   0.000412  -0.000126
    14  O    0.550026  -0.003195   0.005167   0.000146   0.007299   0.000045
    15  H   -0.025599  -0.000209  -0.000119  -0.000032   0.000000   0.000004
    16  H   -0.008155  -0.000056  -0.000047  -0.000026  -0.000011   0.000003
             13         14         15         16
     1  H   -0.000226   0.000000   0.000003   0.000615
     2  C   -0.000087  -0.000021   0.000108  -0.005533
     3  N    0.009642   0.003577  -0.000235  -0.001014
     4  O   -0.032094   0.000002   0.000524   0.039659
     5  C   -0.141785  -0.115232   0.005305   0.000487
     6  H   -0.000145  -0.000050   0.000005  -0.000048
     7  C    0.144063   0.550026  -0.025599  -0.008155
     8  C   -0.000505  -0.003195  -0.000209  -0.000056
     9  H    0.003117   0.005167  -0.000119  -0.000047
    10  H    0.001859   0.000146  -0.000032  -0.000026
    11  H    0.000412   0.007299   0.000000  -0.000011
    12  H   -0.000126   0.000045   0.000004   0.000003
    13  N    7.503197  -0.139658   0.322270   0.277340
    14  O   -0.139658   8.323216   0.003243   0.001376
    15  H    0.322270   0.003243   0.321612  -0.008741
    16  H    0.277340   0.001376  -0.008741   0.249369
 Mulliken atomic charges:
              1
     1  H    0.182070
     2  C    0.576504
     3  N   -0.874176
     4  O   -0.625134
     5  C    0.039132
     6  H    0.378273
     7  C    0.738548
     8  C   -0.460348
     9  H    0.235322
    10  H    0.181009
    11  H    0.224439
    12  H    0.150931
    13  N   -0.947274
    14  O   -0.635940
    15  H    0.381862
    16  H    0.454782
 Sum of Mulliken charges=   0.00000
 Atomic charges with hydrogens summed into heavy atoms:
              1
     1  H    0.000000
     2  C    0.758575
     3  N   -0.495903
     4  O   -0.625134
     5  C    0.274454
     6  H    0.000000
     7  C    0.738548
     8  C    0.096031
     9  H    0.000000
    10  H    0.000000
    11  H    0.000000
    12  H    0.000000
    13  N   -0.110630
    14  O   -0.635940
    15  H    0.000000
    16  H    0.000000
 Sum of Mulliken charges=   0.00000
 Electronic spatial extent (au):  <R**2>=  1000.9647
 Charge=     0.0000 electrons
 Dipole moment (field-independent basis, Debye):
    X=    -2.6589    Y=     4.3867    Z=     0.9533  Tot=     5.2174
 Quadrupole moment (field-independent basis, Debye-Ang):
   XX=   -59.1187   YY=   -41.1003   ZZ=   -48.6261
   XY=    -4.6379   XZ=     2.9656   YZ=    -2.9175
 Traceless Quadrupole moment (field-independent basis, Debye-Ang):
   XX=    -9.5037   YY=     8.5147   ZZ=     0.9890
   XY=    -4.6379   XZ=     2.9656   YZ=    -2.9175
 Octapole moment (field-independent basis, Debye-Ang**2):
  XXX=   -28.9164  YYY=    -8.1234  ZZZ=    -2.0224  XYY=     1.8056
  XXY=    29.1423  XXZ=     8.1412  XZZ=    -2.1209  YZZ=    -1.3794
  YYZ=     4.5373  XYZ=    -2.1751
 Hexadecapole moment (field-independent basis, Debye-Ang**3):
 XXXX=  -771.7978 YYYY=  -372.9857 ZZZZ=   -97.3718 XXXY=   -26.0586
 XXXZ=    18.3780 YYYX=   -30.2002 YYYZ=   -21.1736 ZZZX=    -2.7604
 ZZZY=    -1.1600 XXYY=  -198.3159 XXZZ=  -138.2778 YYZZ=   -90.4967
 XXYZ=    -9.4467 YYXZ=     4.3121 ZZXY=     1.8784
 N-N= 3.862766400798D+02 E-N=-1.746254307522D+03  KE= 4.147983890665D+02
 </l601>
 ***** Axes restored to original set *****
 -------------------------------------------------------------------
 Center     Atomic                   Forces (Hartrees/Bohr)
 Number     Number              X              Y              Z
 -------------------------------------------------------------------
    1          1           0.002227597   -0.000101400   -0.015558244
    2          6           0.020511730   -0.001637992   -0.022923864
    3          7           0.011798126    0.004117884    0.010250684
    4          8          -0.054159388    0.000266198    0.027721214
    5          6          -0.000956713    0.002788315   -0.001500433
    6          1           0.014044253    0.000155505   -0.014681707
    7          6          -0.004571535    0.000690524   -0.031367941
    8          6           0.000167994   -0.001137705   -0.001906350
    9          1           0.004469312   -0.011983459    0.002094967
   10          1          -0.004534243    0.009765485   -0.000759989
   11          1           0.004782579   -0.001730385    0.010505556
   12          1           0.006923707   -0.002093546   -0.008160775
   13          7          -0.011453869    0.013225511   -0.005306173
   14          8           0.028292380   -0.013568080    0.049685188
   15          1          -0.007897101    0.002246979    0.016706477
   16          1          -0.009644829   -0.001003835   -0.014798610
 -------------------------------------------------------------------
 Cartesian Forces:  Max     0.054159388 RMS     0.015531952
 ------------------------------------------------------------------------
           Internal Coordinate Forces (Hartree/Bohr or radian)
 Cent Atom N1     Length/X     N2     Alpha/Y      N3      Beta/Z       J
 ------------------------------------------------------------------------
   1  H 
   2  C     1   0.015558(   1)
   3  N     2   0.033152(   2)  1  -0.004553(  16)
   4  O     2   0.060779(   3)  3   0.006391(  17)  1  -0.000357(  30)  0
   5  C     3   0.016291(   4)  2   0.004067(  18)  1  -0.000165(  31)  0
   6  H     3   0.020301(   5)  2  -0.001491(  19)  5  -0.000450(  32)  0
   7  C     5   0.015423(   6)  3   0.006068(  20)  2  -0.002839(  33)  0
   8  C     5   0.008702(   7)  3   0.000156(  21)  7  -0.001010(  34)  0
   9  H     5   0.012945(   8)  3   0.001170(  22)  7  -0.000542(  35)  0
  10  H     8   0.010729(   9)  5  -0.002329(  23)  3   0.000401(  36)  0
  11  H     8   0.011627(  10)  5  -0.002025(  24) 10  -0.000437(  37)  0
  12  H     8   0.010904(  11)  5  -0.000205(  25) 10   0.000217(  38)  0
  13  N     7   0.032441(  12)  5  -0.007858(  26)  3   0.002026(  39)  0
  14  O     7   0.058751(  13)  5  -0.002179(  27) 13   0.001643(  40)  0
  15  H    13   0.018603(  14)  7  -0.000913(  28)  5   0.000662(  41)  0
  16  H    13   0.017644(  15)  7  -0.001791(  29) 15   0.001435(  42)  0
 ------------------------------------------------------------------------
 Internal  Forces:  Max     0.060779444 RMS     0.016862645

 GradGradGradGradGradGradGradGradGradGradGradGradGradGradGradGradGradGrad
 Berny optimization.
 Search for a local minimum.
 Step number   1 out of a maximum of  52
 All quantities printed in internal units (Hartrees-Bohrs-Radians)
 Second derivative matrix not updated -- first step.
     Eigenvalues ---    0.02003   0.03104   0.03612   0.06321   0.06599
     Eigenvalues ---    0.07775   0.08614   0.13427   0.16001   0.18506
     Eigenvalues ---    0.18537   0.19882   0.19885   0.20466   0.23812
     Eigenvalues ---    0.25011   0.28616   0.29223   0.31000   0.33201
     Eigenvalues ---    0.34899   0.35435   0.35654   0.35674   0.35809
     Eigenvalues ---    0.36168   0.39098   0.39703   0.45858   0.48355
     Eigenvalues ---    0.48649   0.48856   0.53067   0.53119   0.54800
     Eigenvalues ---    0.56389   0.57992   0.74770   0.89606   0.92350
     Eigenvalues --- 1000.000001000.00000
 RFO step:  Lambda=-1.80051633D-02.
 Linear search not attempted -- first point.
 Variable       Old X    -DE/DX   Delta X   Delta X   Delta X     New X
                                 (Linear)    (Quad)   (Total)
  rC2H1       2.04381   0.01556   0.00000   0.04137   0.04137   2.08518
  rN3C2       2.53918   0.03315   0.00000   0.05697   0.05697   2.59616
  rO4C2       2.31869   0.06078   0.00000   0.06456   0.06456   2.38324
  rC5N3       2.79140   0.01629   0.00000   0.04439   0.04439   2.83579
  rH6N3       1.87954   0.02030   0.00000   0.04024   0.04024   1.91978
  rC7C5       2.89541   0.01542   0.00000   0.04971   0.04971   2.94512
  rC8C5       2.90811   0.00870   0.00000   0.02861   0.02861   2.93672
  rH9C5       2.04594   0.01294   0.00000   0.03454   0.03454   2.08048
  rH10C8      2.04627   0.01073   0.00000   0.02864   0.02864   2.07491
  rH11C8      2.03820   0.01163   0.00000   0.03062   0.03062   2.06882
  rH12C8      2.04975   0.01090   0.00000   0.02928   0.02928   2.07903
  rN13C7      2.52566   0.03244   0.00000   0.05426   0.05426   2.57991
  rO14C7      2.33115   0.05875   0.00000   0.06427   0.06427   2.39542
 rH15N13      1.87738   0.01860   0.00000   0.03672   0.03672   1.91410
 rH16N13      1.88262   0.01764   0.00000   0.03518   0.03518   1.91780
 aN3C2H1      1.96079  -0.00455   0.00000  -0.02498  -0.02498   1.93581
 aO4C2N3      2.23319   0.00639   0.00000   0.02428   0.02428   2.25748
 aC5N3C2      2.36115   0.00407   0.00000   0.01355   0.01355   2.37470
 aH6N3C2      1.98308  -0.00149   0.00000  -0.01088  -0.01088   1.97219
 aC7C5N3      2.13842   0.00607   0.00000   0.01837   0.01837   2.15679
 aC8C5N3      1.87689   0.00016   0.00000  -0.00234  -0.00234   1.87455
 aH9C5N3      1.86625   0.00117   0.00000  -0.00161  -0.00161   1.86464
 aH10C8C5     1.92708  -0.00233   0.00000  -0.00943  -0.00943   1.91766
 aH11C8C5     1.91446  -0.00202   0.00000  -0.00707  -0.00707   1.90739
 aH12C8C5     1.92692  -0.00020   0.00000   0.00351   0.00351   1.93043
 aN13C7C5     2.14401  -0.00786   0.00000  -0.01764  -0.01764   2.12637
 aO14C7C5     2.00021  -0.00218   0.00000   0.00360   0.00360   2.00381
 aH15N13C     2.03144  -0.00091   0.00000  -0.00193  -0.00193   2.02951
 aH16N13C     2.13248  -0.00179   0.00000  -0.00682  -0.00682   2.12566
 pO4C2N3H    -3.13161  -0.00036   0.00000  -0.00357  -0.00357  -3.13519
 dC5N3C2H    -3.06496  -0.00017   0.00000   0.00184   0.00184  -3.06312
 pH6N3C2C     3.08698  -0.00045   0.00000  -0.00433  -0.00433   3.08264
 pC8C5N3C    -2.18095  -0.00101   0.00000  -0.01097  -0.01097  -2.19191
 pH9C5N3C     2.07366  -0.00054   0.00000  -0.00270  -0.00270   2.07096
 dH10C8C5     1.14866   0.00040   0.00000   0.01629   0.01629   1.16495
 pH11C8C5     2.10248  -0.00044   0.00000  -0.00634  -0.00634   2.09614
 pH12C8C5    -2.09548   0.00022   0.00000  -0.00151  -0.00151  -2.09699
 pO14C7C5    -3.06044   0.00164   0.00000   0.02227   0.02227  -3.03817
 dH15N13C    -3.07343   0.00066   0.00000   0.00815   0.00815  -3.06527
 pH16N13C    -2.82784   0.00144   0.00000   0.01899   0.01899  -2.80886
 dC7C5N3C    -0.26180  -0.00284   0.00000   0.00000   0.00000  -0.26180
 dN13C7C5    -0.26180   0.00203   0.00000   0.00000   0.00000  -0.26180
         Item               Value     Threshold  Converged?
 Maximum Force            0.060779     0.000150     NO 
 RMS     Force            0.017270     0.000100     NO 
 Maximum Displacement     0.064556     0.000600     NO 
 RMS     Displacement     0.028138     0.000400     NO 
 Predicted change in Energy=-9.301957D-03
 GradGradGradGradGradGradGradGradGradGradGradGradGradGradGradGradGradGrad

 ------------------------------------------------------------------------
                         Z-MATRIX (ANGSTROMS AND DEGREES)
 CD Cent Atom  N1     Length/X     N2    Alpha/Y     N3     Beta/Z      J
 ------------------------------------------------------------------------
   1   1  H 
   2   2  C     1   1.103427(  1)
   3   3  N     2   1.373827(  2)   1  110.914( 16)
   4   4  O     2   1.261157(  3)   3  129.344( 17)   1 -179.633( 30)   0
   5   5  C     3   1.500634(  4)   2  136.060( 18)   1 -175.504( 31)   0
   6   6  H     3   1.015904(  5)   2  112.998( 19)   5  176.622( 32)   0
   7   7  C     5   1.558493(  6)   3  123.575( 20)   2  -15.000( 33)   0
   8   8  C     5   1.554043(  7)   3  107.404( 21)   7 -125.587( 34)   0
   9   9  H     5   1.100944(  8)   3  106.836( 22)   7  118.657( 35)   0
  10  10  H     8   1.097995(  9)   5  109.874( 23)   3   66.747( 36)   0
  11  11  H     8   1.094772( 10)   5  109.285( 24)  10  120.100( 37)   0
  12  12  H     8   1.100177( 11)   5  110.605( 25)  10 -120.149( 38)   0
  13  13  N     7   1.365231( 12)   5  121.832( 26)   3  -15.000( 39)   0
  14  14  O     7   1.267604( 13)   5  114.810( 27)  13 -174.074( 40)   0
  15  15  H    13   1.012900( 14)   7  116.282( 28)   5 -175.627( 41)   0
  16  16  H    13   1.014856( 15)   7  121.792( 29)  15 -160.936( 42)   0
 ------------------------------------------------------------------------
                         Z-Matrix orientation:                         
 ---------------------------------------------------------------------
 Center     Atomic     Atomic              Coordinates (Angstroms)
 Number     Number      Type              X           Y           Z
 ---------------------------------------------------------------------
    1          1             0        0.000000    0.000000    0.000000
    2          6             0        0.000000    0.000000    1.103427
    3          7             0        1.283317    0.000000    1.593832
    4          8             0       -1.095011    0.006248    1.729070
    5          6             0        1.922133   -0.081629    2.949249
    6          1             0        1.987839    0.018256    0.862137
    7          6             0        1.145260    0.135725    4.282713
    8          6             0        3.129849    0.896355    2.953568
    9          1             0        2.311555   -1.105740    3.057069
   10          1             0        2.772071    1.931630    2.877462
   11          1             0        3.692021    0.772562    3.884784
   12          1             0        3.799030    0.688975    2.105287
   13          7             0       -0.094663    0.706480    4.308878
   14          8             0        1.799028   -0.146853    5.331311
   15          1             0       -0.493806    0.870171    5.225315
   16          1             0       -0.705490    0.695538    3.498506
 ---------------------------------------------------------------------
                    Distance matrix (angstroms):
                    1          2          3          4          5
     1  H    0.000000
     2  C    1.103427   0.000000
     3  N    2.046266   1.373827   0.000000
     4  O    2.046649   1.261157   2.382178   0.000000
     5  C    3.521268   2.666143   1.500634   3.255721   0.000000
     6  H    2.166822   2.002513   1.015904   3.202449   2.090534
     7  C    4.435276   3.381996   2.695841   3.399511   1.558493
     8  C    4.395790   3.744653   2.462116   4.487887   1.554043
     9  H    3.988937   3.222214   2.102617   3.821621   1.100944
    10  H    4.437945   3.816120   2.755955   4.469924   2.186495
    11  H    5.414741   4.686558   3.412795   5.305659   2.176551
    12  H    4.397675   3.988864   2.658022   4.955733   2.197463
    13  N    4.367437   3.283747   3.125607   2.854196   2.556790
    14  O    5.628583   4.597072   3.775748   4.623315   2.386132
    15  H    5.320241   4.241580   4.135581   3.651238   3.452993
    16  H    3.636074   2.591890   2.840231   1.938492   2.794651
                    6          7          8          9         10
     6  H    0.000000
     7  C    3.524780   0.000000
     8  C    2.539553   2.506746   0.000000
     9  H    2.487145   2.098495   2.165341   0.000000
    10  H    2.887482   2.801163   1.097995   3.077329   0.000000
    11  H    3.551002   2.655165   1.094772   2.473625   1.790097
    12  H    2.296889   3.477033   1.100177   2.517831   1.787481
    13  N    4.085400   1.365231   3.502912   3.262062   3.430467
    14  O    4.476207   1.267604   2.917709   2.520778   3.359804
    15  H    5.091330   2.028410   4.276961   4.059010   4.159935
    16  H    3.829252   2.086540   3.879061   3.541473   3.742599
                   11         12         13         14         15
    11  H    0.000000
    12  H    1.784670   0.000000
    13  N    3.810931   4.474032   0.000000
    14  O    2.553662   3.886624   2.315083   0.000000
    15  H    4.396328   5.309976   1.012900   2.510510   0.000000
    16  H    4.415116   4.715061   1.014856   3.215806   1.748479
                   16
    16  H    0.000000
                           Interatomic angles:
       H1-C2-N3=110.9138       H1-C2-O4=119.7414       N3-C2-O4=129.3438
       C2-N3-C5=136.0603       C2-N3-H6=112.9984       C5-N3-H6=110.8733
       N3-C5-C7=123.5749       N3-C5-C8=107.4039       C7-C5-C8=107.2921
       N3-C5-H9=106.836        C7-C5-H9=102.8416       C8-C5-H9=108.0735
      C5-C8-H10=109.8735      C5-C8-H11=109.2853     H10-C8-H11=109.4449
      C5-C8-H12=110.6054     H10-C8-H12=108.813      H11-C8-H12=108.7957
      C5-C7-N13=121.8318      C5-C7-O14=114.8098     N13-C7-O14=123.0762
     C7-N13-H15=116.2822     C7-N13-H16=121.7915    H15-N13-H16=119.1454
 Stoichiometry    C4H8N2O2
 Framework group  C1[X(C4H8N2O2)]
 Deg. of freedom    42
 Full point group                 C1      NOp   1
 Largest Abelian subgroup         C1      NOp   1
 Largest concise Abelian subgroup C1      NOp   1
                         Standard orientation:                         
 ---------------------------------------------------------------------
 Center     Atomic     Atomic              Coordinates (Angstroms)
 Number     Number      Type              X           Y           Z
 ---------------------------------------------------------------------
    1          1             0       -3.051267    0.958293   -0.043703
    2          6             0       -2.166408    0.300199   -0.082274
    3          7             0       -1.011148    1.037073   -0.181217
    4          8             0       -2.314465   -0.951066   -0.028114
    5          6             0        0.449705    0.738609   -0.350729
    6          1             0       -1.178378    2.039118   -0.182340
    7          6             0        1.072108   -0.673216   -0.131042
    8          6             0        1.234874    1.734442    0.547534
    9          1             0        0.699748    0.955569   -1.400721
   10          1             0        1.029788    1.524288    1.605536
   11          1             0        2.307258    1.626219    0.355685
   12          1             0        0.938262    2.770822    0.327701
   13          7             0        0.394562   -1.666043    0.516324
   14          8             0        2.282521   -0.782798   -0.491198
   15          1             0        0.903283   -2.527800    0.672989
   16          1             0       -0.618705   -1.673010    0.572672
 ---------------------------------------------------------------------
 Rotational constants (GHZ):      2.9026303      1.6033498      1.1198315
 Standard basis: 6-31G (5D, 7F)
 There are    88 symmetry adapted basis functions of A   symmetry.
 Integral buffers will be    262144 words long.
 Raffenetti 1 integral format.
 Two-electron integral symmetry is turned on.
    88 basis functions,   208 primitive gaussians,    88 cartesian basis functions
    31 alpha electrons       31 beta electrons
       nuclear repulsion energy       377.8636802939 Hartrees.
 NAtoms=   16 NActive=   16 NUniq=   16 SFac= 1.00D+00 NAtFMM=   60 Big=F
 One-electron integrals computed using PRISM.
 NBasis=    88 RedAO= T  NBF=    88
 NBsUse=    88 1.00D-06 NBFU=    88
 Initial guess read from the read-write file:
 Initial guess orbital symmetries:
       Occupied  (A) (A) (A) (A) (A) (A) (A) (A) (A) (A) (A) (A)
                 (A) (A) (A) (A) (A) (A) (A) (A) (A) (A) (A) (A)
                 (A) (A) (A) (A) (A) (A) (A)
       Virtual   (A) (A) (A) (A) (A) (A) (A) (A) (A) (A) (A) (A)
                 (A) (A) (A) (A) (A) (A) (A) (A) (A) (A) (A) (A)
                 (A) (A) (A) (A) (A) (A) (A) (A) (A) (A) (A) (A)
                 (A) (A) (A) (A) (A) (A) (A) (A) (A) (A) (A) (A)
                 (A) (A) (A) (A) (A) (A) (A) (A) (A)
 Harris functional with IExCor=  205 diagonalized for initial guess.
 ExpMin= 1.61D-01 ExpMax= 5.48D+03 ExpMxC= 8.25D+02 IAcc=1 IRadAn=         1 AccDes= 1.00D-06
 HarFok:  IExCor= 205 AccDes= 1.00D-06 IRadAn=         1 IDoV=1
 ScaDFX=  1.000000  1.000000  1.000000  1.000000
 Requested convergence on RMS density matrix=1.00D-10 within 128 cycles.
 Requested convergence on MAX density matrix=1.00D-08.
 Requested convergence on             energy=1.00D-08.
 No special actions if energy rises.
 Keep R1 integrals in memory in canonical form, NReq=     8461272.
 SCF Done:  E(RHF) =  -414.573322335     A.U. after   18 cycles
             Convg  =    0.6170D-10             -V/T =  2.0014
             S**2   =   0.0000
 ExpMin= 1.61D-01 ExpMax= 5.48D+03 ExpMxC= 8.25D+02 IAcc=1 IRadAn=         1 AccDes= 1.00D-06
 HarFok:  IExCor= 205 AccDes= 1.00D-06 IRadAn=         1 IDoV=1
 ScaDFX=  1.000000  1.000000  1.000000  1.000000
 Range of M.O.s used for correlation:     9    88
 NBasis=    88 NAE=    31 NBE=    31 NFC=     8 NFV=     0
 NROrb=     80 NOA=    23 NOB=    23 NVA=    57 NVB=    57
 Not enough disk for semidirect, minimum=     1391792
 Fully direct method using O(ONN) memory.
 JobTyp=1 Pass  1:  I=   9 to  31 NPSUse=  1 ParTrn=F ParDer=F DoDerP=T.
 Spin components of T(2) and E(2):
     alpha-alpha T2 =       0.3918621844D-01 E2=     -0.1051162330D+00
     alpha-beta  T2 =       0.2309096769D+00 E2=     -0.6261253324D+00
     beta-beta   T2 =       0.3918621844D-01 E2=     -0.1051162330D+00
 ANorm=    0.1144238661D+01
 E2 =    -0.8363577985D+00 EUMP2 =    -0.41540968013349D+03
 DoAtom=TTTTTTTTTTTTTTTT
          Differentiating once with respect to electric field.
                with respect to dipole field.
          Differentiating once with respect to nuclear coordinates.
          Store integrals in memory, NReq=     8070217.
          There are   1 degrees of freedom in the 1st order CPHF.
     1 vectors were produced by pass  0.
 AX will form   1 AO Fock derivatives at one time.
     1 vectors were produced by pass  1.
     1 vectors were produced by pass  2.
     1 vectors were produced by pass  3.
     1 vectors were produced by pass  4.
     1 vectors were produced by pass  5.
     1 vectors were produced by pass  6.
     1 vectors were produced by pass  7.
     1 vectors were produced by pass  8.
     1 vectors were produced by pass  9.
     1 vectors were produced by pass 10.
     1 vectors were produced by pass 11.
     1 vectors were produced by pass 12.
     1 vectors were produced by pass 13.
     1 vectors were produced by pass 14.
     1 vectors were produced by pass 15.
     1 vectors were produced by pass 16.
 Inv2:  IOpt= 1 Iter= 1 AM= 3.55D-16 Conv= 1.00D-12.
 Inverted reduced A of dimension   17 with in-core refinement.
 End of Minotr Frequency-dependent properties file   721 does not exist.
 ***** Axes restored to original set *****
 -------------------------------------------------------------------
 Center     Atomic                   Forces (Hartrees/Bohr)
 Number     Number              X              Y              Z
 -------------------------------------------------------------------
    1          1          -0.000195640    0.000037566    0.000497127
    2          6           0.004442930   -0.001507835   -0.005866390
    3          7          -0.000683008    0.004033849    0.003694346
    4          8          -0.003185905    0.001351608    0.008149896
    5          6           0.001707428   -0.004276207    0.001913109
    6          1           0.000040933   -0.000073114   -0.000709409
    7          6          -0.000897136    0.003068285   -0.006010283
    8          6          -0.000055949    0.000902820   -0.000840395
    9          1          -0.000192062   -0.000826866   -0.000423625
   10          1          -0.000163439    0.000072626    0.000158129
   11          1          -0.000380195   -0.000294007    0.000252281
   12          1          -0.000220045   -0.000215964   -0.000062399
   13          7          -0.000144364    0.000671252   -0.000959339
   14          8           0.000597125   -0.000589004    0.002907827
   15          1          -0.000333870   -0.000885567    0.000275648
   16          1          -0.000336804   -0.001469442   -0.002976524
 -------------------------------------------------------------------
 Cartesian Forces:  Max     0.008149896 RMS     0.002339618
 ------------------------------------------------------------------------
           Internal Coordinate Forces (Hartree/Bohr or radian)
 Cent Atom N1     Length/X     N2     Alpha/Y      N3      Beta/Z       J
 ------------------------------------------------------------------------
   1  H 
   2  C     1  -0.000497(   1)
   3  N     2  -0.001984(   2)  1   0.000408(  16)
   4  O     2   0.006816(   3)  3  -0.013110(  17)  1   0.002388(  30)  0
   5  C     3  -0.005177(   4)  2  -0.019949(  18)  1   0.002315(  31)  0
   6  H     3   0.000538(   5)  2  -0.000887(  19)  5  -0.000153(  32)  0
   7  C     5  -0.005119(   6)  3  -0.028674(  20)  2   0.004124(  33)  0
   8  C     5  -0.000345(   7)  3  -0.001496(  21)  7   0.001650(  34)  0
   9  H     5   0.000660(   8)  3  -0.001327(  22)  7  -0.000479(  35)  0
  10  H     8   0.000111(   9)  5  -0.000262(  23)  3   0.000117(  36)  0
  11  H     8   0.000053(  10)  5  -0.001090(  24) 10  -0.000235(  37)  0
  12  H     8  -0.000045(  11)  5  -0.000647(  25) 10   0.000021(  38)  0
  13  N     7  -0.000034(  12)  5  -0.011909(  26)  3   0.006289(  39)  0
  14  O     7   0.002845(  13)  5   0.002413(  27) 13  -0.000494(  40)  0
  15  H    13   0.000238(  14)  7  -0.000357(  28)  5  -0.000811(  41)  0
  16  H    13   0.002595(  15)  7  -0.003910(  29) 15   0.000799(  42)  0
 ------------------------------------------------------------------------
 Internal  Forces:  Max     0.028673923 RMS     0.006461142

 GradGradGradGradGradGradGradGradGradGradGradGradGradGradGradGradGradGrad
 Berny optimization.
 Search for a local minimum.
 Step number   2 out of a maximum of  52
 All quantities printed in internal units (Hartrees-Bohrs-Radians)
 Update second derivatives using D2CorN and points  1  2
 Trust test= 8.98D-01 RLast= 1.82D-01 DXMaxT set to 4.24D-01
     Eigenvalues ---    0.02025   0.03099   0.03614   0.06342   0.06409
     Eigenvalues ---    0.07771   0.08668   0.13425   0.15955   0.18503
     Eigenvalues ---    0.18536   0.19593   0.20078   0.21228   0.23775
     Eigenvalues ---    0.24379   0.28618   0.29704   0.31190   0.33186
     Eigenvalues ---    0.35062   0.35491   0.35661   0.35733   0.36090
     Eigenvalues ---    0.37113   0.39099   0.39752   0.45783   0.47522
     Eigenvalues ---    0.48548   0.48797   0.53082   0.53210   0.54392
     Eigenvalues ---    0.57257   0.61296   0.74611   0.89603   0.91651
     Eigenvalues --- 1000.000001000.00000
 RFO step:  Lambda=-4.75568471D-03.
 Quartic linear search produced a step of -0.04291.
 Variable       Old X    -DE/DX   Delta X   Delta X   Delta X     New X
                                 (Linear)    (Quad)   (Total)
  rC2H1       2.08518  -0.00050  -0.00177   0.00836   0.00658   2.09176
  rN3C2       2.59616  -0.00198  -0.00244   0.00593   0.00348   2.59964
  rO4C2       2.38324   0.00682  -0.00277   0.01503   0.01226   2.39550
  rC5N3       2.83579  -0.00518  -0.00190  -0.00408  -0.00599   2.82980
  rH6N3       1.91978   0.00054  -0.00173   0.00855   0.00683   1.92661
  rC7C5       2.94512  -0.00512  -0.00213  -0.00355  -0.00569   2.93944
  rC8C5       2.93672  -0.00035  -0.00123   0.00690   0.00567   2.94239
  rH9C5       2.08048   0.00066  -0.00148   0.01000   0.00851   2.08900
  rH10C8      2.07491   0.00011  -0.00123   0.00708   0.00585   2.08076
  rH11C8      2.06882   0.00005  -0.00131   0.00730   0.00598   2.07480
  rH12C8      2.07903  -0.00005  -0.00126   0.00683   0.00557   2.08460
  rN13C7      2.57991  -0.00003  -0.00233   0.00875   0.00642   2.58634
  rO14C7      2.39542   0.00284  -0.00276   0.01093   0.00817   2.40359
 rH15N13      1.91410   0.00024  -0.00158   0.00726   0.00569   1.91979
 rH16N13      1.91780   0.00260  -0.00151   0.01190   0.01039   1.92819
 aN3C2H1      1.93581   0.00041   0.00107   0.01061   0.01168   1.94749
 aO4C2N3      2.25748  -0.01311  -0.00104  -0.03129  -0.03233   2.22514
 aC5N3C2      2.37470  -0.01995  -0.00058  -0.05416  -0.05474   2.31996
 aH6N3C2      1.97219  -0.00089   0.00047   0.02107   0.02153   1.99373
 aC7C5N3      2.15679  -0.02867  -0.00079  -0.08448  -0.08527   2.07152
 aC8C5N3      1.87455  -0.00150   0.00010   0.01439   0.01449   1.88904
 aH9C5N3      1.86464  -0.00133   0.00007   0.01451   0.01457   1.87922
 aH10C8C5     1.91766  -0.00026   0.00040  -0.00366  -0.00325   1.91440
 aH11C8C5     1.90739  -0.00109   0.00030  -0.00923  -0.00893   1.89846
 aH12C8C5     1.93043  -0.00065  -0.00015   0.00365   0.00350   1.93393
 aN13C7C5     2.12637  -0.01191   0.00076  -0.03937  -0.03861   2.08775
 aO14C7C5     2.00381   0.00241  -0.00015   0.02413   0.02397   2.02778
 aH15N13C     2.02951  -0.00036   0.00008   0.00316   0.00324   2.03275
 aH16N13C     2.12566  -0.00391   0.00029  -0.02074  -0.02044   2.10522
 pO4C2N3H    -3.13519   0.00239   0.00015   0.01707   0.01723  -3.11796
 dC5N3C2H    -3.06312   0.00231  -0.00008   0.02738   0.02730  -3.03582
 pH6N3C2C     3.08264  -0.00015   0.00019  -0.02288  -0.02270   3.05995
 pC8C5N3C    -2.19191   0.00165   0.00047   0.02571   0.02618  -2.16574
 pH9C5N3C     2.07096  -0.00048   0.00012  -0.01346  -0.01334   2.05762
 dH10C8C5     1.16495   0.00012  -0.00070   0.01975   0.01905   1.18400
 pH11C8C5     2.09614  -0.00023   0.00027  -0.01186  -0.01159   2.08455
 pH12C8C5    -2.09699   0.00002   0.00006  -0.00966  -0.00959  -2.10658
 pO14C7C5    -3.03817  -0.00049  -0.00096   0.01611   0.01515  -3.02302
 dH15N13C    -3.06527  -0.00081  -0.00035  -0.01291  -0.01326  -3.07853
 pH16N13C    -2.80886   0.00080  -0.00081   0.04126   0.04044  -2.76842
 dC7C5N3C    -0.26180   0.00412   0.00000   0.00000   0.00000  -0.26180
 dN13C7C5    -0.26180   0.00629   0.00000   0.00000   0.00000  -0.26180
         Item               Value     Threshold  Converged?
 Maximum Force            0.028674     0.000150     NO 
 RMS     Force            0.006513     0.000100     NO 
 Maximum Displacement     0.085271     0.000600     NO 
 RMS     Displacement     0.022231     0.000400     NO 
 Predicted change in Energy=-2.555193D-03
 GradGradGradGradGradGradGradGradGradGradGradGradGradGradGradGradGradGrad

 ------------------------------------------------------------------------
                         Z-MATRIX (ANGSTROMS AND DEGREES)
 CD Cent Atom  N1     Length/X     N2    Alpha/Y     N3     Beta/Z      J
 ------------------------------------------------------------------------
   1   1  H 
   2   2  C     1   1.106911(  1)
   3   3  N     2   1.375669(  2)   1  111.583( 16)
   4   4  O     2   1.267645(  3)   3  127.491( 17)   1 -178.646( 30)   0
   5   5  C     3   1.497465(  4)   2  132.924( 18)   1 -173.940( 31)   0
   6   6  H     3   1.019517(  5)   2  114.232( 19)   5  175.322( 32)   0
   7   7  C     5   1.555484(  6)   3  118.689( 20)   2  -15.000( 33)   0
   8   8  C     5   1.557045(  7)   3  108.234( 21)   7 -124.087( 34)   0
   9   9  H     5   1.105450(  8)   3  107.671( 22)   7  117.893( 35)   0
  10  10  H     8   1.101089(  9)   5  109.687( 23)   3   67.838( 36)   0
  11  11  H     8   1.097938( 10)   5  108.774( 24)  10  119.436( 37)   0
  12  12  H     8   1.103125( 11)   5  110.806( 25)  10 -120.698( 38)   0
  13  13  N     7   1.368630( 12)   5  119.619( 26)   3  -15.000( 39)   0
  14  14  O     7   1.271926( 13)   5  116.183( 27)  13 -173.206( 40)   0
  15  15  H    13   1.015909( 14)   7  116.468( 28)   5 -176.387( 41)   0
  16  16  H    13   1.020355( 15)   7  120.620( 29)  15 -158.619( 42)   0
 ------------------------------------------------------------------------
                         Z-Matrix orientation:                         
 ---------------------------------------------------------------------
 Center     Atomic     Atomic              Coordinates (Angstroms)
 Number     Number      Type              X           Y           Z
 ---------------------------------------------------------------------
    1          1             0        0.000000    0.000000    0.000000
    2          6             0        0.000000    0.000000    1.106911
    3          7             0        1.279216    0.000000    1.612946
    4          8             0       -1.087326    0.023767    1.758126
    5          6             0        1.826422   -0.115764    3.002035
    6          1             0        2.010205    0.022425    0.902618
    7          6             0        0.859764    0.082937    4.204374
    8          6             0        3.006237    0.890024    3.146303
    9          1             0        2.207490   -1.145805    3.127821
   10          1             0        2.621490    1.921013    3.108492
   11          1             0        3.497332    0.722197    4.113840
   12          1             0        3.743831    0.747268    2.338553
   13          7             0       -0.367599    0.652478    3.998577
   14          8             0        1.332678   -0.183420    5.354680
   15          1             0       -0.937262    0.811397    4.824592
   16          1             0       -0.815982    0.604371    3.083283
 ---------------------------------------------------------------------
                    Distance matrix (angstroms):
                    1          2          3          4          5
     1  H    0.000000
     2  C    1.106911   0.000000
     3  N    2.058638   1.375669   0.000000
     4  O    2.067329   1.267645   2.371110   0.000000
     5  C    3.515883   2.634524   1.497465   3.171231   0.000000
     6  H    2.203666   2.020683   1.019517   3.213502   2.111971
     7  C    4.292183   3.215642   2.626465   3.127106   1.555484
     8  C    4.441715   3.740151   2.475061   4.408480   1.557045
     9  H    3.996141   3.204678   2.114097   3.754967   1.105450
    10  H    4.497246   3.816914   2.780044   4.379309   2.189047
    11  H    5.447621   4.668460   3.419953   5.201565   2.174909
    12  H    4.476998   4.011436   2.675676   4.919393   2.204879
    13  N    4.068105   2.987071   2.971357   2.435756   2.529234
    14  O    5.521075   4.455695   3.746607   4.339878   2.404849
    15  H    4.981317   3.918926   3.985700   3.169558   3.437920
    16  H    3.246186   2.221967   2.630020   1.471995   2.739980
                    6          7          8          9         10
     6  H    0.000000
     7  C    3.496966   0.000000
     8  C    2.603638   2.525520   0.000000
     9  H    2.520954   2.117816   2.186993   0.000000
    10  H    2.973918   2.771852   1.101089   3.094696   0.000000
    11  H    3.607378   2.715440   1.097938   2.474946   1.793037
    12  H    2.364903   3.498638   1.103125   2.562618   1.797256
    13  N    3.954224   1.368630   3.487918   3.259314   3.366911
    14  O    4.508023   1.271926   2.971533   2.578834   3.336920
    15  H    4.969097   2.035835   4.286493   4.074204   4.103775
    16  H    3.616807   2.082513   3.833396   3.493777   3.681086
                   11         12         13         14         15
    11  H    0.000000
    12  H    1.792494   0.000000
    13  N    3.867278   4.434921   0.000000
    14  O    2.654345   3.972009   2.329953   0.000000
    15  H    4.492076   5.300673   1.015909   2.534419   0.000000
    16  H    4.436283   4.622438   1.020355   3.224375   1.757762
                   16
    16  H    0.000000
                           Interatomic angles:
       H1-C2-N3=111.5829       H1-C2-O4=120.912        N3-C2-O4=127.4914
       C2-N3-C5=132.9238       C2-N3-H6=114.2321       C5-N3-H6=112.7059
       N3-C5-C7=118.6892       N3-C5-C8=108.2342       C7-C5-C8=108.4668
       N3-C5-H9=107.6711       C7-C5-H9=104.1996       C8-C5-H9=109.2779
      C5-C8-H10=109.6872      C5-C8-H11=108.7739     H10-C8-H11=109.2493
      C5-C8-H12=110.8061     H10-C8-H12=109.2485     H11-C8-H12=109.0513
      C5-C7-N13=119.6194      C5-C7-O14=116.1833     N13-C7-O14=123.8186
     C7-N13-H15=116.4681     C7-N13-H16=120.6202    H15-N13-H16=119.362 
 Stoichiometry    C4H8N2O2
 Framework group  C1[X(C4H8N2O2)]
 Deg. of freedom    42
 Full point group                 C1      NOp   1
 Largest Abelian subgroup         C1      NOp   1
 Largest concise Abelian subgroup C1      NOp   1
                         Standard orientation:                         
 ---------------------------------------------------------------------
 Center     Atomic     Atomic              Coordinates (Angstroms)
 Number     Number      Type              X           Y           Z
 ---------------------------------------------------------------------
    1          1             0       -2.950916    1.072095   -0.074139
    2          6             0       -2.061783    0.413147   -0.096049
    3          7             0       -0.896874    1.138216   -0.194674
    4          8             0       -2.181995   -0.845843   -0.009918
    5          6             0        0.536741    0.745227   -0.375537
    6          1             0       -1.032774    2.148535   -0.208881
    7          6             0        0.940756   -0.737357   -0.134193
    8          6             0        1.409571    1.650067    0.543059
    9          1             0        0.804878    0.930854   -1.431787
   10          1             0        1.209973    1.409158    1.598768
   11          1             0        2.468330    1.460725    0.322500
   12          1             0        1.189898    2.716428    0.365572
   13          7             0        0.080289   -1.574554    0.522958
   14          8             0        2.129919   -1.054414   -0.455385
   15          1             0        0.415121   -2.516347    0.704573
   16          1             0       -0.923515   -1.391524    0.524151
 ---------------------------------------------------------------------
 Rotational constants (GHZ):      2.8869601      1.7509039      1.1866055
 Standard basis: 6-31G (5D, 7F)
 There are    88 symmetry adapted basis functions of A   symmetry.
 Integral buffers will be    262144 words long.
 Raffenetti 1 integral format.
 Two-electron integral symmetry is turned on.
    88 basis functions,   208 primitive gaussians,    88 cartesian basis functions
    31 alpha electrons       31 beta electrons
       nuclear repulsion energy       383.6853790321 Hartrees.
 NAtoms=   16 NActive=   16 NUniq=   16 SFac= 1.00D+00 NAtFMM=   60 Big=F
 One-electron integrals computed using PRISM.
 NBasis=    88 RedAO= T  NBF=    88
 NBsUse=    88 1.00D-06 NBFU=    88
 Initial guess read from the read-write file:
 Initial guess orbital symmetries:
       Occupied  (A) (A) (A) (A) (A) (A) (A) (A) (A) (A) (A) (A)
                 (A) (A) (A) (A) (A) (A) (A) (A) (A) (A) (A) (A)
                 (A) (A) (A) (A) (A) (A) (A)
       Virtual   (A) (A) (A) (A) (A) (A) (A) (A) (A) (A) (A) (A)
                 (A) (A) (A) (A) (A) (A) (A) (A) (A) (A) (A) (A)
                 (A) (A) (A) (A) (A) (A) (A) (A) (A) (A) (A) (A)
                 (A) (A) (A) (A) (A) (A) (A) (A) (A) (A) (A) (A)
                 (A) (A) (A) (A) (A) (A) (A) (A) (A)
 Harris functional with IExCor=  205 diagonalized for initial guess.
 ExpMin= 1.61D-01 ExpMax= 5.48D+03 ExpMxC= 8.25D+02 IAcc=1 IRadAn=         1 AccDes= 1.00D-06
 HarFok:  IExCor= 205 AccDes= 1.00D-06 IRadAn=         1 IDoV=1
 ScaDFX=  1.000000  1.000000  1.000000  1.000000
 Requested convergence on RMS density matrix=1.00D-10 within 128 cycles.
 Requested convergence on MAX density matrix=1.00D-08.
 Requested convergence on             energy=1.00D-08.
 No special actions if energy rises.
 Keep R1 integrals in memory in canonical form, NReq=     8461272.
 Restarting incremental Fock formation.
 SCF Done:  E(RHF) =  -414.561312290     A.U. after   20 cycles
             Convg  =    0.3495D-10             -V/T =  2.0012
             S**2   =   0.0000
 ExpMin= 1.61D-01 ExpMax= 5.48D+03 ExpMxC= 8.25D+02 IAcc=1 IRadAn=         1 AccDes= 1.00D-06
 HarFok:  IExCor= 205 AccDes= 1.00D-06 IRadAn=         1 IDoV=1
 ScaDFX=  1.000000  1.000000  1.000000  1.000000
 Range of M.O.s used for correlation:     9    88
 NBasis=    88 NAE=    31 NBE=    31 NFC=     8 NFV=     0
 NROrb=     80 NOA=    23 NOB=    23 NVA=    57 NVB=    57
 Not enough disk for semidirect, minimum=     1392320
 Fully direct method using O(ONN) memory.
 JobTyp=1 Pass  1:  I=   9 to  31 NPSUse=  1 ParTrn=F ParDer=F DoDerP=T.
 Spin components of T(2) and E(2):
     alpha-alpha T2 =       0.3939658225D-01 E2=     -0.1056790492D+00
     alpha-beta  T2 =       0.2308575802D+00 E2=     -0.6262795343D+00
     beta-beta   T2 =       0.3939658225D-01 E2=     -0.1056790492D+00
 ANorm=    0.1144399731D+01
 E2 =    -0.8376376328D+00 EUMP2 =    -0.41539894992257D+03
 DoAtom=TTTTTTTTTTTTTTTT
          Differentiating once with respect to electric field.
                with respect to dipole field.
          Differentiating once with respect to nuclear coordinates.
          Store integrals in memory, NReq=     8070217.
          There are   1 degrees of freedom in the 1st order CPHF.
     1 vectors were produced by pass  0.
 AX will form   1 AO Fock derivatives at one time.
     1 vectors were produced by pass  1.
     1 vectors were produced by pass  2.
     1 vectors were produced by pass  3.
     1 vectors were produced by pass  4.
[...]
 !     rN13C7        1.3651   -DE/DX =    0.0                           !
 !     rO14C7        1.2709   -DE/DX =    0.0                           !
 !     rH15N13       1.0137   -DE/DX =    0.0                           !
 !     rH16N13       1.0188   -DE/DX =    0.0                           !
 !     aN3C2H1     111.5517   -DE/DX =    0.0                           !
 !     aO4C2N3     128.6517   -DE/DX =    0.0                           !
 !     aC5N3C2     135.8291   -DE/DX =    0.0                           !
 !     aH6N3C2     112.8823   -DE/DX =    0.0                           !
 !     aC7C5N3     122.1219   -DE/DX =    0.0                           !
 !     aC8C5N3     107.5398   -DE/DX =    0.0                           !
 !     aH9C5N3     106.8085   -DE/DX =    0.0                           !
 !    aH10C8C5     109.7705   -DE/DX =    0.0                           !
 !    aH11C8C5     108.9493   -DE/DX =    0.0                           !
 !    aH12C8C5     110.6179   -DE/DX =    0.0                           !
 !    aN13C7C5     121.6214   -DE/DX =    0.0                           !
 !    aO14C7C5     115.0869   -DE/DX =    0.0                           !
 !    aH15N13C7    115.7423   -DE/DX =    0.0                           !
 !    aH16N13C7    120.8448   -DE/DX =    0.0                           !
 !    pO4C2N3H1   -179.4537   -DE/DX =    0.0                           !
 !    dC5N3C2H1   -175.1814   -DE/DX =    0.0                           !
 !    pH6N3C2C5    176.08     -DE/DX =    0.0                           !
 !    pC8C5N3C7   -124.9461   -DE/DX =    0.0                           !
 !    pH9C5N3C7    118.6083   -DE/DX =    0.0                           !
 !   dH10C8C5N3     66.5423   -DE/DX =    0.0                           !
 !   pH11C8C5H10   119.8414   -DE/DX =    0.0                           !
 !   pH12C8C5H10  -120.3694   -DE/DX =    0.0                           !
 !   pO14C7C5N13  -174.1453   -DE/DX =    0.0                           !
 !   dH15N13C7C5  -177.574    -DE/DX =    0.0                           !
 !  pH16N13C7H15  -156.7248   -DE/DX =    0.0                           !
 !    dC7C5N3C2    -15.0      -DE/DX =   -0.0022                        !
 !   dN13C7C5N3    -15.0      -DE/DX =    0.0014                        !
 ------------------------------------------------------------------------
 GradGradGradGradGradGradGradGradGradGradGradGradGradGradGradGradGradGrad

 ------------------------------------------------------------------------
                         Z-MATRIX (ANGSTROMS AND DEGREES)
 CD Cent Atom  N1     Length/X     N2    Alpha/Y     N3     Beta/Z      J
 ------------------------------------------------------------------------
   1   1  H 
   2   2  C     1   1.101383(  1)
   3   3  N     2   1.372915(  2)   1  111.552( 16)
   4   4  O     2   1.266793(  3)   3  128.652( 17)   1 -179.454( 30)   0
   5   5  C     3   1.500670(  4)   2  135.829( 18)   1 -175.181( 31)   0
   6   6  H     3   1.016764(  5)   2  112.882( 19)   5  176.080( 32)   0
   7   7  C     5   1.552741(  6)   3  122.122( 20)   2  -15.000( 33)   0
   8   8  C     5   1.552424(  7)   3  107.540( 21)   7 -124.946( 34)   0
   9   9  H     5   1.101531(  8)   3  106.809( 22)   7  118.608( 35)   0
  10  10  H     8   1.097907(  9)   5  109.771( 23)   3   66.542( 36)   0
  11  11  H     8   1.095090( 10)   5  108.949( 24)  10  119.841( 37)   0
  12  12  H     8   1.099925( 11)   5  110.618( 25)  10 -120.369( 38)   0
  13  13  N     7   1.365135( 12)   5  121.621( 26)   3  -15.000( 39)   0
  14  14  O     7   1.270917( 13)   5  115.087( 27)  13 -174.145( 40)   0
  15  15  H    13   1.013662( 14)   7  115.742( 28)   5 -177.574( 41)   0
  16  16  H    13   1.018773( 15)   7  120.845( 29)  15 -156.725( 42)   0
 ------------------------------------------------------------------------
                         Z-Matrix orientation:                         
 ---------------------------------------------------------------------
 Center     Atomic     Atomic              Coordinates (Angstroms)
 Number     Number      Type              X           Y           Z
 ---------------------------------------------------------------------
    1          1             0        0.000000    0.000000    0.000000
    2          6             0        0.000000    0.000000    1.101383
    3          7             0        1.276930    0.000000    1.605709
    4          8             0       -1.099300    0.009433    1.730840
    5          6             0        1.895295   -0.087837    2.970231
    6          1             0        1.988711    0.014691    0.879789
    7          6             0        1.068279    0.126460    4.266813
    8          6             0        3.090471    0.902231    3.006874
    9          1             0        2.284102   -1.112779    3.078373
   10          1             0        2.720922    1.933398    2.932517
   11          1             0        3.628809    0.774984    3.951978
   12          1             0        3.780541    0.707389    2.172803
   13          7             0       -0.172776    0.694414    4.238495
   14          8             0        1.676513   -0.155114    5.346627
   15          1             0       -0.617078    0.826704    5.139941
   16          1             0       -0.751871    0.642796    3.401906
 ---------------------------------------------------------------------
                    Distance matrix (angstroms):
                    1          2          3          4          5
     1  H    0.000000
     2  C    1.101383   0.000000
     3  N    2.051549   1.372915   0.000000
     4  O    2.050453   1.266793   2.379541   0.000000
     5  C    3.524505   2.663166   1.500670   3.242399   0.000000
     6  H    2.174676   2.001073   1.016764   3.203143   2.095039
     7  C    4.400331   3.343227   2.672265   3.338151   1.552741
     8  C    4.405260   3.741113   2.462968   4.469846   1.552424
     9  H    3.991463   3.219299   2.102715   3.810854   1.101531
    10  H    4.443095   3.807164   2.753826   4.442945   2.183683
    11  H    5.420977   4.679183   3.411292   5.279634   2.171027
    12  H    4.417462   3.992598   2.662717   4.949275   2.196003
    13  N    4.298477   3.217692   3.084708   2.759707   2.548987
    14  O    5.605459   4.566931   3.765394   4.561373   2.387394
    15  H    5.242444   4.168235   4.094082   3.538706   3.443262
    16  H    3.542804   2.504177   2.784878   1.820526   2.779867
                    6          7          8          9         10
     6  H    0.000000
     7  C    3.511641   0.000000
     8  C    2.554622   2.505699   0.000000
     9  H    2.488417   2.103884   2.171545   0.000000
    10  H    2.903663   2.788656   1.097907   3.080792   0.000000
    11  H    3.564592   2.660078   1.095090   2.476908   1.790386
    12  H    2.315680   3.475446   1.099925   2.524361   1.789708
    13  N    4.051538   1.365135   3.494118   3.263140   3.407954
    14  O    4.480954   1.270917   2.931160   2.535994   3.358660
    15  H    5.059487   2.023147   4.278037   4.053210   4.152077
    16  H    3.777086   2.080292   3.871298   3.521910   3.734470
                   11         12         13         14         15
    11  H    0.000000
    12  H    1.786912   0.000000
    13  N    3.813218   4.460490   0.000000
    14  O    2.573244   3.904357   2.317223   0.000000
    15  H    4.409251   5.306336   1.013662   2.503447   0.000000
    16  H    4.417059   4.696555   1.018773   3.211799   1.752929
                   16
    16  H    0.000000
                           Interatomic angles:
       H1-C2-N3=111.5517       H1-C2-O4=119.7945       N3-C2-O4=128.6517
       C2-N3-C5=135.8291       C2-N3-H6=112.8823       C5-N3-H6=111.1963
       N3-C5-C7=122.1219       N3-C5-C8=107.5398       C7-C5-C8=107.5971
       N3-C5-H9=106.8085       C7-C5-H9=103.5583       C8-C5-H9=108.6238
      C5-C8-H10=109.7705      C5-C8-H11=108.9493     H10-C8-H11=109.4541
      C5-C8-H12=110.6179     H10-C8-H12=109.0376     H11-C8-H12=108.9923
      C5-C7-N13=121.6214      C5-C7-O14=115.0869     N13-C7-O14=123.0164
     C7-N13-H15=115.7423     C7-N13-H16=120.8448    H15-N13-H16=119.1916
 Stoichiometry    C4H8N2O2
 Framework group  C1[X(C4H8N2O2)]
 Deg. of freedom    42
 Full point group                 C1      NOp   1
 Largest Abelian subgroup         C1      NOp   1
 Largest concise Abelian subgroup C1      NOp   1
                         Standard orientation:                         
 ---------------------------------------------------------------------
 Center     Atomic     Atomic              Coordinates (Angstroms)
 Number     Number      Type              X           Y           Z
 ---------------------------------------------------------------------
    1          1             0       -3.030715    0.979741   -0.051580
    2          6             0       -2.144062    0.327248   -0.085387
    3          7             0       -0.985049    1.056164   -0.186728
    4          8             0       -2.284977   -0.930055   -0.021384
    5          6             0        0.472424    0.742285   -0.357788
    6          1             0       -1.148755    2.059602   -0.197655
    7          6             0        1.042357   -0.683724   -0.128267
    8          6             0        1.270620    1.718144    0.548084
    9          1             0        0.722614    0.954208   -1.409389
   10          1             0        1.059386    1.501930    1.603561
   11          1             0        2.340712    1.586914    0.355977
   12          1             0        0.993525    2.760632    0.332977
   13          7             0        0.324360   -1.645306    0.522451
   14          8             0        2.252151   -0.844067   -0.483113
   15          1             0        0.796588   -2.532164    0.656585
   16          1             0       -0.693952   -1.617609    0.535592
 ---------------------------------------------------------------------
 Rotational constants (GHZ):      2.9020657      1.6359195      1.1356325

 **********************************************************************

            Population analysis using the SCF density.

 **********************************************************************

 Orbital symmetries:
       Occupied  (A) (A) (A) (A) (A) (A) (A) (A) (A) (A) (A) (A)
                 (A) (A) (A) (A) (A) (A) (A) (A) (A) (A) (A) (A)
                 (A) (A) (A) (A) (A) (A) (A)
       Virtual   (A) (A) (A) (A) (A) (A) (A) (A) (A) (A) (A) (A)
                 (A) (A) (A) (A) (A) (A) (A) (A) (A) (A) (A) (A)
                 (A) (A) (A) (A) (A) (A) (A) (A) (A) (A) (A) (A)
                 (A) (A) (A) (A) (A) (A) (A) (A) (A) (A) (A) (A)
                 (A) (A) (A) (A) (A) (A) (A) (A) (A)
 The electronic state is 1-A.
 Alpha  occ. eigenvalues --  -20.56768 -20.52925 -15.63593 -15.57894 -11.40821
 Alpha  occ. eigenvalues --  -11.38366 -11.32400 -11.25074  -1.40081  -1.37068
 Alpha  occ. eigenvalues --   -1.26316  -1.20289  -1.06645  -0.91712  -0.86721
 Alpha  occ. eigenvalues --   -0.77489  -0.76796  -0.72235  -0.68193  -0.65645
 Alpha  occ. eigenvalues --   -0.61054  -0.59616  -0.59256  -0.55827  -0.55328
 Alpha  occ. eigenvalues --   -0.54097  -0.51757  -0.45434  -0.42081  -0.41522
 Alpha  occ. eigenvalues --   -0.39418
 Alpha virt. eigenvalues --    0.14377   0.16478   0.18371   0.24087   0.25864
 Alpha virt. eigenvalues --    0.27128   0.28053   0.30405   0.32052   0.34079
 Alpha virt. eigenvalues --    0.38163   0.38704   0.38851   0.43695   0.50289
 Alpha virt. eigenvalues --    0.54668   0.62557   0.68760   0.71678   0.76421
 Alpha virt. eigenvalues --    0.76820   0.80808   0.85228   0.86087   0.87535
 Alpha virt. eigenvalues --    0.89907   0.91045   0.94841   0.96703   0.99464
 Alpha virt. eigenvalues --    1.03764   1.07038   1.08330   1.09034   1.11426
 Alpha virt. eigenvalues --    1.16159   1.18532   1.19632   1.21011   1.22446
 Alpha virt. eigenvalues --    1.24324   1.25424   1.29075   1.33919   1.37523
 Alpha virt. eigenvalues --    1.40078   1.44844   1.46405   1.50672   1.52659
 Alpha virt. eigenvalues --    1.59140   1.65749   1.69258   1.81035   1.91468
 Alpha virt. eigenvalues --    2.10529   2.27925
          Condensed to atoms (all electrons):
              1          2          3          4          5          6
     1  H    0.541216   0.421480  -0.110435  -0.047319   0.001321   0.001711
     2  C    0.421480   4.491997   0.078761   0.451621  -0.008995  -0.019614
     3  N   -0.110435   0.078761   7.852228  -0.092791  -0.042071   0.322675
     4  O   -0.047319   0.451621  -0.092791   8.313738   0.002357   0.001491
     5  C    0.001321  -0.008995  -0.042071   0.002357   5.452629  -0.023146
     6  H    0.001711  -0.019614   0.322675   0.001491  -0.023146   0.333143
     7  C    0.000006  -0.000671  -0.014686   0.000975   0.237730   0.001605
     8  C   -0.000132   0.000749  -0.069097  -0.000018   0.288936  -0.002318
     9  H   -0.000059  -0.000329  -0.054571   0.000046   0.412945  -0.000825
    10  H    0.000002   0.000094   0.001390  -0.000002  -0.044151  -0.000019
    11  H    0.000001  -0.000021   0.004327   0.000000  -0.040977   0.000031
    12  H   -0.000005  -0.000040  -0.002984   0.000000  -0.043620   0.003431
    13  N   -0.000211   0.000151   0.008587  -0.032193  -0.129694  -0.000118
    14  O    0.000000  -0.000017   0.002793   0.000000  -0.103661  -0.000038
    15  H    0.000002   0.000103  -0.000203   0.000464   0.004959   0.000004
    16  H    0.000715  -0.006250  -0.001508   0.045038   0.000441  -0.000041
              7          8          9         10         11         12
     1  H    0.000006  -0.000132  -0.000059   0.000002   0.000001  -0.000005
     2  C   -0.000671   0.000749  -0.000329   0.000094  -0.000021  -0.000040
     3  N   -0.014686  -0.069097  -0.054571   0.001390   0.004327  -0.002984
     4  O    0.000975  -0.000018   0.000046  -0.000002   0.000000   0.000000
     5  C    0.237730   0.288936   0.412945  -0.044151  -0.040977  -0.043620
     6  H    0.001605  -0.002318  -0.000825  -0.000019   0.000031   0.003431
     7  C    4.487482  -0.053607  -0.042016  -0.005367  -0.002557   0.005192
     8  C   -0.053607   5.191970  -0.042488   0.381077   0.383173   0.382536
     9  H   -0.042016  -0.042488   0.483765   0.003805   0.000443  -0.003567
    10  H   -0.005367   0.381077   0.003805   0.524366  -0.018479  -0.028347
    11  H   -0.002557   0.383173   0.000443  -0.018479   0.463617  -0.022508
    12  H    0.005192   0.382536  -0.003567  -0.028347  -0.022508   0.558953
    13  N    0.156158  -0.000243   0.002904   0.001799   0.000361  -0.000108
    14  O    0.516297  -0.002519   0.004578   0.000075   0.007086   0.000063
    15  H   -0.025461  -0.000180  -0.000109  -0.000027  -0.000001   0.000003
    16  H   -0.009523  -0.000040  -0.000063  -0.000021  -0.000007   0.000002
             13         14         15         16
     1  H   -0.000211   0.000000   0.000002   0.000715
     2  C    0.000151  -0.000017   0.000103  -0.006250
     3  N    0.008587   0.002793  -0.000203  -0.001508
     4  O   -0.032193   0.000000   0.000464   0.045038
     5  C   -0.129694  -0.103661   0.004959   0.000441
     6  H   -0.000118  -0.000038   0.000004  -0.000041
     7  C    0.156158   0.516297  -0.025461  -0.009523
     8  C   -0.000243  -0.002519  -0.000180  -0.000040
     9  H    0.002904   0.004578  -0.000109  -0.000063
    10  H    0.001799   0.000075  -0.000027  -0.000021
    11  H    0.000361   0.007086  -0.000001  -0.000007
    12  H   -0.000108   0.000063   0.000003   0.000002
    13  N    7.481440  -0.119882   0.317855   0.267974
    14  O   -0.119882   8.343602   0.002997   0.001175
    15  H    0.317855   0.002997   0.323723  -0.008530
    16  H    0.267974   0.001175  -0.008530   0.248107
 Mulliken atomic charges:
              1
     1  H    0.191707
     2  C    0.590981
     3  N   -0.882416
     4  O   -0.643406
     5  C    0.034995
     6  H    0.382029
     7  C    0.748444
     8  C   -0.457796
     9  H    0.235541
    10  H    0.183804
    11  H    0.225511
    12  H    0.150999
    13  N   -0.954781
    14  O   -0.652548
    15  H    0.384403
    16  H    0.462532
 Sum of Mulliken charges=   0.00000
 Atomic charges with hydrogens summed into heavy atoms:
              1
     1  H    0.000000
     2  C    0.782689
     3  N   -0.500387
     4  O   -0.643406
     5  C    0.270536
     6  H    0.000000
     7  C    0.748444
     8  C    0.102518
     9  H    0.000000
    10  H    0.000000
    11  H    0.000000
    12  H    0.000000
    13  N   -0.107846
    14  O   -0.652548
    15  H    0.000000
    16  H    0.000000
 Sum of Mulliken charges=   0.00000
 Electronic spatial extent (au):  <R**2>=  1034.4700
 Charge=     0.0000 electrons
 Dipole moment (field-independent basis, Debye):
    X=    -2.7307    Y=     4.6553    Z=     0.7006  Tot=     5.4424
 Quadrupole moment (field-independent basis, Debye-Ang):
   XX=   -60.1230   YY=   -40.8988   ZZ=   -49.1991
   XY=    -4.6302   XZ=     2.9513   YZ=    -2.7191
 Traceless Quadrupole moment (field-independent basis, Debye-Ang):
   XX=   -10.0493   YY=     9.1748   ZZ=     0.8745
   XY=    -4.6302   XZ=     2.9513   YZ=    -2.7191
 Octapole moment (field-independent basis, Debye-Ang**2):
  XXX=   -29.7626  YYY=    -8.0942  ZZZ=    -2.3563  XYY=     0.5063
  XXY=    32.5032  XXZ=     7.9532  XZZ=    -1.8393  YZZ=    -0.9056
  YYZ=     4.1090  XYZ=    -2.2096
 Hexadecapole moment (field-independent basis, Debye-Ang**3):
 XXXX=  -813.8176 YYYY=  -379.3120 ZZZZ=   -99.0800 XXXY=   -28.8265
 XXXZ=    18.7290 YYYX=   -30.4401 YYYZ=   -21.2407 ZZZX=    -2.9110
 ZZZY=    -0.5914 XXYY=  -206.9534 XXZZ=  -144.4579 YYZZ=   -93.9357
 XXYZ=    -9.8354 YYXZ=     4.5661 ZZXY=     1.9216
 N-N= 3.791867404233D+02 E-N=-1.731457296870D+03  KE= 4.139855299445D+02

 Test job not archived.
 1\1\GINC-NODE28\POpt\RMP2-FC\6-31G\C4H8N2O2\PNIQUE\02-Jul-2006\1\\# MP
 2/6-31G 5D 7F SCF=(CONVER=10) OPT=Z-MATRIX IOP(1/7=100) # TRACKIO GFIN
 PUT MAXDISK=16GB\\HCO-L-Ala-NH2\\0,1\H\C,1,rC2H1\N,2,rN3C2,1,aN3C2H1\O
 ,2,rO4C2,3,aO4C2N3,1,pO4C2N3H1,0\C,3,rC5N3,2,aC5N3C2,1,dC5N3C2H1,0\H,3
 ,rH6N3,2,aH6N3C2,5,pH6N3C2C5,0\C,5,rC7C5,3,aC7C5N3,2,dC7C5N3C2,0\C,5,r
 C8C5,3,aC8C5N3,7,pC8C5N3C7,0\H,5,rH9C5,3,aH9C5N3,7,pH9C5N3C7,0\H,8,rH1
 0C8,5,aH10C8C5,3,dH10C8C5N3,0\H,8,rH11C8,5,aH11C8C5,10,pH11C8C5H10,0\H
 ,8,rH12C8,5,aH12C8C5,10,pH12C8C5H10,0\N,7,rN13C7,5,aN13C7C5,3,dN13C7C5
 N3,0\O,7,rO14C7,5,aO14C7C5,13,pO14C7C5N13,0\H,13,rH15N13,7,aH15N13C7,5
 ,dH15N13C7C5,0\H,13,rH16N13,7,aH16N13C7,15,pH16N13C7H15,0\\rC2H1=1.101
 38264\rN3C2=1.37291539\rO4C2=1.26679323\rC5N3=1.50066988\rH6N3=1.01676
 376\rC7C5=1.55274109\rC8C5=1.55242427\rH9C5=1.10153103\rH10C8=1.097907
 25\rH11C8=1.09509016\rH12C8=1.0999248\rN13C7=1.3651347\rO14C7=1.270916
 71\rH15N13=1.01366155\rH16N13=1.01877261\aN3C2H1=111.55166022\aO4C2N3=
 128.65167739\aC5N3C2=135.82905302\aH6N3C2=112.88231362\aC7C5N3=122.121
 89014\aC8C5N3=107.53977614\aH9C5N3=106.80850157\aH10C8C5=109.77050693\
 aH11C8C5=108.94927288\aH12C8C5=110.61790243\aN13C7C5=121.62140004\aO14
 C7C5=115.0868679\aH15N13C7=115.74231867\aH16N13C7=120.84476402\pO4C2N3
 H1=-179.45366821\dC5N3C2H1=-175.18140877\pH6N3C2C5=176.08002982\pC8C5N
 3C7=-124.94609076\pH9C5N3C7=118.60830067\dH10C8C5N3=66.54230967\pH11C8
 C5H10=119.84141034\pH12C8C5H10=-120.36939675\pO14C7C5N13=-174.14532046
 \dH15N13C7C5=-177.57396702\pH16N13C7H15=-156.72475628\dC7C5N3C2=-15.\d
 N13C7C5N3=-15.\\Version=IA32L-G03RevC.02\State=1-A\HF=-414.5733265\MP2
 =-415.4104139\RMSD=8.365e-11\RMSF=7.492e-04\Dipole=0.6728603,0.2541519
 ,-1.4819117\PG=C01 [X(C4H8N2O2)]\\@


 THE NUMBERS ARE MEANINGLESS, BUT THE TRENDS ARE IMPORTANT.
     -- LARRY BURGGRAF
 Job cpu time:  0 days  0 hours 13 minutes 41.1 seconds.
 File lengths (MBytes):  RWF=     15 Int=      0 D2E=      0 Chk=      7 Scr=      1
 Normal termination of Gaussian 03 at Sun Jul  2 19:25:04 2006.
