 Entering Gaussian System, Link 0=g03
 Input=./C2H5.gau
 Initial command:
 /opt//g03/l1.exe /scratch/Gau-23125.inp -scrdir=/scratch/
 Entering Link 1 = /opt//g03/l1.exe PID=     23142.
  
 99/9=1/99;
 Leave Link    1 at Mon Mar 30 15:34:57 2009, MaxMem=          0 cpu:       0.2
 (Enter /opt//g03/l101.exe)
 ---------------------------
 NMagM=    0.0000000   2.7928460   2.7928460   2.7928460   0.0000000   2.7928460   2.7928460
 Leave Link  101 at Mon Mar 30 15:34:57 2009, MaxMem=    6291456 cpu:       0.1
 (Enter /opt//g03/l103.exe)


 Leave Link  103 at Mon Mar 30 15:34:58 2009, MaxMem=    6291456 cpu:       0.0
 (Enter /opt//g03/l202.exe)
                          Input orientation:                          
 ---------------------------------------------------------------------
 Rotational constants (GHZ):    103.7552229     22.7268037     21.0625787
 Leave Link  202 at Mon Mar 30 15:34:58 2009, MaxMem=    6291456 cpu:       0.1
 (Enter /opt//g03/l301.exe)
 NAtoms=    7 NActive=    7 NUniq=    7 SFac= 7.50D-01 NAtFMM=   80 NAOKFM=F Big=F
 Leave Link  301 at Mon Mar 30 15:34:58 2009, MaxMem=    6291456 cpu:       0.0
 (Enter /opt//g03/l302.exe)
 NPDir=0 NMtPBC=     1 NCelOv=     1 NCel=       1 NClECP=     1 NCelD=      1
 Leave Link  302 at Mon Mar 30 15:34:58 2009, MaxMem=    6291456 cpu:       0.3
 (Enter /opt//g03/l303.exe)
 DipDrv:  MaxL=1.
 Leave Link  303 at Mon Mar 30 15:34:58 2009, MaxMem=    6291456 cpu:       0.0

 (Enter /opt//g03/l9999.exe)
 1\1\GINC-BOTTICELLI\Freq\UB971\6-311+G(d,p)\C2H5(2)\SS663\30-Mar-2009\
 0\\#P Geom=AllCheck Guess=Read SCRF=Check GenChk UB971/6-311+G(d,p) Fr
 eq\\#NewComb uB971/6-311+G(d,p)\\0,2\C,0.9166762042,0.0730268241,4.990
 0130,-0.00000030,0.00000160\\\@


 I do not feel obliged to believe that the same God who
 has endowed us with sense, reason, and intellect has
 intended us to forgo their use.
                   --Galileo Galilei
 Job cpu time:  0 days  0 hours  5 minutes 56.0 seconds.
 File lengths (MBytes):  RWF=     19 Int=      0 D2E=      0 Chk=      6 Scr=      1
 Normal termination of Gaussian 03 at Mon Mar 30 15:39:25 2009.
