 Entering Gaussian System, Link 0=/usr/local/Gaussian/g03/g03
 Initial command:
 /usr/local/Gaussian/g03/l1.exe /export/scratch//webmo/3301/Gau-25144.inp -scrdir=/export/scratch//webmo/3301/
 Entering Link 1 = /usr/local/Gaussian/g03/l1.exe PID=     25148.
  
 Copyright (c) 1988,1990,1992,1993,1995,1998,2003, Gaussian, Inc.
                  All Rights Reserved.
  
 This is the Gaussian(R) 03 program.  It is based on the
 the Gaussian(R) 98 system (copyright 1998, Gaussian, Inc.),
 the Gaussian(R) 94 system (copyright 1995, Gaussian, Inc.),
 the Gaussian 92(TM) system (copyright 1992, Gaussian, Inc.),
 the Gaussian 90(TM) system (copyright 1990, Gaussian, Inc.),
 the Gaussian 88(TM) system (copyright 1988, Gaussian, Inc.),
 the Gaussian 86(TM) system (copyright 1986, Carnegie Mellon
 University), and the Gaussian 82(TM) system (copyright 1983,
 Carnegie Mellon University). Gaussian is a federally registered
 trademark of Gaussian, Inc.
  
 This software contains proprietary and confidential information,
 including trade secrets, belonging to Gaussian, Inc.
  
 This software is provided under written license and may be
 used, copied, transmitted, or stored only in accord with that
 written license.
  
 The following legend is applicable only to US Government
 contracts under DFARS:
  
                    RESTRICTED RIGHTS LEGEND
  
 Use, duplication or disclosure by the US Government is subject
 to restrictions as set forth in subparagraph (c)(1)(ii) of the
 Rights in Technical Data and Computer Software clause at DFARS
 252.227-7013.
  
 Gaussian, Inc.
 Carnegie Office Park, Building 6, Pittsburgh, PA 15106 USA
  
 The following legend is applicable only to US Government
 contracts under FAR:
  
                    RESTRICTED RIGHTS LEGEND
  
 Use, reproduction and disclosure by the US Government is subject
 to restrictions as set forth in subparagraph (c) of the
 Commercial Computer Software - Restricted Rights clause at FAR
 52.227-19.
  
 Gaussian, Inc.
 Carnegie Office Park, Building 6, Pittsburgh, PA 15106 USA
  
  
 ---------------------------------------------------------------
 Warning -- This program may not be used in any manner that
 competes with the business of Gaussian, Inc. or will provide
 assistance to any competitor of Gaussian, Inc.  The licensee
 of this program is prohibited from giving any competitor of
 Gaussian, Inc. access to this program.  By using this program,
 the user acknowledges that Gaussian, Inc. is engaged in the
 business of creating and licensing software in the field of
 computational chemistry and represents and warrants to the
 licensee that it is not a competitor of Gaussian, Inc. and that
 it will not use this program in any manner prohibited above.
 ---------------------------------------------------------------
  

 Cite this work as:
 Gaussian 03, Revision B.04,
 M. J. Frisch, G. W. Trucks, H. B. Schlegel, G. E. Scuseria, 
 M. A. Robb, J. R. Cheeseman, J. A. Montgomery, Jr., T. Vreven, 
 K. N. Kudin, J. C. Burant, J. M. Millam, S. S. Iyengar, J. Tomasi, 
 V. Barone, B. Mennucci, M. Cossi, G. Scalmani, N. Rega, 
 G. A. Petersson, H. Nakatsuji, M. Hada, M. Ehara, K. Toyota, 
 R. Fukuda, J. Hasegawa, M. Ishida, T. Nakajima, Y. Honda, O. Kitao, 
 H. Nakai, M. Klene, X. Li, J. E. Knox, H. P. Hratchian, J. B. Cross, 
 C. Adamo, J. Jaramillo, R. Gomperts, R. E. Stratmann, O. Yazyev, 
 A. J. Austin, R. Cammi, C. Pomelli, J. W. Ochterski, P. Y. Ayala, 
 K. Morokuma, G. A. Voth, P. Salvador, J. J. Dannenberg, 
 V. G. Zakrzewski, S. Dapprich, A. D. Daniels, M. C. Strain, 
 O. Farkas, D. K. Malick, A. D. Rabuck, K. Raghavachari, 
 J. B. Foresman, J. V. Ortiz, Q. Cui, A. G. Baboul, S. Clifford, 
 J. Cioslowski, B. B. Stefanov, G. Liu, A. Liashenko, P. Piskorz, 
 I. Komaromi, R. L. Martin, D. J. Fox, T. Keith, M. A. Al-Laham, 
 C. Y. Peng, A. Nanayakkara, M. Challacombe, P. M. W. Gill, 
 B. Johnson, W. Chen, M. W. Wong, C. Gonzalez, and J. A. Pople, 
 Gaussian, Inc., Pittsburgh PA, 2003.
 
 ***************************************************
 Gaussian 03:  Sun64-SVR4-Unix-G03RevB.04 2-Jun-2003
                     25-Aug-2006 
 ***************************************************
 ------------------------------
 #P B3LYP/6-311+G(d,p) OPT FREQ
 ------------------------------
 1/14=-1,18=20,26=3,38=1/1,3;
 2/9=110,17=6,18=5,40=1/2;
 3/5=4,6=6,7=111,11=2,16=1,25=1,30=1,74=-5/1,2,3;
 4//1;
 5/5=2,38=5/2;
 6/7=2,8=2,9=2,10=2,28=1/1;
 7//1,2,3,16;
 1/14=-1,18=20/3(1);
 99//99;
 2/9=110/2;
 3/5=4,6=6,7=111,11=2,16=1,25=1,30=1,74=-5/1,2,3;
 4/5=5,16=3/1;
 5/5=2,38=5/2;
 7//1,2,3,16;
 1/14=-1,18=20/3(-5);
 2/9=110/2;
 6/7=2,8=2,9=2,10=2,19=2,28=1/1;
 99/9=1/99;
 Leave Link    1 at Fri Aug 25 21:22:04 2006, MaxMem=          0 cpu:       0.2
 (Enter /usr/local/Gaussian/g03/l101.exe)
 -------------------
 OMe\Cl complexbasis
 -------------------
 Symbolic Z-matrix:
 Charge =  0 Multiplicity = 2
 C
 C                    1    B1
 C                    1    B2       2    A1
 C                    1    B3       2    A2       3    D1       0
 C                    1    B4       2    A3       3    D2       0
 C                    1    B5       2    A4       3    D3       0
 Cl                   1    B6       2    A5       3    D4       0
 H                    1    B7       2    A6       3    D5       0
 H                    1    B8       2    A7       3    D6       0
 H                    1    B9       2    A8       3    D7       0
 O                    1    B10      2    A9       3    D8       0
 H                    1    B11      2    A10      3    D9       0
 H                    1    B12      2    A11      3    D10      0
 C                    1    B13      2    A12      3    D11      0
 H                    1    B14      2    A13      3    D12      0
 H                    1    B15      2    A14      3    D13      0
 H                    1    B16      2    A15      3    D14      0
       Variables:
  A10                  99.04507                  
  A11                 144.96646                  
  A12                  71.80221                  
  B1                    1.41198                  
  A13                  79.04434                  
  B2                    2.41591                  
  A14                  66.48364                  
  B3                    2.79319                  
  A15                  79.21612                  
  B4                    2.42655                  
  B5                    1.40802                  
  B6                    2.57289                  
  B7                    1.07983                  
  B8                    2.16011                  
  B10                   4.13273                  
  B9                    3.41068                  
  B11                   3.40279                  
  B12                   2.15468                  
  B13                   5.04798                  
  B14                   5.13326                  
  B15                   6.00824                  
  B16                   5.09805                  
  D10                   2.37842                  
  D11                  -0.21854                  
  D12                  10.06711                  
  D13                  -0.44091                  
  D14                 -10.45126                  
  D1                    0.25534                  
  D2                    0.81237                  
  D3                    1.74814                  
  A1                   29.30029                  
  D4                 -101.62845                  
  A2                   59.61863                  
  D5                  171.46414                  
  A3                   89.78793                  
  A4                  118.96412                  
  D6                 -179.04371                  
  D7                   -0.6866                   
  A5                  100.86713                  
  D8                   -0.00059                  
  A6                  120.17446                  
  D9                    0.74164                  
  A7                   25.89037                  
  A8                   20.77491                  
  A9                   58.07388                  
 
                    Isotopes and Nuclear Properties:

  Atom         1           2           3           4           5           6           7           8           9          10
 IAtWgt=          12          12          12          12          12          12          35           1           1           1
 AtmWgt=  12.0000000  12.0000000  12.0000000  12.0000000  12.0000000  12.0000000  34.9688527   1.0078250   1.0078250   1.0078250
 IAtSpn=           0           0           0           0           0           0           3           1           1           1
 AtZEff=   0.0000000   0.0000000   0.0000000   0.0000000   0.0000000   0.0000000   0.0000000   0.0000000   0.0000000   0.0000000
 AtQMom=   0.0000000   0.0000000   0.0000000   0.0000000   0.0000000   0.0000000  -8.2490000   0.0000000   0.0000000   0.0000000
 AtGFac=   0.0000000   0.0000000   0.0000000   0.0000000   0.0000000   0.0000000   0.8218740   2.7928460   2.7928460   2.7928460

  Atom        11          12          13          14          15          16          17
 IAtWgt=          16           1           1          12           1           1           1
 AtmWgt=  15.9949146   1.0078250   1.0078250  12.0000000   1.0078250   1.0078250   1.0078250
 IAtSpn=           0           1           1           0           1           1           1
 AtZEff=   0.0000000   0.0000000   0.0000000   0.0000000   0.0000000   0.0000000   0.0000000
 AtQMom=   0.0000000   0.0000000   0.0000000   0.0000000   0.0000000   0.0000000   0.0000000
 AtGFac=   0.0000000   2.7928460   2.7928460   0.0000000   2.7928460   2.7928460   2.7928460
 Leave Link  101 at Fri Aug 25 21:22:06 2006, MaxMem=    6291456 cpu:       0.2
 (Enter /usr/local/Gaussian/g03/l103.exe)

 GradGradGradGradGradGradGradGradGradGradGradGradGradGradGradGradGradGrad
 Berny optimization.
 Initialization pass.
                           ----------------------------
                           !    Initial Parameters    !
                           ! (Angstroms and Degrees)  !
 --------------------------                            --------------------------
 ! Name  Definition              Value          Derivative Info.                !
 --------------------------------------------------------------------------------
 ! R1    R(1,2)                  1.412          estimate D2E/DX2                !
 ! R2    R(1,6)                  1.408          estimate D2E/DX2                !
 ! R3    R(1,7)                  2.5729         estimate D2E/DX2                !
 ! R4    R(1,8)                  1.0798         estimate D2E/DX2                !
 ! R5    R(2,3)                  1.3714         estimate D2E/DX2                !
 ! R6    R(2,7)                  3.1596         estimate D2E/DX2                !
 ! R7    R(2,9)                  1.0826         estimate D2E/DX2                !
 ! R8    R(3,4)                  1.41           estimate D2E/DX2                !
 ! R9    R(3,10)                 1.0825         estimate D2E/DX2                !
 ! R10   R(4,5)                  1.404          estimate D2E/DX2                !
 ! R11   R(4,11)                 1.3427         estimate D2E/DX2                !
 ! R12   R(5,6)                  1.3803         estimate D2E/DX2                !
 ! R13   R(5,12)                 1.0808         estimate D2E/DX2                !
 ! R14   R(6,7)                  3.0628         estimate D2E/DX2                !
 ! R15   R(6,13)                 1.0825         estimate D2E/DX2                !
 ! R16   R(7,8)                  2.6466         estimate D2E/DX2                !
 ! R17   R(7,13)                 3.3262         estimate D2E/DX2                !
 ! R18   R(11,14)                1.4247         estimate D2E/DX2                !
 ! R19   R(14,15)                1.0943         estimate D2E/DX2                !
 ! R20   R(14,16)                1.088          estimate D2E/DX2                !
 ! R21   R(14,17)                1.094          estimate D2E/DX2                !
 ! A1    A(2,1,6)              118.9641         estimate D2E/DX2                !
 ! A2    A(2,1,8)              120.1745         estimate D2E/DX2                !
 ! A3    A(6,1,8)              120.0538         estimate D2E/DX2                !
 ! A4    A(1,2,3)              120.4429         estimate D2E/DX2                !
 ! A5    A(1,2,9)              119.393          estimate D2E/DX2                !
 ! A6    A(3,2,7)              116.307          estimate D2E/DX2                !
 ! A7    A(3,2,9)              120.1571         estimate D2E/DX2                !
 ! A8    A(7,2,9)               98.2137         estimate D2E/DX2                !
 ! A9    A(2,3,4)              120.0633         estimate D2E/DX2                !
 ! A10   A(2,3,10)             121.8882         estimate D2E/DX2                !
 ! A11   A(4,3,10)             118.0474         estimate D2E/DX2                !
 ! A12   A(3,4,5)              120.1769         estimate D2E/DX2                !
 ! A13   A(3,4,11)             115.3613         estimate D2E/DX2                !
 ! A14   A(5,4,11)             124.4617         estimate D2E/DX2                !
 ! A15   A(4,5,6)              119.3497         estimate D2E/DX2                !
 ! A16   A(4,5,12)             120.9029         estimate D2E/DX2                !
 ! A17   A(6,5,12)             119.7462         estimate D2E/DX2                !
 ! A18   A(1,6,5)              120.975          estimate D2E/DX2                !
 ! A19   A(1,6,13)             119.2223         estimate D2E/DX2                !
 ! A20   A(5,6,7)              117.2555         estimate D2E/DX2                !
 ! A21   A(5,6,13)             119.7937         estimate D2E/DX2                !
 ! A22   A(1,7,13)              40.3672         estimate D2E/DX2                !
 ! A23   A(2,7,6)               45.9279         estimate D2E/DX2                !
 ! A24   A(2,7,8)               42.6787         estimate D2E/DX2                !
 ! A25   A(2,7,13)              63.3488         estimate D2E/DX2                !
 ! A26   A(6,7,8)               43.7348         estimate D2E/DX2                !
 ! A27   A(8,7,13)              47.4448         estimate D2E/DX2                !
 ! A28   A(4,11,14)            119.5539         estimate D2E/DX2                !
 ! A29   A(11,14,15)           111.2143         estimate D2E/DX2                !
 ! A30   A(11,14,16)           105.7041         estimate D2E/DX2                !
 ! A31   A(11,14,17)           111.1422         estimate D2E/DX2                !
 ! A32   A(15,14,16)           109.4289         estimate D2E/DX2                !
 ! A33   A(15,14,17)           109.7618         estimate D2E/DX2                !
 ! A34   A(16,14,17)           109.4968         estimate D2E/DX2                !
 ! D1    D(6,1,2,3)              1.7481         estimate D2E/DX2                !
 ! D2    D(6,1,2,9)           -179.2082         estimate D2E/DX2                !
 ! D3    D(8,1,2,3)            171.4641         estimate D2E/DX2                !
 ! D4    D(8,1,2,9)             -9.4922         estimate D2E/DX2                !
 ! D5    D(2,1,6,5)             -1.919          estimate D2E/DX2                !
 ! D6    D(2,1,6,13)           179.1748         estimate D2E/DX2                !
 ! D7    D(8,1,6,5)           -171.6477         estimate D2E/DX2                !
 ! D8    D(8,1,6,13)             9.4461         estimate D2E/DX2                !
 ! D9    D(1,2,3,4)             -0.5042         estimate D2E/DX2                !
 ! D10   D(1,2,3,10)           179.0963         estimate D2E/DX2                !
 ! D11   D(7,2,3,4)            -61.405          estimate D2E/DX2                !
 ! D12   D(7,2,3,10)           118.1955         estimate D2E/DX2                !
 ! D13   D(9,2,3,4)           -179.5406         estimate D2E/DX2                !
 ! D14   D(9,2,3,10)             0.0599         estimate D2E/DX2                !
 ! D15   D(3,2,7,6)             76.6104         estimate D2E/DX2                !
 ! D16   D(3,2,7,8)            140.9125         estimate D2E/DX2                !
 ! D17   D(3,2,7,13)            85.8001         estimate D2E/DX2                !
 ! D18   D(9,2,7,6)           -153.7777         estimate D2E/DX2                !
 ! D19   D(9,2,7,8)            -89.4757         estimate D2E/DX2                !
 ! D20   D(9,2,7,13)          -144.588          estimate D2E/DX2                !
 ! D21   D(2,3,4,5)             -0.6109         estimate D2E/DX2                !
 ! D22   D(2,3,4,11)           179.5369         estimate D2E/DX2                !
 ! D23   D(10,3,4,5)           179.7734         estimate D2E/DX2                !
 ! D24   D(10,3,4,11)           -0.0787         estimate D2E/DX2                !
 ! D25   D(3,4,5,6)              0.4486         estimate D2E/DX2                !
 ! D26   D(3,4,5,12)          -179.9594         estimate D2E/DX2                !
 ! D27   D(11,4,5,6)          -179.7134         estimate D2E/DX2                !
 ! D28   D(11,4,5,12)           -0.1214         estimate D2E/DX2                !
 ! D29   D(3,4,11,14)         -178.7159         estimate D2E/DX2                !
 ! D30   D(5,4,11,14)            1.4391         estimate D2E/DX2                !
 ! D31   D(4,5,6,1)              0.8292         estimate D2E/DX2                !
 ! D32   D(4,5,6,7)             66.4757         estimate D2E/DX2                !
 ! D33   D(4,5,6,13)           179.7293         estimate D2E/DX2                !
 ! D34   D(12,5,6,1)          -178.7675         estimate D2E/DX2                !
 ! D35   D(12,5,6,7)          -113.121          estimate D2E/DX2                !
 ! D36   D(12,5,6,13)            0.1326         estimate D2E/DX2                !
 ! D37   D(5,6,7,2)            -79.1975         estimate D2E/DX2                !
 ! D38   D(5,6,7,8)           -141.2749         estimate D2E/DX2                !
 ! D39   D(4,11,14,15)         -62.3283         estimate D2E/DX2                !
 ! D40   D(4,11,14,16)         178.9999         estimate D2E/DX2                !
 ! D41   D(4,11,14,17)          60.2854         estimate D2E/DX2                !
 --------------------------------------------------------------------------------
 Trust Radius=3.00D-01 FncErr=1.00D-07 GrdErr=1.00D-06
 Number of steps in this run= 102 maximum allowed number of steps= 102.
 GradGradGradGradGradGradGradGradGradGradGradGradGradGradGradGradGradGrad

 Leave Link  103 at Fri Aug 25 21:22:07 2006, MaxMem=    6291456 cpu:       0.0
 (Enter /usr/local/Gaussian/g03/l202.exe)
                          Input orientation:                          
 ---------------------------------------------------------------------
 Center     Atomic     Atomic              Coordinates (Angstroms)
 Number     Number      Type              X           Y           Z
 ---------------------------------------------------------------------
    1          6             0        0.000000    0.000000    0.000000
    2          6             0        0.000000    0.000000    1.411981
    3          6             0        1.182313    0.000000    2.106831
    4          6             0        2.409602   -0.010739    1.412667
    5          6             0        2.426294   -0.034404    0.008981
    6          6             0        1.231335   -0.037581   -0.681850
    7         17             0       -0.509302    2.474887   -0.485072
    8          1             0       -0.923170   -0.138559   -0.542759
    9          1             0       -0.943083    0.015742    1.943304
   10          1             0        1.209673    0.014497    3.188922
   11          8             0        3.507579    0.000036    2.185495
   12          1             0        3.360191   -0.043497   -0.534957
   13          1             0        1.235843   -0.051331   -1.764289
   14          6             0        4.795461    0.018291    1.576474
   15          1             0        4.962108   -0.880948    0.975571
   16          1             0        5.509073    0.042395    2.397355
   17          1             0        4.924932    0.908449    0.953870
 ---------------------------------------------------------------------
                    Distance matrix (angstroms):
                    1          2          3          4          5
     1  C    0.000000
     2  C    1.411981   0.000000
     3  C    2.415905   1.371379   0.000000
     4  C    2.793193   2.409627   1.410042   0.000000
     5  C    2.426555   2.802944   2.439190   1.403984   0.000000
     6  C    1.408019   2.429346   2.789364   2.403338   1.380285
     7  Cl   2.572888   3.159631   3.962901   4.277821   3.893373
     8  H    1.079829   2.166207   3.387120   3.866187   3.396201
     9  H    2.160112   1.082569   2.131735   3.394521   3.885462
    10  H    3.410681   2.149660   1.082534   2.143723   3.405081
    11  O    4.132735   3.591857   2.326597   1.342733   2.430550
    12  H    3.402786   3.883728   3.424045   2.167470   1.080793
    13  H    2.154683   3.408612   3.871830   3.387094   2.135872
    14  C    5.047976   4.798317   3.651912   2.391652   2.841261
    15  H    5.133257   5.058561   4.042607   2.731959   2.842760
    16  H    6.008244   5.596664   4.336711   3.252561   3.900481
    17  H    5.098049   5.028926   4.020174   2.717036   2.832839
                    6          7          8          9         10
     6  C    0.000000
     7  Cl   3.062847   0.000000
     8  H    2.161350   2.646643   0.000000
     9  H    3.409159   3.483184   2.490926   0.000000
    10  H    3.871182   4.744115   4.300918   2.487152   0.000000
    11  O    3.661197   5.421453   5.205201   4.457274   2.507478
    12  H    2.133926   4.617112   4.284423   4.966230   4.300623
    13  H    1.082536   3.326215   2.482153   4.300983   4.953717
    14  C    4.219733   6.198819   6.100697   5.750257   3.931651
    15  H    4.168571   6.582662   6.123150   6.050771   4.447640
    16  H    5.271332   7.102552   7.074657   6.468167   4.371750
    17  H    4.148881   5.835682   6.126698   6.017433   4.426935
                   11         12         13         14         15
    11  O    0.000000
    12  H    2.724789   0.000000
    13  H    4.556777   2.454419   0.000000
    14  C    1.424738   2.553813   4.882257   0.000000
    15  H    2.087031   2.355665   4.698952   1.094297   0.000000
    16  H    2.013121   3.636416   5.965615   1.087965   1.781348
    17  H    2.085906   2.360343   4.681767   1.093975   1.789915
                   16         17
    16  H    0.000000
    17  H    1.781831   0.000000
 Stoichiometry    C7H8ClO(2)
 Framework group  C1[X(C7H8ClO)]
 Deg. of freedom    45
 Full point group                 C1      NOp   1
 Largest Abelian subgroup         C1      NOp   1
 Largest concise Abelian subgroup C1      NOp   1
                         Standard orientation:                         
 ---------------------------------------------------------------------
 Center     Atomic     Atomic              Coordinates (Angstroms)
 Number     Number      Type              X           Y           Z
 ---------------------------------------------------------------------
    1          6             0       -1.325422    0.462678    0.993395
    2          6             0       -0.773064    1.538892    0.265141
    3          6             0        0.502666    1.459537   -0.231744
    4          6             0        1.277025    0.302517   -0.008376
    5          6             0        0.750485   -0.766693    0.733727
    6          6             0       -0.533284   -0.676514    1.232717
    7         17             0       -2.826079   -0.615158   -0.797150
    8          1             0       -2.272435    0.578812    1.499072
    9          1             0       -1.371579    2.423446    0.088222
   10          1             0        0.944060    2.264532   -0.805359
   11          8             0        2.507825    0.321811   -0.544744
   12          1             0        1.333905   -1.658738    0.912587
   13          1             0       -0.948019   -1.498482    1.802146
   14          6             0        3.356650   -0.812890   -0.396996
   15          1             0        3.582261   -1.004130    0.656576
   16          1             0        4.275150   -0.564224   -0.924433
   17          1             0        2.907068   -1.703171   -0.846505
 ---------------------------------------------------------------------
 Rotational constants (GHZ):      2.6753684      0.7201173      0.6828205
 Leave Link  202 at Fri Aug 25 21:22:08 2006, MaxMem=    6291456 cpu:       0.5
 (Enter /usr/local/Gaussian/g03/l301.exe)
 Standard basis: 6-311+G(d,p) (5D, 7F)
 There are   254 symmetry adapted basis functions of A   symmetry.
 Integral buffers will be    131072 words long.
 Raffenetti 2 integral format.
 Two-electron integral symmetry is turned on.
   254 basis functions,   405 primitive gaussians,   263 cartesian basis functions
    38 alpha electrons       37 beta electrons
       nuclear repulsion energy       480.4246548050 Hartrees.
 IExCor= 402 DFT=T Ex=B+HF Corr=LYP ExCW=0 ScaHFX=  0.200000
 ScaDFX=  0.800000  0.720000  1.000000  0.810000
 IRadAn=      0 IRanWt=     -1 IRanGd=            0 ICorTp=0
 NAtoms=   17 NActive=   17 NUniq=   17 SFac= 1.00D+00 NAtFMM=   60 Big=F
 Leave Link  301 at Fri Aug 25 21:22:10 2006, MaxMem=    6291456 cpu:       0.1
 (Enter /usr/local/Gaussian/g03/l302.exe)
 NPDir=0 NMtPBC=     1 NCelOv=     1 NCel=       1 NClECP=     1 NCelD=      1
         NCelK=      1 NCelE2=     1 NClLst=     1 CellRange=     0.0.
 One-electron integrals computed using PRISM.
 NBasis=   254 RedAO= T  NBF=   254
 NBsUse=   254 1.00D-06 NBFU=   254
 Precomputing XC quadrature grid using
 IXCGrd= 2 IRadAn=           0 IRanWt=          -1 IRanGd=           0.
 NRdTot=    1095 NPtTot=      139412 NUsed=      147146 NTot=      147178
 NSgBfM=   262   262   262   262.
 Leave Link  302 at Fri Aug 25 21:22:23 2006, MaxMem=    6291456 cpu:       3.3
 (Enter /usr/local/Gaussian/g03/l303.exe)
 DipDrv:  MaxL=1.
 Leave Link  303 at Fri Aug 25 21:22:24 2006, MaxMem=    6291456 cpu:       0.2
 (Enter /usr/local/Gaussian/g03/l401.exe)
 Harris functional with IExCor=  402 diagonalized for initial guess.
 ExpMin= 4.38D-02 ExpMax= 1.06D+05 ExpMxC= 3.62D+03 IAcc=2 IRadAn=         4 AccDes= 0.00D+00
 HarFok:  IExCor= 402 AccDes= 0.00D+00 IRadAn=         4 IDoV=1
 ScaDFX=  1.000000  1.000000  1.000000  1.000000
 Harris En= -807.149788074310    
 Initial guess orbital symmetries:
 Alpha Orbitals:
       Occupied  (A) (A) (A) (A) (A) (A) (A) (A) (A) (A) (A) (A)
                 (A) (A) (A) (A) (A) (A) (A) (A) (A) (A) (A) (A)
                 (A) (A) (A) (A) (A) (A) (A) (A) (A) (A) (A) (A)
                 (A) (A)
       Virtual   (A) (A) (A) (A) (A) (A) (A) (A) (A) (A) (A) (A)
                 (A) (A) (A) (A) (A) (A) (A) (A) (A) (A) (A) (A)
                 (A) (A) (A) (A) (A) (A) (A) (A) (A) (A) (A) (A)
                 (A) (A) (A) (A) (A) (A) (A) (A) (A) (A) (A) (A)
                 (A) (A) (A) (A) (A) (A) (A) (A) (A) (A) (A) (A)
                 (A) (A) (A) (A) (A) (A) (A) (A) (A) (A) (A) (A)
                 (A) (A) (A) (A) (A) (A) (A) (A) (A) (A) (A) (A)
                 (A) (A) (A) (A) (A) (A) (A) (A) (A) (A) (A) (A)
                 (A) (A) (A) (A) (A) (A) (A) (A) (A) (A) (A) (A)
                 (A) (A) (A) (A) (A) (A) (A) (A) (A) (A) (A) (A)
                 (A) (A) (A) (A) (A) (A) (A) (A) (A) (A) (A) (A)
                 (A) (A) (A) (A) (A) (A) (A) (A) (A) (A) (A) (A)
                 (A) (A) (A) (A) (A) (A) (A) (A) (A) (A) (A) (A)
                 (A) (A) (A) (A) (A) (A) (A) (A) (A) (A) (A) (A)
                 (A) (A) (A) (A) (A) (A) (A) (A) (A) (A) (A) (A)
                 (A) (A) (A) (A) (A) (A) (A) (A) (A) (A) (A) (A)
                 (A) (A) (A) (A) (A) (A) (A) (A) (A) (A) (A) (A)
                 (A) (A) (A) (A) (A) (A) (A) (A) (A) (A) (A) (A)
 Beta  Orbitals:
       Occupied  (A) (A) (A) (A) (A) (A) (A) (A) (A) (A) (A) (A)
                 (A) (A) (A) (A) (A) (A) (A) (A) (A) (A) (A) (A)
                 (A) (A) (A) (A) (A) (A) (A) (A) (A) (A) (A) (A)
                 (A)
       Virtual   (A) (A) (A) (A) (A) (A) (A) (A) (A) (A) (A) (A)
                 (A) (A) (A) (A) (A) (A) (A) (A) (A) (A) (A) (A)
                 (A) (A) (A) (A) (A) (A) (A) (A) (A) (A) (A) (A)
                 (A) (A) (A) (A) (A) (A) (A) (A) (A) (A) (A) (A)
                 (A) (A) (A) (A) (A) (A) (A) (A) (A) (A) (A) (A)
                 (A) (A) (A) (A) (A) (A) (A) (A) (A) (A) (A) (A)
                 (A) (A) (A) (A) (A) (A) (A) (A) (A) (A) (A) (A)
                 (A) (A) (A) (A) (A) (A) (A) (A) (A) (A) (A) (A)
                 (A) (A) (A) (A) (A) (A) (A) (A) (A) (A) (A) (A)
                 (A) (A) (A) (A) (A) (A) (A) (A) (A) (A) (A) (A)
                 (A) (A) (A) (A) (A) (A) (A) (A) (A) (A) (A) (A)
                 (A) (A) (A) (A) (A) (A) (A) (A) (A) (A) (A) (A)
                 (A) (A) (A) (A) (A) (A) (A) (A) (A) (A) (A) (A)
                 (A) (A) (A) (A) (A) (A) (A) (A) (A) (A) (A) (A)
                 (A) (A) (A) (A) (A) (A) (A) (A) (A) (A) (A) (A)
                 (A) (A) (A) (A) (A) (A) (A) (A) (A) (A) (A) (A)
                 (A) (A) (A) (A) (A) (A) (A) (A) (A) (A) (A) (A)
                 (A) (A) (A) (A) (A) (A) (A) (A) (A) (A) (A) (A)
                 (A)
 The electronic state of the initial guess is 2-A.
 <S**2> of initial guess= 0.7500
 Leave Link  401 at Fri Aug 25 21:24:39 2006, MaxMem=    6291456 cpu:      42.7
 (Enter /usr/local/Gaussian/g03/l502.exe)
 UHF open shell SCF:
 Requested convergence on RMS density matrix=1.00D-08 within 128 cycles.
 Requested convergence on MAX density matrix=1.00D-06.
 Requested convergence on             energy=1.00D-06.
 No special actions if energy rises.
 Using DIIS extrapolation, IDIIS=  1040.
 Integral symmetry usage will be decided dynamically.
       147145 words used for storage of precomputed grid.
 IEnd=    409487 IEndB=    409487 NGot=   6291456 MDV=   5968042
 LenX=   5968042
 Fock matrices will be formed incrementally for  20 cycles.

 Cycle   1  Pass 1  IDiag  1:
 Petite list used in FoFDir.
 MinBra= 0 MaxBra= 2 Meth= 1.
 IRaf=       0 NMat=   1 IRICut=       1 DoRegI=T DoRafI=F ISym2E= 1 JSym2E=1.
 E= -806.818230137537    
 DIIS: error= 2.10D-02 at cycle   1 NSaved=   1.
 NSaved= 1 IEnMin= 1 EnMin= -806.818230137537     IErMin= 1 ErrMin= 2.10D-02
 ErrMax= 2.10D-02 EMaxC= 1.00D-01 BMatC= 9.91D-01 BMatP= 9.91D-01
 IDIUse=3 WtCom= 7.90D-01 WtEn= 2.10D-01
 Coeff-Com:  0.100D+01
 Coeff-En:   0.100D+01
 Coeff:      0.100D+01
 Gap=     0.250 Goal=   None    Shift=    0.000
 Gap=     0.117 Goal=   None    Shift=    0.000
 GapD=    0.117 DampG=1.000 DampE=0.500 DampFc=0.5000 IDamp=-1.
 Damping current iteration by 5.00D-01
 RMSDP=1.12D-02 MaxDP=8.18D-01              OVMax= 2.45D-01

 Cycle   2  Pass 1  IDiag  1:
 RMSU=  5.54D-03    CP:  1.03D+00
 E= -806.920054095342     Delta-E=       -0.101823957806 Rises=F Damp=T
 DIIS: error= 4.93D-03 at cycle   2 NSaved=   2.
 NSaved= 2 IEnMin= 2 EnMin= -806.920054095342     IErMin= 2 ErrMin= 4.93D-03
 ErrMax= 4.93D-03 EMaxC= 1.00D-01 BMatC= 6.40D-02 BMatP= 9.91D-01
 IDIUse=3 WtCom= 9.51D-01 WtEn= 4.93D-02
 Coeff-Com:  0.309D-01 0.969D+00
 Coeff-En:   0.122D+00 0.878D+00
 Coeff:      0.354D-01 0.965D+00
 Gap=     0.241 Goal=   None    Shift=    0.000
 Gap=     0.118 Goal=   None    Shift=    0.000
 RMSDP=6.29D-03 MaxDP=5.22D-01 DE=-1.02D-01 OVMax= 2.02D-01

 Cycle   3  Pass 1  IDiag  1:
 RMSU=  6.10D-03    CP:  1.02D+00  7.23D-01
 E= -807.034068342922     Delta-E=       -0.114014247580 Rises=F Damp=F
 DIIS: error= 9.61D-03 at cycle   3 NSaved=   3.
 NSaved= 3 IEnMin= 3 EnMin= -807.034068342922     IErMin= 2 ErrMin= 4.93D-03
 ErrMax= 9.61D-03 EMaxC= 1.00D-01 BMatC= 8.14D-02 BMatP= 6.40D-02
 IDIUse=3 WtCom= 9.26D-02 WtEn= 9.07D-01
 Coeff-Com: -0.430D-01 0.553D+00 0.490D+00
 Coeff-En:   0.000D+00 0.000D+00 0.100D+01
 Coeff:     -0.398D-02 0.512D-01 0.953D+00
 Gap=     0.230 Goal=   None    Shift=    0.000
 Gap=     0.115 Goal=   None    Shift=    0.000
 RMSDP=6.63D-03 MaxDP=5.56D-01 DE=-1.14D-01 OVMax= 2.18D-01

 Cycle   4  Pass 1  IDiag  1:
 RMSU=  2.78D-03    CP:  1.01D+00  9.85D-01  4.42D-02
 E= -806.979521645029     Delta-E=        0.054546697893 Rises=F Damp=F
 DIIS: error= 1.77D-02 at cycle   4 NSaved=   4.
 NSaved= 4 IEnMin= 3 EnMin= -807.034068342922     IErMin= 2 ErrMin= 4.93D-03
 ErrMax= 1.77D-02 EMaxC= 1.00D-01 BMatC= 2.74D-01 BMatP= 6.40D-02
 IDIUse=2 WtCom= 0.00D+00 WtEn= 1.00D+00
 Coeff-En:   0.000D+00 0.000D+00 0.726D+00 0.274D+00
 Coeff:      0.000D+00 0.000D+00 0.726D+00 0.274D+00
 Gap=     0.208 Goal=   None    Shift=    0.000
 Gap=     0.104 Goal=   None    Shift=    0.000
 RMSDP=2.83D-03 MaxDP=2.73D-01 DE= 5.45D-02 OVMax= 1.11D-01

 Cycle   5  Pass 1  IDiag  1:
 RMSU=  1.10D-03    CP:  9.92D-01  8.98D-01  4.17D-01  6.34D-01
 E= -807.052564086222     Delta-E=       -0.073042441192 Rises=F Damp=F
 DIIS: error= 3.43D-03 at cycle   5 NSaved=   5.
 NSaved= 5 IEnMin= 5 EnMin= -807.052564086222     IErMin= 5 ErrMin= 3.43D-03
 ErrMax= 3.43D-03 EMaxC= 1.00D-01 BMatC= 1.36D-02 BMatP= 6.40D-02
 IDIUse=3 WtCom= 9.66D-01 WtEn= 3.43D-02
 Coeff-Com:  0.750D-02-0.551D-02 0.251D+00-0.302D-01 0.777D+00
 Coeff-En:   0.000D+00 0.000D+00 0.181D+00 0.000D+00 0.819D+00
 Coeff:      0.724D-02-0.532D-02 0.249D+00-0.291D-01 0.778D+00
 Gap=     0.197 Goal=   None    Shift=    0.000
 Gap=     0.098 Goal=   None    Shift=    0.000
 RMSDP=1.12D-03 MaxDP=9.29D-02 DE=-7.30D-02 OVMax= 4.52D-02

 Cycle   6  Pass 1  IDiag  1:
 RMSU=  2.21D-04    CP:  9.96D-01  8.41D-01  5.73D-01  4.90D-01  8.94D-01
 E= -807.056304467577     Delta-E=       -0.003740381356 Rises=F Damp=F
 DIIS: error= 5.86D-04 at cycle   6 NSaved=   6.
 NSaved= 6 IEnMin= 6 EnMin= -807.056304467577     IErMin= 6 ErrMin= 5.86D-04
 ErrMax= 5.86D-04 EMaxC= 1.00D-01 BMatC= 3.33D-04 BMatP= 1.36D-02
 IDIUse=3 WtCom= 9.94D-01 WtEn= 5.86D-03
 Coeff-Com:  0.498D-02-0.169D-01 0.108D+00-0.495D-01 0.529D+00 0.425D+00
 Coeff-En:   0.000D+00 0.000D+00 0.000D+00 0.000D+00 0.000D+00 0.100D+01
 Coeff:      0.496D-02-0.168D-01 0.107D+00-0.492D-01 0.526D+00 0.428D+00
 Gap=     0.198 Goal=   None    Shift=    0.000
 Gap=     0.097 Goal=   None    Shift=    0.000
 RMSDP=1.82D-04 MaxDP=1.65D-02 DE=-3.74D-03 OVMax= 9.96D-03

 Cycle   7  Pass 1  IDiag  1:
 RMSU=  1.05D-04    CP:  9.95D-01  8.50D-01  5.58D-01  5.15D-01  9.56D-01
                    CP:  8.75D-01
 E= -807.056399521373     Delta-E=       -0.000095053796 Rises=F Damp=F
 DIIS: error= 1.33D-04 at cycle   7 NSaved=   7.
 NSaved= 7 IEnMin= 7 EnMin= -807.056399521373     IErMin= 7 ErrMin= 1.33D-04
 ErrMax= 1.33D-04 EMaxC= 1.00D-01 BMatC= 1.73D-05 BMatP= 3.33D-04
 IDIUse=3 WtCom= 9.99D-01 WtEn= 1.33D-03
 Coeff-Com:  0.162D-02-0.538D-02 0.172D-01-0.210D-01 0.149D+00 0.199D+00
 Coeff-Com:  0.659D+00
 Coeff-En:   0.000D+00 0.000D+00 0.000D+00 0.000D+00 0.000D+00 0.000D+00
 Coeff-En:   0.100D+01
 Coeff:      0.162D-02-0.537D-02 0.172D-01-0.210D-01 0.149D+00 0.199D+00
 Coeff:      0.660D+00
 Gap=     0.198 Goal=   None    Shift=    0.000
 Gap=     0.097 Goal=   None    Shift=    0.000
 RMSDP=4.65D-05 MaxDP=2.59D-03 DE=-9.51D-05 OVMax= 3.99D-03

 Cycle   8  Pass 1  IDiag  1:
 RMSU=  3.82D-05    CP:  9.95D-01  8.52D-01  5.57D-01  5.20D-01  9.61D-01
                    CP:  9.11D-01  8.52D-01
 E= -807.056406525405     Delta-E=       -0.000007004031 Rises=F Damp=F
 DIIS: error= 8.30D-05 at cycle   8 NSaved=   8.
 NSaved= 8 IEnMin= 8 EnMin= -807.056406525405     IErMin= 8 ErrMin= 8.30D-05
 ErrMax= 8.30D-05 EMaxC= 1.00D-01 BMatC= 8.15D-06 BMatP= 1.73D-05
 IDIUse=1 WtCom= 1.00D+00 WtEn= 0.00D+00
 Coeff-Com: -0.271D-03 0.397D-03-0.184D-01 0.102D-02-0.521D-01-0.281D-01
 Coeff-Com:  0.416D+00 0.681D+00
 Coeff:     -0.271D-03 0.397D-03-0.184D-01 0.102D-02-0.521D-01-0.281D-01
 Coeff:      0.416D+00 0.681D+00
 Gap=     0.198 Goal=   None    Shift=    0.000
 Gap=     0.097 Goal=   None    Shift=    0.000
 RMSDP=3.96D-05 MaxDP=3.51D-03 DE=-7.00D-06 OVMax= 8.76D-04

 Cycle   9  Pass 1  IDiag  1:
 RMSU=  1.73D-05    CP:  9.95D-01  8.55D-01  5.54D-01  5.26D-01  9.68D-01
                    CP:  9.51D-01  9.79D-01  1.22D+00
 E= -807.056409833512     Delta-E=       -0.000003308107 Rises=F Damp=F
 DIIS: error= 4.60D-05 at cycle   9 NSaved=   9.
 NSaved= 9 IEnMin= 9 EnMin= -807.056409833512     IErMin= 9 ErrMin= 4.60D-05
 ErrMax= 4.60D-05 EMaxC= 1.00D-01 BMatC= 1.15D-06 BMatP= 8.15D-06
 IDIUse=1 WtCom= 1.00D+00 WtEn= 0.00D+00
 Coeff-Com: -0.505D-03 0.157D-02-0.120D-01 0.642D-02-0.610D-01-0.776D-01
 Coeff-Com:  0.655D-01 0.242D+00 0.835D+00
 Coeff:     -0.505D-03 0.157D-02-0.120D-01 0.642D-02-0.610D-01-0.776D-01
 Coeff:      0.655D-01 0.242D+00 0.835D+00
 Gap=     0.198 Goal=   None    Shift=    0.000
 Gap=     0.097 Goal=   None    Shift=    0.000
 RMSDP=1.84D-05 MaxDP=1.20D-03 DE=-3.31D-06 OVMax= 6.92D-04

 Cycle  10  Pass 1  IDiag  1:
 RMSU=  9.51D-06    CP:  9.96D-01  8.55D-01  5.54D-01  5.28D-01  9.67D-01
                    CP:  9.91D-01  1.06D+00  1.28D+00  1.17D+00
 E= -807.056410662484     Delta-E=       -0.000000828972 Rises=F Damp=F
 DIIS: error= 2.50D-05 at cycle  10 NSaved=  10.
 NSaved=10 IEnMin=10 EnMin= -807.056410662484     IErMin=10 ErrMin= 2.50D-05
 ErrMax= 2.50D-05 EMaxC= 1.00D-01 BMatC= 4.14D-07 BMatP= 1.15D-06
 IDIUse=1 WtCom= 1.00D+00 WtEn= 0.00D+00
 Coeff-Com: -0.263D-03 0.701D-03-0.232D-02 0.360D-02-0.224D-01-0.406D-01
 Coeff-Com: -0.745D-01-0.476D-01 0.510D+00 0.673D+00
 Coeff:     -0.263D-03 0.701D-03-0.232D-02 0.360D-02-0.224D-01-0.406D-01
 Coeff:     -0.745D-01-0.476D-01 0.510D+00 0.673D+00
 Gap=     0.198 Goal=   None    Shift=    0.000
 Gap=     0.098 Goal=   None    Shift=    0.000
 RMSDP=1.03D-05 MaxDP=1.05D-03 DE=-8.29D-07 OVMax= 3.91D-04

 Cycle  11  Pass 1  IDiag  1:
 RMSU=  4.05D-06    CP:  9.96D-01  8.56D-01  5.53D-01  5.29D-01  9.66D-01
                    CP:  1.00D+00  1.08D+00  1.35D+00  1.40D+00  1.14D+00
 E= -807.056410918116     Delta-E=       -0.000000255631 Rises=F Damp=F
 DIIS: error= 1.13D-05 at cycle  11 NSaved=  11.
 NSaved=11 IEnMin=11 EnMin= -807.056410918116     IErMin=11 ErrMin= 1.13D-05
 ErrMax= 1.13D-05 EMaxC= 1.00D-01 BMatC= 8.75D-08 BMatP= 4.14D-07
 IDIUse=1 WtCom= 1.00D+00 WtEn= 0.00D+00
 Coeff-Com:  0.822D-04-0.233D-03 0.364D-02-0.108D-02 0.138D-01 0.157D-01
 Coeff-Com: -0.586D-01-0.942D-01-0.965D-01 0.267D+00 0.950D+00
 Coeff:      0.822D-04-0.233D-03 0.364D-02-0.108D-02 0.138D-01 0.157D-01
 Coeff:     -0.586D-01-0.942D-01-0.965D-01 0.267D+00 0.950D+00
 Gap=     0.198 Goal=   None    Shift=    0.000
 Gap=     0.098 Goal=   None    Shift=    0.000
 RMSDP=6.68D-06 MaxDP=4.60D-04 DE=-2.56D-07 OVMax= 2.50D-04

 Cycle  12  Pass 1  IDiag  1:
 RMSU=  2.64D-06    CP:  9.96D-01  8.56D-01  5.53D-01  5.30D-01  9.68D-01
                    CP:  9.91D-01  1.06D+00  1.40D+00  1.52D+00  1.29D+00
                    CP:  1.34D+00
 E= -807.056410991718     Delta-E=       -0.000000073602 Rises=F Damp=F
 DIIS: error= 4.61D-06 at cycle  12 NSaved=  12.
 NSaved=12 IEnMin=12 EnMin= -807.056410991718     IErMin=12 ErrMin= 4.61D-06
 ErrMax= 4.61D-06 EMaxC= 1.00D-01 BMatC= 2.90D-08 BMatP= 8.75D-08
 IDIUse=1 WtCom= 1.00D+00 WtEn= 0.00D+00
 Coeff-Com:  0.958D-04-0.236D-03 0.221D-02-0.135D-02 0.111D-01 0.177D-01
 Coeff-Com: -0.178D-01-0.254D-01-0.160D+00-0.162D-01 0.421D+00 0.769D+00
 Coeff:      0.958D-04-0.236D-03 0.221D-02-0.135D-02 0.111D-01 0.177D-01
 Coeff:     -0.178D-01-0.254D-01-0.160D+00-0.162D-01 0.421D+00 0.769D+00
 Gap=     0.198 Goal=   None    Shift=    0.000
 Gap=     0.097 Goal=   None    Shift=    0.000
 RMSDP=3.33D-06 MaxDP=2.10D-04 DE=-7.36D-08 OVMax= 1.02D-04

 Cycle  13  Pass 1  IDiag  1:
 RMSU=  1.02D-06    CP:  9.96D-01  8.56D-01  5.53D-01  5.30D-01  9.68D-01
                    CP:  9.91D-01  1.06D+00  1.39D+00  1.54D+00  1.42D+00
                    CP:  1.52D+00  1.28D+00
 E= -807.056411006400     Delta-E=       -0.000000014682 Rises=F Damp=F
 DIIS: error= 1.63D-06 at cycle  13 NSaved=  13.
 NSaved=13 IEnMin=13 EnMin= -807.056411006400     IErMin=13 ErrMin= 1.63D-06
 ErrMax= 1.63D-06 EMaxC= 1.00D-01 BMatC= 3.97D-09 BMatP= 2.90D-08
 IDIUse=1 WtCom= 1.00D+00 WtEn= 0.00D+00
 Coeff-Com:  0.391D-04-0.924D-04 0.561D-03-0.474D-03 0.324D-02 0.644D-02
 Coeff-Com: -0.199D-02 0.342D-02-0.603D-01-0.393D-01 0.512D-01 0.315D+00
 Coeff-Com:  0.722D+00
 Coeff:      0.391D-04-0.924D-04 0.561D-03-0.474D-03 0.324D-02 0.644D-02
 Coeff:     -0.199D-02 0.342D-02-0.603D-01-0.393D-01 0.512D-01 0.315D+00
 Coeff:      0.722D+00
 Gap=     0.198 Goal=   None    Shift=    0.000
 Gap=     0.097 Goal=   None    Shift=    0.000
 RMSDP=1.19D-06 MaxDP=8.89D-05 DE=-1.47D-08 OVMax= 3.37D-05

 Cycle  14  Pass 1  IDiag  1:
 RMSU=  3.64D-07    CP:  9.96D-01  8.56D-01  5.54D-01  5.30D-01  9.68D-01
                    CP:  9.91D-01  1.06D+00  1.38D+00  1.55D+00  1.45D+00
                    CP:  1.57D+00  1.41D+00  1.12D+00
 E= -807.056411007983     Delta-E=       -0.000000001583 Rises=F Damp=F
 DIIS: error= 7.10D-07 at cycle  14 NSaved=  14.
 NSaved=14 IEnMin=14 EnMin= -807.056411007983     IErMin=14 ErrMin= 7.10D-07
 ErrMax= 7.10D-07 EMaxC= 1.00D-01 BMatC= 7.45D-10 BMatP= 3.97D-09
 IDIUse=1 WtCom= 1.00D+00 WtEn= 0.00D+00
 Coeff-Com:  0.330D-05-0.868D-05-0.922D-04 0.722D-05-0.346D-03 0.132D-03
 Coeff-Com:  0.140D-02 0.657D-02-0.125D-02-0.154D-01-0.516D-01 0.127D-01
 Coeff-Com:  0.392D+00 0.655D+00
 Coeff:      0.330D-05-0.868D-05-0.922D-04 0.722D-05-0.346D-03 0.132D-03
 Coeff:      0.140D-02 0.657D-02-0.125D-02-0.154D-01-0.516D-01 0.127D-01
 Coeff:      0.392D+00 0.655D+00
 Gap=     0.198 Goal=   None    Shift=    0.000
 Gap=     0.097 Goal=   None    Shift=    0.000
 RMSDP=3.92D-07 MaxDP=2.97D-05 DE=-1.58D-09 OVMax= 1.41D-05

 Cycle  15  Pass 1  IDiag  1:
 RMSU=  1.79D-07    CP:  9.96D-01  8.56D-01  5.54D-01  5.30D-01  9.68D-01
                    CP:  9.91D-01  1.06D+00  1.38D+00  1.55D+00  1.46D+00
                    CP:  1.60D+00  1.45D+00  1.18D+00  9.67D-01
 E= -807.056411008258     Delta-E=       -0.000000000276 Rises=F Damp=F
 DIIS: error= 3.48D-07 at cycle  15 NSaved=  15.
 NSaved=15 IEnMin=15 EnMin= -807.056411008258     IErMin=15 ErrMin= 3.48D-07
 ErrMax= 3.48D-07 EMaxC= 1.00D-01 BMatC= 9.45D-11 BMatP= 7.45D-10
 IDIUse=1 WtCom= 1.00D+00 WtEn= 0.00D+00
 Coeff-Com: -0.454D-05 0.103D-04-0.115D-03 0.714D-04-0.613D-03-0.800D-03
 Coeff-Com:  0.706D-03 0.236D-02 0.767D-02-0.112D-02-0.301D-01-0.377D-01
 Coeff-Com:  0.779D-01 0.314D+00 0.667D+00
 Coeff:     -0.454D-05 0.103D-04-0.115D-03 0.714D-04-0.613D-03-0.800D-03
 Coeff:      0.706D-03 0.236D-02 0.767D-02-0.112D-02-0.301D-01-0.377D-01
 Coeff:      0.779D-01 0.314D+00 0.667D+00
 Gap=     0.198 Goal=   None    Shift=    0.000
 Gap=     0.097 Goal=   None    Shift=    0.000
 RMSDP=1.83D-07 MaxDP=1.11D-05 DE=-2.76D-10 OVMax= 8.15D-06

 Cycle  16  Pass 1  IDiag  1:
 RMSU=  6.62D-08    CP:  9.96D-01  8.56D-01  5.54D-01  5.30D-01  9.68D-01
                    CP:  9.91D-01  1.06D+00  1.38D+00  1.55D+00  1.46D+00
                    CP:  1.60D+00  1.47D+00  1.22D+00  1.12D+00  9.04D-01
 E= -807.056411008298     Delta-E=       -0.000000000039 Rises=F Damp=F
 DIIS: error= 1.50D-07 at cycle  16 NSaved=  16.
 NSaved=16 IEnMin=16 EnMin= -807.056411008298     IErMin=16 ErrMin= 1.50D-07
 ErrMax= 1.50D-07 EMaxC= 1.00D-01 BMatC= 2.37D-11 BMatP= 9.45D-11
 IDIUse=1 WtCom= 1.00D+00 WtEn= 0.00D+00
 Coeff-Com: -0.319D-05 0.653D-05-0.345D-04 0.302D-04-0.202D-03-0.351D-03
 Coeff-Com: -0.435D-04-0.471D-03 0.363D-02 0.317D-02-0.108D-02-0.191D-01
 Coeff-Com: -0.621D-01-0.117D-01 0.348D+00 0.740D+00
 Coeff:     -0.319D-05 0.653D-05-0.345D-04 0.302D-04-0.202D-03-0.351D-03
 Coeff:     -0.435D-04-0.471D-03 0.363D-02 0.317D-02-0.108D-02-0.191D-01
 Coeff:     -0.621D-01-0.117D-01 0.348D+00 0.740D+00
 Gap=     0.198 Goal=   None    Shift=    0.000
 Gap=     0.097 Goal=   None    Shift=    0.000
 RMSDP=9.31D-08 MaxDP=5.61D-06 DE=-3.93D-11 OVMax= 5.79D-06

 Cycle  17  Pass 1  IDiag  1:
 RMSU=  3.89D-08    CP:  9.96D-01  8.56D-01  5.54D-01  5.30D-01  9.68D-01
                    CP:  9.91D-01  1.06D+00  1.38D+00  1.55D+00  1.46D+00
                    CP:  1.61D+00  1.48D+00  1.24D+00  1.14D+00  1.05D+00
                    CP:  1.24D+00
 E= -807.056411008321     Delta-E=       -0.000000000023 Rises=F Damp=F
 DIIS: error= 9.14D-08 at cycle  17 NSaved=  17.
 NSaved=17 IEnMin=17 EnMin= -807.056411008321     IErMin=17 ErrMin= 9.14D-08
 ErrMax= 9.14D-08 EMaxC= 1.00D-01 BMatC= 3.16D-12 BMatP= 2.37D-11
 IDIUse=1 WtCom= 1.00D+00 WtEn= 0.00D+00
 Coeff-Com: -0.402D-06 0.824D-06 0.622D-05-0.916D-06 0.283D-04 0.180D-04
 Coeff-Com: -0.100D-03-0.537D-03-0.340D-04 0.125D-02 0.466D-02-0.607D-03
 Coeff-Com: -0.371D-01-0.645D-01 0.109D-01 0.256D+00 0.830D+00
 Coeff:     -0.402D-06 0.824D-06 0.622D-05-0.916D-06 0.283D-04 0.180D-04
 Coeff:     -0.100D-03-0.537D-03-0.340D-04 0.125D-02 0.466D-02-0.607D-03
 Coeff:     -0.371D-01-0.645D-01 0.109D-01 0.256D+00 0.830D+00
 Gap=     0.198 Goal=   None    Shift=    0.000
 Gap=     0.097 Goal=   None    Shift=    0.000
 RMSDP=5.48D-08 MaxDP=3.56D-06 DE=-2.30D-11 OVMax= 3.97D-06

 Cycle  18  Pass 1  IDiag  1:
 RMSU=  1.63D-08    CP:  9.96D-01  8.56D-01  5.54D-01  5.30D-01  9.68D-01
                    CP:  9.91D-01  1.06D+00  1.38D+00  1.55D+00  1.47D+00
                    CP:  1.61D+00  1.49D+00  1.25D+00  1.18D+00  1.12D+00
                    CP:  1.50D+00  1.31D+00
 E= -807.056411008325     Delta-E=       -0.000000000004 Rises=F Damp=F
 DIIS: error= 5.80D-08 at cycle  18 NSaved=  18.
 NSaved=18 IEnMin=18 EnMin= -807.056411008325     IErMin=18 ErrMin= 5.80D-08
 ErrMax= 5.80D-08 EMaxC= 1.00D-01 BMatC= 1.24D-12 BMatP= 3.16D-12
 IDIUse=1 WtCom= 1.00D+00 WtEn= 0.00D+00
 Coeff-Com:  0.488D-06-0.917D-06 0.110D-04-0.648D-05 0.569D-04 0.799D-04
 Coeff-Com: -0.404D-04-0.197D-03-0.810D-03 0.131D-04 0.280D-02 0.366D-02
 Coeff-Com: -0.610D-02-0.320D-01-0.691D-01-0.197D-01 0.445D+00 0.676D+00
 Coeff:      0.488D-06-0.917D-06 0.110D-04-0.648D-05 0.569D-04 0.799D-04
 Coeff:     -0.404D-04-0.197D-03-0.810D-03 0.131D-04 0.280D-02 0.366D-02
 Coeff:     -0.610D-02-0.320D-01-0.691D-01-0.197D-01 0.445D+00 0.676D+00
 Gap=     0.198 Goal=   None    Shift=    0.000
 Gap=     0.097 Goal=   None    Shift=    0.000
 RMSDP=3.02D-08 MaxDP=1.57D-06 DE=-4.09D-12 OVMax= 2.12D-06

 Cycle  19  Pass 1  IDiag  1:
 RMSU=  7.39D-09    CP:  9.96D-01  8.56D-01  5.54D-01  5.30D-01  9.68D-01
                    CP:  9.91D-01  1.06D+00  1.38D+00  1.55D+00  1.47D+00
                    CP:  1.61D+00  1.49D+00  1.25D+00  1.19D+00  1.16D+00
                    CP:  1.63D+00  1.56D+00  1.42D+00
 E= -807.056411008330     Delta-E=       -0.000000000005 Rises=F Damp=F
 DIIS: error= 3.67D-08 at cycle  19 NSaved=  19.
 NSaved=19 IEnMin=19 EnMin= -807.056411008330     IErMin=19 ErrMin= 3.67D-08
 ErrMax= 3.67D-08 EMaxC= 1.00D-01 BMatC= 2.33D-13 BMatP= 1.24D-12
 IDIUse=1 WtCom= 1.00D+00 WtEn= 0.00D+00
 Coeff-Com:  0.358D-06-0.782D-06 0.175D-05-0.191D-05 0.105D-04 0.170D-04
 Coeff-Com:  0.378D-04 0.107D-03-0.285D-03-0.383D-03-0.535D-03 0.113D-02
 Coeff-Com:  0.101D-01 0.130D-01-0.206D-01-0.780D-01-0.184D+00 0.123D+00
 Coeff-Com:  0.114D+01
 Coeff:      0.358D-06-0.782D-06 0.175D-05-0.191D-05 0.105D-04 0.170D-04
 Coeff:      0.378D-04 0.107D-03-0.285D-03-0.383D-03-0.535D-03 0.113D-02
 Coeff:      0.101D-01 0.130D-01-0.206D-01-0.780D-01-0.184D+00 0.123D+00
 Coeff:      0.114D+01
 Gap=     0.198 Goal=   None    Shift=    0.000
 Gap=     0.097 Goal=   None    Shift=    0.000
 RMSDP=3.30D-08 MaxDP=1.87D-06 DE=-4.77D-12 OVMax= 2.17D-06

 Cycle  20  Pass 1  IDiag  1:
 Restarting incremental Fock formation.
 E= -807.056411008326     Delta-E=        0.000000000004 Rises=F Damp=F
 DIIS: error= 1.39D-08 at cycle  20 NSaved=  20.
 NSaved=20 IEnMin=19 EnMin= -807.056411008330     IErMin=20 ErrMin= 1.39D-08
 ErrMax= 1.39D-08 EMaxC= 1.00D-01 BMatC= 4.16D-14 BMatP= 2.33D-13
 IDIUse=1 WtCom= 1.00D+00 WtEn= 0.00D+00
 Coeff-Com: -0.117D-06 0.224D-06-0.276D-05 0.141D-05-0.140D-04-0.212D-04
 Coeff-Com:  0.202D-04 0.613D-04 0.181D-03-0.589D-04-0.718D-03-0.992D-03
 Coeff-Com:  0.252D-02 0.956D-02 0.160D-01-0.391D-02-0.130D+00-0.165D+00
 Coeff-Com:  0.149D+00 0.112D+01
 Coeff:     -0.117D-06 0.224D-06-0.276D-05 0.141D-05-0.140D-04-0.212D-04
 Coeff:      0.202D-04 0.613D-04 0.181D-03-0.589D-04-0.718D-03-0.992D-03
 Coeff:      0.252D-02 0.956D-02 0.160D-01-0.391D-02-0.130D+00-0.165D+00
 Coeff:      0.149D+00 0.112D+01
 Gap=     0.198 Goal=   None    Shift=    0.000
 Gap=     0.097 Goal=   None    Shift=    0.000
 RMSDP=1.61D-08 MaxDP=9.00D-07 DE= 3.64D-12 OVMax= 1.15D-06

 Cycle  21  Pass 1  IDiag  1:
 RMSU=  1.61D-08    CP:  1.00D+00
 E= -807.056411008328     Delta-E=       -0.000000000002 Rises=F Damp=F
 DIIS: error= 4.27D-09 at cycle  21 NSaved=  20.
 NSaved=20 IEnMin=18 EnMin= -807.056411008330     IErMin=20 ErrMin= 4.27D-09
 ErrMax= 4.27D-09 EMaxC= 1.00D-01 BMatC= 6.81D-15 BMatP= 4.16D-14
 IDIUse=1 WtCom= 1.00D+00 WtEn= 0.00D+00
 Coeff-Com: -0.216D-07 0.387D-06-0.339D-06 0.247D-05 0.425D-05-0.344D-05
 Coeff-Com: -0.574D-05-0.191D-04-0.166D-04 0.887D-04 0.291D-04-0.249D-03
 Coeff-Com: -0.686D-04 0.319D-02 0.375D-02 0.562D-03-0.482D-01-0.110D+00
 Coeff-Com:  0.241D+00 0.909D+00
 Coeff:     -0.216D-07 0.387D-06-0.339D-06 0.247D-05 0.425D-05-0.344D-05
 Coeff:     -0.574D-05-0.191D-04-0.166D-04 0.887D-04 0.291D-04-0.249D-03
 Coeff:     -0.686D-04 0.319D-02 0.375D-02 0.562D-03-0.482D-01-0.110D+00
 Coeff:      0.241D+00 0.909D+00
 Gap=     0.198 Goal=   None    Shift=    0.000
 Gap=     0.097 Goal=   None    Shift=    0.000
 RMSDP=4.41D-09 MaxDP=2.31D-07 DE=-1.82D-12 OVMax= 3.10D-07

 SCF Done:  E(UB+HF-LYP) =  -807.056411008     A.U. after   21 cycles
             Convg  =    0.4412D-08             -V/T =  2.0031
             S**2   =   0.7569
 KE= 8.045234718388D+02 PE=-2.862274183967D+03 EE= 7.702696463147D+02
 Annihilation of the first spin contaminant:
 S**2 before annihilation     0.7569,   after     0.7500
 Leave Link  502 at Sat Aug 26 02:57:10 2006, MaxMem=    6291456 cpu:    6196.8
 (Enter /usr/local/Gaussian/g03/l601.exe)
 Copying SCF densities to generalized density rwf, ISCF=1 IROHF=0.

 **********************************************************************

            Population analysis using the SCF density.

 **********************************************************************

 Orbital symmetries:
 Alpha Orbitals:
       Occupied  (A) (A) (A) (A) (A) (A) (A) (A) (A) (A) (A) (A)
                 (A) (A) (A) (A) (A) (A) (A) (A) (A) (A) (A) (A)
                 (A) (A) (A) (A) (A) (A) (A) (A) (A) (A) (A) (A)
                 (A) (A)
       Virtual   (A) (A) (A) (A) (A) (A) (A) (A) (A) (A) (A) (A)
                 (A) (A) (A) (A) (A) (A) (A) (A) (A) (A) (A) (A)
                 (A) (A) (A) (A) (A) (A) (A) (A) (A) (A) (A) (A)
                 (A) (A) (A) (A) (A) (A) (A) (A) (A) (A) (A) (A)
                 (A) (A) (A) (A) (A) (A) (A) (A) (A) (A) (A) (A)
                 (A) (A) (A) (A) (A) (A) (A) (A) (A) (A) (A) (A)
                 (A) (A) (A) (A) (A) (A) (A) (A) (A) (A) (A) (A)
                 (A) (A) (A) (A) (A) (A) (A) (A) (A) (A) (A) (A)
                 (A) (A) (A) (A) (A) (A) (A) (A) (A) (A) (A) (A)
                 (A) (A) (A) (A) (A) (A) (A) (A) (A) (A) (A) (A)
                 (A) (A) (A) (A) (A) (A) (A) (A) (A) (A) (A) (A)
                 (A) (A) (A) (A) (A) (A) (A) (A) (A) (A) (A) (A)
                 (A) (A) (A) (A) (A) (A) (A) (A) (A) (A) (A) (A)
                 (A) (A) (A) (A) (A) (A) (A) (A) (A) (A) (A) (A)
                 (A) (A) (A) (A) (A) (A) (A) (A) (A) (A) (A) (A)
                 (A) (A) (A) (A) (A) (A) (A) (A) (A) (A) (A) (A)
                 (A) (A) (A) (A) (A) (A) (A) (A) (A) (A) (A) (A)
                 (A) (A) (A) (A) (A) (A) (A) (A) (A) (A) (A) (A)
 Beta  Orbitals:
       Occupied  (A) (A) (A) (A) (A) (A) (A) (A) (A) (A) (A) (A)
                 (A) (A) (A) (A) (A) (A) (A) (A) (A) (A) (A) (A)
                 (A) (A) (A) (A) (A) (A) (A) (A) (A) (A) (A) (A)
                 (A)
       Virtual   (A) (A) (A) (A) (A) (A) (A) (A) (A) (A) (A) (A)
                 (A) (A) (A) (A) (A) (A) (A) (A) (A) (A) (A) (A)
                 (A) (A) (A) (A) (A) (A) (A) (A) (A) (A) (A) (A)
                 (A) (A) (A) (A) (A) (A) (A) (A) (A) (A) (A) (A)
                 (A) (A) (A) (A) (A) (A) (A) (A) (A) (A) (A) (A)
                 (A) (A) (A) (A) (A) (A) (A) (A) (A) (A) (A) (A)
                 (A) (A) (A) (A) (A) (A) (A) (A) (A) (A) (A) (A)
                 (A) (A) (A) (A) (A) (A) (A) (A) (A) (A) (A) (A)
                 (A) (A) (A) (A) (A) (A) (A) (A) (A) (A) (A) (A)
                 (A) (A) (A) (A) (A) (A) (A) (A) (A) (A) (A) (A)
                 (A) (A) (A) (A) (A) (A) (A) (A) (A) (A) (A) (A)
                 (A) (A) (A) (A) (A) (A) (A) (A) (A) (A) (A) (A)
                 (A) (A) (A) (A) (A) (A) (A) (A) (A) (A) (A) (A)
                 (A) (A) (A) (A) (A) (A) (A) (A) (A) (A) (A) (A)
                 (A) (A) (A) (A) (A) (A) (A) (A) (A) (A) (A) (A)
                 (A) (A) (A) (A) (A) (A) (A) (A) (A) (A) (A) (A)
                 (A) (A) (A) (A) (A) (A) (A) (A) (A) (A) (A) (A)
                 (A) (A) (A) (A) (A) (A) (A) (A) (A) (A) (A) (A)
                 (A)
 The electronic state is 2-A.
 Alpha  occ. eigenvalues -- -101.49713 -19.19484 -10.27558 -10.25211 -10.21469
 Alpha  occ. eigenvalues --  -10.21072 -10.20533 -10.20166 -10.19815  -9.40936
 Alpha  occ. eigenvalues --   -7.17807  -7.16396  -7.16386  -1.11346  -0.88886
 Alpha  occ. eigenvalues --   -0.79602  -0.78310  -0.75311  -0.72752  -0.64364
 Alpha  occ. eigenvalues --   -0.62534  -0.57121  -0.52063  -0.51518  -0.50664
 Alpha  occ. eigenvalues --   -0.47566  -0.45716  -0.44728  -0.41926  -0.40148
 Alpha  occ. eigenvalues --   -0.39314  -0.37269  -0.35999  -0.30545  -0.29555
 Alpha  occ. eigenvalues --   -0.27287  -0.26854  -0.23821
 Alpha virt. eigenvalues --   -0.04031  -0.03288  -0.01109   0.00751   0.01109
 Alpha virt. eigenvalues --    0.02398   0.03333   0.03365   0.04113   0.05830
 Alpha virt. eigenvalues --    0.06192   0.06722   0.07902   0.08032   0.09277
 Alpha virt. eigenvalues --    0.10460   0.10831   0.11166   0.11863   0.12115
 Alpha virt. eigenvalues --    0.12555   0.12997   0.13281   0.14161   0.14276
 Alpha virt. eigenvalues --    0.15247   0.15778   0.16811   0.17392   0.18104
 Alpha virt. eigenvalues --    0.18719   0.19455   0.19690   0.19943   0.20444
 Alpha virt. eigenvalues --    0.21422   0.21848   0.22596   0.23099   0.23646
 Alpha virt. eigenvalues --    0.24861   0.24933   0.25672   0.26448   0.27453
 Alpha virt. eigenvalues --    0.28892   0.29547   0.30088   0.32216   0.33230
 Alpha virt. eigenvalues --    0.34804   0.35664   0.37278   0.40841   0.43959
 Alpha virt. eigenvalues --    0.46219   0.47180   0.49625   0.49950   0.50151
 Alpha virt. eigenvalues --    0.51462   0.51923   0.52861   0.53254   0.55500
 Alpha virt. eigenvalues --    0.56526   0.57436   0.58540   0.59555   0.60911
 Alpha virt. eigenvalues --    0.61859   0.62141   0.64497   0.64808   0.66872
 Alpha virt. eigenvalues --    0.68387   0.68996   0.71041   0.71779   0.72906
 Alpha virt. eigenvalues --    0.73752   0.75369   0.78555   0.81112   0.81363
 Alpha virt. eigenvalues --    0.82638   0.83286   0.85440   0.87812   0.88460
 Alpha virt. eigenvalues --    0.90645   0.93257   0.94041   0.95331   0.95849
 Alpha virt. eigenvalues --    0.96678   0.97572   0.99317   0.99669   1.03295
 Alpha virt. eigenvalues --    1.04722   1.05895   1.06530   1.08908   1.11314
 Alpha virt. eigenvalues --    1.12500   1.21463   1.26027   1.26826   1.30163
 Alpha virt. eigenvalues --    1.33765   1.39867   1.40766   1.44233   1.47022
 Alpha virt. eigenvalues --    1.49608   1.50667   1.53693   1.54692   1.55297
 Alpha virt. eigenvalues --    1.57812   1.60325   1.62554   1.63060   1.66544
 Alpha virt. eigenvalues --    1.67008   1.67953   1.69730   1.74072   1.75110
 Alpha virt. eigenvalues --    1.75476   1.78200   1.81649   1.86282   1.87063
 Alpha virt. eigenvalues --    1.90312   1.92120   1.93833   1.94568   1.95580
 Alpha virt. eigenvalues --    1.99648   2.01101   2.03419   2.05642   2.06199
 Alpha virt. eigenvalues --    2.08857   2.14792   2.22479   2.26371   2.29692
 Alpha virt. eigenvalues --    2.32170   2.32998   2.36609   2.38933   2.40471
 Alpha virt. eigenvalues --    2.41306   2.44066   2.44585   2.44972   2.48433
 Alpha virt. eigenvalues --    2.51541   2.59171   2.61003   2.62009   2.64915
 Alpha virt. eigenvalues --    2.69818   2.72437   2.73649   2.74676   2.75143
 Alpha virt. eigenvalues --    2.76346   2.78395   2.79894   2.82665   2.85480
 Alpha virt. eigenvalues --    2.87545   2.91493   2.92063   3.01381   3.05113
 Alpha virt. eigenvalues --    3.07230   3.09755   3.12410   3.22387   3.27159
 Alpha virt. eigenvalues --    3.36539   3.39408   3.47967   3.50284   3.57962
 Alpha virt. eigenvalues --    3.63267   3.74871   3.80500   3.96607   4.00718
 Alpha virt. eigenvalues --    4.06315   4.11625   4.13049   4.19914   4.80413
 Alpha virt. eigenvalues --    4.98098   5.35775   5.76546   9.73295  23.58492
 Alpha virt. eigenvalues --   23.88335  23.89845  23.92122  24.00124  24.10533
 Alpha virt. eigenvalues --   24.17212  25.90325  25.91013  26.10957  49.92452
 Alpha virt. eigenvalues --  215.71351
  Beta  occ. eigenvalues -- -101.49274 -19.19297 -10.27348 -10.25219 -10.21247
  Beta  occ. eigenvalues --  -10.20893 -10.20423 -10.20222 -10.19843  -9.40514
  Beta  occ. eigenvalues --   -7.16426  -7.16133  -7.16125  -1.10981  -0.88475
  Beta  occ. eigenvalues --   -0.79162  -0.78064  -0.73334  -0.71511  -0.64078
  Beta  occ. eigenvalues --   -0.62267  -0.56997  -0.51892  -0.51364  -0.50167
  Beta  occ. eigenvalues --   -0.47407  -0.45610  -0.44662  -0.41079  -0.39944
  Beta  occ. eigenvalues --   -0.39164  -0.35857  -0.35523  -0.29066  -0.26733
  Beta  occ. eigenvalues --   -0.26211  -0.26003
  Beta virt. eigenvalues --   -0.16254  -0.03179  -0.01934  -0.01087   0.00793
  Beta virt. eigenvalues --    0.01134   0.02436   0.03361   0.03395   0.04150
  Beta virt. eigenvalues --    0.05922   0.06264   0.06812   0.07914   0.08097
  Beta virt. eigenvalues --    0.09546   0.10536   0.11013   0.11261   0.11905
  Beta virt. eigenvalues --    0.12338   0.12667   0.13094   0.13393   0.14277
  Beta virt. eigenvalues --    0.14319   0.15402   0.15842   0.16910   0.17471
  Beta virt. eigenvalues --    0.18151   0.18807   0.19535   0.19757   0.20083
  Beta virt. eigenvalues --    0.20499   0.21525   0.21930   0.22728   0.23212
  Beta virt. eigenvalues --    0.23719   0.24945   0.25004   0.25791   0.26581
  Beta virt. eigenvalues --    0.27544   0.29063   0.29688   0.30264   0.32269
  Beta virt. eigenvalues --    0.33289   0.35060   0.35731   0.37332   0.40869
  Beta virt. eigenvalues --    0.44080   0.46317   0.48513   0.49926   0.50241
  Beta virt. eigenvalues --    0.50633   0.51548   0.52051   0.53239   0.53593
  Beta virt. eigenvalues --    0.55691   0.56585   0.57562   0.59109   0.59759
  Beta virt. eigenvalues --    0.61219   0.62223   0.62649   0.64754   0.65397
  Beta virt. eigenvalues --    0.67115   0.68456   0.69349   0.71113   0.71892
  Beta virt. eigenvalues --    0.72977   0.74345   0.75506   0.78727   0.81471
  Beta virt. eigenvalues --    0.81902   0.82890   0.83435   0.85466   0.87985
  Beta virt. eigenvalues --    0.88997   0.92378   0.94151   0.94702   0.95981
  Beta virt. eigenvalues --    0.96622   0.97203   0.98791   0.99666   1.00695
  Beta virt. eigenvalues --    1.04022   1.05449   1.06281   1.07099   1.09506
  Beta virt. eigenvalues --    1.11956   1.12942   1.22572   1.26166   1.27253
  Beta virt. eigenvalues --    1.30572   1.34240   1.39976   1.40800   1.44295
  Beta virt. eigenvalues --    1.47098   1.49808   1.50724   1.53842   1.54960
  Beta virt. eigenvalues --    1.55559   1.58026   1.60702   1.62721   1.63208
  Beta virt. eigenvalues --    1.66646   1.67146   1.68149   1.70033   1.74335
  Beta virt. eigenvalues --    1.75108   1.75603   1.78300   1.81834   1.86563
  Beta virt. eigenvalues --    1.87378   1.90710   1.92374   1.94123   1.94702
  Beta virt. eigenvalues --    1.95879   1.99909   2.01277   2.03552   2.05865
  Beta virt. eigenvalues --    2.06423   2.08962   2.14856   2.22999   2.26473
  Beta virt. eigenvalues --    2.30168   2.32729   2.33524   2.37465   2.38953
  Beta virt. eigenvalues --    2.40966   2.42387   2.44188   2.44864   2.45068
  Beta virt. eigenvalues --    2.48496   2.51554   2.59252   2.61229   2.62517
  Beta virt. eigenvalues --    2.64954   2.69834   2.72507   2.73727   2.75159
  Beta virt. eigenvalues --    2.75383   2.76534   2.78501   2.79995   2.83107
  Beta virt. eigenvalues --    2.85688   2.87995   2.91958   2.92188   3.01879
  Beta virt. eigenvalues --    3.05727   3.07341   3.09987   3.12575   3.22958
  Beta virt. eigenvalues --    3.27360   3.36705   3.39540   3.48063   3.50478
  Beta virt. eigenvalues --    3.58094   3.63392   3.74918   3.80525   3.96730
  Beta virt. eigenvalues --    4.01043   4.06471   4.11777   4.13304   4.20150
  Beta virt. eigenvalues --    4.80791   4.98843   5.35934   5.76732   9.74106
  Beta virt. eigenvalues --   23.58629  23.88330  23.89923  23.92363  24.00301
  Beta virt. eigenvalues --   24.10592  24.17281  25.90709  25.91380  26.12738
  Beta virt. eigenvalues --   49.92637 215.71754
          Condensed to atoms (all electrons):
              1          2          3          4          5          6
     1  C    8.716807  -1.956477   1.468484  -1.612116   0.666546  -1.666780
     2  C   -1.956477   7.188835  -1.764100   1.387952  -0.731237   1.583319
     3  C    1.468484  -1.764100  10.806067  -1.606793  -1.123626  -1.342176
     4  C   -1.612116   1.387952  -1.606793   8.242682  -1.174342   0.677290
     5  C    0.666546  -0.731237  -1.123626  -1.174342   8.504173  -0.830898
     6  C   -1.666780   1.583319  -1.342176   0.677290  -0.830898   7.569567
     7  Cl  -0.290525   0.088354   0.081108  -0.049777   0.062963   0.083950
     8  H    0.408706  -0.027685   0.010994  -0.003366   0.007667  -0.032060
     9  H   -0.000585   0.410325  -0.083569   0.025144   0.008769  -0.004486
    10  H   -0.004790   0.025629   0.320840   0.048884  -0.025644  -0.000175
    11  O   -0.012809   0.017377  -0.573762   0.365832   0.124921   0.038737
    12  H   -0.007568   0.011045  -0.060428   0.014145   0.358888   0.051760
    13  H   -0.020465   0.009171  -0.017862   0.016450  -0.003441   0.369689
    14  C   -0.035167   0.041217   0.013242   0.081000  -0.220803  -0.073032
    15  H   -0.000514   0.001767  -0.005085  -0.024307   0.012971   0.008710
    16  H    0.000478  -0.000006   0.007382   0.022164  -0.008542   0.001976
    17  H   -0.002091   0.000256  -0.008255  -0.030935   0.024575   0.000556
              7          8          9         10         11         12
     1  C   -0.290525   0.408706  -0.000585  -0.004790  -0.012809  -0.007568
     2  C    0.088354  -0.027685   0.410325   0.025629   0.017377   0.011045
     3  C    0.081108   0.010994  -0.083569   0.320840  -0.573762  -0.060428
     4  C   -0.049777  -0.003366   0.025144   0.048884   0.365832   0.014145
     5  C    0.062963   0.007667   0.008769  -0.025644   0.124921   0.358888
     6  C    0.083950  -0.032060  -0.004486  -0.000175   0.038737   0.051760
     7  Cl  17.371633  -0.027512  -0.001148  -0.000841  -0.000539  -0.001196
     8  H   -0.027512   0.487163  -0.007118  -0.000205   0.000153  -0.000263
     9  H   -0.001148  -0.007118   0.514972  -0.007823  -0.000681   0.000049
    10  H   -0.000841  -0.000205  -0.007823   0.514874  -0.008188  -0.000087
    11  O   -0.000539   0.000153  -0.000681  -0.008188   8.166362  -0.020661
    12  H   -0.001196  -0.000263   0.000049  -0.000087  -0.020661   0.531207
    13  H   -0.000129  -0.006977  -0.000199   0.000043  -0.000277  -0.007986
    14  C   -0.002030  -0.000050   0.000521   0.000526   0.168486   0.001280
    15  H   -0.000058  -0.000002  -0.000001   0.000047  -0.030717  -0.000728
    16  H   -0.000010   0.000000  -0.000001  -0.000059  -0.060396   0.000419
    17  H    0.000200   0.000003   0.000002   0.000066  -0.027571   0.000042
             13         14         15         16         17
     1  C   -0.020465  -0.035167  -0.000514   0.000478  -0.002091
     2  C    0.009171   0.041217   0.001767  -0.000006   0.000256
     3  C   -0.017862   0.013242  -0.005085   0.007382  -0.008255
     4  C    0.016450   0.081000  -0.024307   0.022164  -0.030935
     5  C   -0.003441  -0.220803   0.012971  -0.008542   0.024575
     6  C    0.369689  -0.073032   0.008710   0.001976   0.000556
     7  Cl  -0.000129  -0.002030  -0.000058  -0.000010   0.000200
     8  H   -0.006977  -0.000050  -0.000002   0.000000   0.000003
     9  H   -0.000199   0.000521  -0.000001  -0.000001   0.000002
    10  H    0.000043   0.000526   0.000047  -0.000059   0.000066
    11  O   -0.000277   0.168486  -0.030717  -0.060396  -0.027571
    12  H   -0.007986   0.001280  -0.000728   0.000419   0.000042
    13  H    0.513301   0.001868   0.000020  -0.000004   0.000046
    14  C    0.001868   5.037340   0.406010   0.408614   0.414447
    15  H    0.000020   0.406010   0.549365  -0.025652  -0.046187
    16  H   -0.000004   0.408614  -0.025652   0.508926  -0.024178
    17  H    0.000046   0.414447  -0.046187  -0.024178   0.540075
 Mulliken atomic charges:
              1
     1  C    0.348866
     2  C   -0.285742
     3  C   -0.122462
     4  C   -0.379906
     5  C    0.347057
     6  C   -0.435949
     7  Cl  -0.314443
     8  H    0.190554
     9  H    0.145830
    10  H    0.136901
    11  O   -0.146267
    12  H    0.130082
    13  H    0.146752
    14  C   -0.243470
    15  H    0.154361
    16  H    0.168887
    17  H    0.158948
 Sum of Mulliken charges=   0.00000
 Atomic charges with hydrogens summed into heavy atoms:
              1
     1  C    0.539420
     2  C   -0.139912
     3  C    0.014439
     4  C   -0.379906
     5  C    0.477139
     6  C   -0.289197
     7  Cl  -0.314443
     8  H    0.000000
     9  H    0.000000
    10  H    0.000000
    11  O   -0.146267
    12  H    0.000000
    13  H    0.000000
    14  C    0.238726
    15  H    0.000000
    16  H    0.000000
    17  H    0.000000
 Sum of Mulliken charges=   0.00000
          Atomic-Atomic Spin Densities.
              1          2          3          4          5          6
     1  C    0.206059  -0.260474   0.233784  -0.180258   0.404830  -0.370500
     2  C   -0.260474   0.436706  -0.274640   0.192819  -0.247359   0.318924
     3  C    0.233784  -0.274640   0.129391  -0.125627   0.185066  -0.220590
     4  C   -0.180258   0.192819  -0.125627   0.321958  -0.213306   0.224359
     5  C    0.404830  -0.247359   0.185066  -0.213306   0.081442  -0.270687
     6  C   -0.370500   0.318924  -0.220590   0.224359  -0.270687   0.524072
     7  Cl   0.035870  -0.086334   0.042305  -0.033435   0.032673  -0.095208
     8  H    0.015677   0.002396  -0.004176   0.001502  -0.009856   0.006950
     9  H    0.007350  -0.004144   0.002251  -0.002346  -0.000961  -0.000852
    10  H    0.001097  -0.000394   0.000291  -0.000141  -0.000075  -0.000183
    11  O    0.001893  -0.000844  -0.002327  -0.046152   0.007153  -0.001077
    12  H    0.001202  -0.000424   0.000843   0.001512  -0.002360   0.000054
    13  H    0.009116  -0.002407   0.000987  -0.002997  -0.000118  -0.003040
    14  C    0.005908  -0.002431   0.006025  -0.004492  -0.002275   0.001373
    15  H   -0.002407   0.001644  -0.003650   0.008532  -0.004827   0.002029
    16  H    0.000012   0.000032  -0.000246   0.000354  -0.000095   0.000143
    17  H    0.002353  -0.001603   0.004271  -0.005301   0.004755  -0.001987
              7          8          9         10         11         12
     1  C    0.035870   0.015677   0.007350   0.001097   0.001893   0.001202
     2  C   -0.086334   0.002396  -0.004144  -0.000394  -0.000844  -0.000424
     3  C    0.042305  -0.004176   0.002251   0.000291  -0.002327   0.000843
     4  C   -0.033435   0.001502  -0.002346  -0.000141  -0.046152   0.001512
     5  C    0.032673  -0.009856  -0.000961  -0.000075   0.007153  -0.002360
     6  C   -0.095208   0.006950  -0.000852  -0.000183  -0.001077   0.000054
     7  Cl   0.694001  -0.012688   0.000685  -0.000054  -0.000116  -0.000063
     8  H   -0.012688   0.002126  -0.000411  -0.000002  -0.000014  -0.000004
     9  H    0.000685  -0.000411  -0.006065   0.000101   0.000023  -0.000003
    10  H   -0.000054  -0.000002   0.000101   0.000178  -0.000201   0.000002
    11  O   -0.000116  -0.000014   0.000023  -0.000201   0.096493  -0.000175
    12  H   -0.000063  -0.000004  -0.000003   0.000002  -0.000175   0.001113
    13  H    0.000866  -0.000395   0.000004  -0.000003   0.000047   0.000128
    14  C    0.000039  -0.000055  -0.000014  -0.000072   0.001914  -0.000280
    15  H   -0.000024   0.000002   0.000000   0.000002  -0.002752   0.000039
    16  H   -0.000002   0.000000   0.000000   0.000000  -0.000103   0.000006
    17  H    0.000049  -0.000002   0.000000  -0.000004  -0.001249  -0.000046
             13         14         15         16         17
     1  C    0.009116   0.005908  -0.002407   0.000012   0.002353
     2  C   -0.002407  -0.002431   0.001644   0.000032  -0.001603
     3  C    0.000987   0.006025  -0.003650  -0.000246   0.004271
     4  C   -0.002997  -0.004492   0.008532   0.000354  -0.005301
     5  C   -0.000118  -0.002275  -0.004827  -0.000095   0.004755
     6  C   -0.003040   0.001373   0.002029   0.000143  -0.001987
     7  Cl   0.000866   0.000039  -0.000024  -0.000002   0.000049
     8  H   -0.000395  -0.000055   0.000002   0.000000  -0.000002
     9  H    0.000004  -0.000014   0.000000   0.000000   0.000000
    10  H   -0.000003  -0.000072   0.000002   0.000000  -0.000004
    11  O    0.000047   0.001914  -0.002752  -0.000103  -0.001249
    12  H    0.000128  -0.000280   0.000039   0.000006  -0.000046
    13  H   -0.008828  -0.000035  -0.000004   0.000000  -0.000001
    14  C   -0.000035  -0.007614   0.000305   0.000061  -0.001156
    15  H   -0.000004   0.000305   0.007308   0.000093  -0.002226
    16  H    0.000000   0.000061   0.000093  -0.000251  -0.000082
    17  H   -0.000001  -0.001156  -0.002226  -0.000082   0.006193
 Mulliken atomic spin densities:
              1
     1  C    0.111511
     2  C    0.071469
     3  C   -0.026044
     4  C    0.136980
     5  C   -0.036001
     6  C    0.113780
     7  Cl   0.578568
     8  H    0.001050
     9  H   -0.004382
    10  H    0.000543
    11  O    0.052513
    12  H    0.001544
    13  H   -0.006683
    14  C   -0.002799
    15  H    0.004064
    16  H   -0.000076
    17  H    0.003964
 Sum of Mulliken spin densities=   1.00000
 Electronic spatial extent (au):  <R**2>=  1718.6459
 Charge=     0.0000 electrons
 Dipole moment (field-independent basis, Debye):
    X=     5.3237    Y=     0.1514    Z=     2.2936  Tot=     5.7987
 Quadrupole moment (field-independent basis, Debye-Ang):
   XX=   -63.4271   YY=   -56.5527   ZZ=   -61.9947
   XY=    -9.0175   XZ=    -6.4101   YZ=    -2.4663
 Traceless Quadrupole moment (field-independent basis, Debye-Ang):
   XX=    -2.7689   YY=     4.1055   ZZ=    -1.3365
   XY=    -9.0175   XZ=    -6.4101   YZ=    -2.4663
 Octapole moment (field-independent basis, Debye-Ang**2):
  XXX=    75.1907  YYY=     4.3598  ZZZ=    -3.6952  XYY=     4.9676
  XXY=    -5.7119  XXZ=     8.9870  XZZ=     1.4528  YZZ=    -4.3612
  YYZ=    -1.8717  XYZ=     1.7399
 Hexadecapole moment (field-independent basis, Debye-Ang**3):
 XXXX= -1602.5212 YYYY=  -366.9047 ZZZZ=  -280.3862 XXXY=   -69.6310
 XXXZ=   -51.1453 YYYX=   -12.0475 YYYZ=   -15.3903 ZZZX=   -11.8007
 ZZZY=    -5.0196 XXYY=  -330.6360 XXZZ=  -309.5550 YYZZ=  -106.8814
 XXYZ=     6.1980 YYXZ=    -6.9149 ZZXY=     1.3063
 N-N= 4.804246548050D+02 E-N=-2.862274183570D+03  KE= 8.045234718388D+02
                          Isotropic Fermi Contact Couplings
        Atom                 a.u.       MegaHertz       Gauss      10(-4) cm-1
     1  C(13)              0.03026      34.01510      12.13743      11.34622
     2  C(13)              0.00139       1.56043       0.55680       0.52050
     3  C(13)             -0.00604      -6.78779      -2.42205      -2.26416
     4  C(13)              0.00700       7.86537       2.80656       2.62360
     5  C(13)             -0.00814      -9.15330      -3.26613      -3.05321
     6  C(13)              0.00494       5.55066       1.98061       1.85150
     7  Cl(35)             0.06661      29.20744      10.42194       9.74255
     8  H(1)               0.00204       9.12945       3.25761       3.04526
     9  H(1)              -0.00127      -5.65890      -2.01923      -1.88760
    10  H(1)               0.00009       0.41630       0.14855       0.13886
    11  O(17)              0.00989      -5.99468      -2.13905      -1.99961
    12  H(1)               0.00032       1.42398       0.50811       0.47499
    13  H(1)              -0.00187      -8.34884      -2.97907      -2.78487
    14  C(13)             -0.00171      -1.91973      -0.68501      -0.64035
    15  H(1)               0.00122       5.45681       1.94713       1.82020
    16  H(1)              -0.00005      -0.22299      -0.07957      -0.07438
    17  H(1)               0.00113       5.03896       1.79802       1.68081
 --------------------------------------------------------
       Center         ----  Spin Dipole Couplings  ----
                      3XX-RR        3YY-RR        3ZZ-RR
 --------------------------------------------------------
     1   Atom       -0.005900     -0.043902      0.049802
     2   Atom       -0.032441     -0.018613      0.051054
     3   Atom        0.004253      0.003204     -0.007457
     4   Atom       -0.049051     -0.047995      0.097047
     5   Atom        0.013150      0.006631     -0.019782
     6   Atom       -0.043438     -0.040540      0.083978
     7   Atom        0.399056     -1.038502      0.639446
     8   Atom        0.001765     -0.010280      0.008515
     9   Atom       -0.005105      0.009261     -0.004155
    10   Atom       -0.000396      0.002648     -0.002252
    11   Atom       -0.085597     -0.080938      0.166536
    12   Atom        0.001131      0.000527     -0.001658
    13   Atom       -0.008188      0.005160      0.003028
    14   Atom        0.001991      0.000961     -0.002952
    15   Atom        0.001670     -0.000352     -0.001318
    16   Atom        0.002588     -0.001103     -0.001484
    17   Atom        0.000702      0.001176     -0.001878
 --------------------------------------------------------
                        XY            XZ            YZ
 --------------------------------------------------------
     1   Atom        0.058745      0.109050      0.076727
     2   Atom        0.025161      0.044315      0.049140
     3   Atom       -0.003870     -0.009429     -0.006244
     4   Atom        0.038446      0.078023      0.089623
     5   Atom       -0.007769     -0.017664     -0.017598
     6   Atom        0.031567      0.077830      0.071796
     7   Atom        1.344452      2.367054      1.412552
     8   Atom       -0.003790     -0.011385      0.009697
     9   Atom       -0.003046      0.003725     -0.001293
    10   Atom        0.000123     -0.000432     -0.002043
    11   Atom        0.062900      0.142595      0.149722
    12   Atom       -0.000415     -0.000588     -0.002155
    13   Atom        0.004556      0.002192     -0.008838
    14   Atom       -0.003497     -0.000191     -0.000545
    15   Atom       -0.001991      0.001036     -0.000922
    16   Atom       -0.001621     -0.000830      0.000490
    17   Atom       -0.002113     -0.000691      0.000730
 --------------------------------------------------------


 ---------------------------------------------------------------------------------
              Anisotropic Spin Dipole Couplings in Principal Axis System
 ---------------------------------------------------------------------------------

       Atom             a.u.   MegaHertz   Gauss  10(-4) cm-1        Axes

              Baa    -0.0907   -12.169    -4.342    -4.059  0.7495  0.1250 -0.6501
     1 C(13)  Bbb    -0.0861   -11.557    -4.124    -3.855 -0.3512  0.9075 -0.2305
              Bcc     0.1768    23.726     8.466     7.914  0.5611  0.4011  0.7241
 
              Baa    -0.0529    -7.103    -2.534    -2.369  0.9109 -0.3463 -0.2245
     2 C(13)  Bbb    -0.0436    -5.854    -2.089    -1.953  0.1884  0.8329 -0.5204
              Bcc     0.0966    12.957     4.623     4.322  0.3672  0.4317  0.8239
 
              Baa    -0.0156    -2.089    -0.746    -0.697  0.4571  0.3641  0.8115
     3 C(13)  Bbb     0.0060     0.811     0.289     0.270 -0.0949  0.9271 -0.3625
              Bcc     0.0095     1.279     0.456     0.426  0.8843 -0.0886 -0.4583
 
              Baa    -0.0909   -12.197    -4.352    -4.069 -0.1199  0.9145 -0.3864
     4 C(13)  Bbb    -0.0829   -11.120    -3.968    -3.709  0.9238 -0.0398 -0.3808
              Bcc     0.1738    23.318     8.320     7.778  0.3636  0.4026  0.8401
 
              Baa    -0.0361    -4.847    -1.730    -1.617  0.3644  0.4103  0.8360
     5 C(13)  Bbb     0.0153     2.051     0.732     0.684 -0.1477  0.9118 -0.3832
              Bcc     0.0208     2.796     0.998     0.933  0.9194 -0.0161 -0.3929
 
              Baa    -0.0808   -10.844    -3.869    -3.617  0.8418  0.2194 -0.4932
     6 C(13)  Bbb    -0.0719    -9.642    -3.441    -3.216 -0.3695  0.9002 -0.2302
              Bcc     0.1527    20.486     7.310     6.833  0.3935  0.3760  0.8389
 
              Baa    -1.8510   -96.878   -34.568   -32.315  0.7538 -0.1261 -0.6449
     7 Cl(35) Bbb    -1.8421   -96.409   -34.401   -32.158 -0.1613  0.9159 -0.3675
              Bcc     3.6931   193.287    68.970    64.474  0.6370  0.3810  0.6701
 
              Baa    -0.0145    -7.720    -2.755    -2.575 -0.0863  0.9019 -0.4233
     8 H(1)   Bbb    -0.0059    -3.131    -1.117    -1.044  0.8360  0.2967  0.4617
              Bcc     0.0203    10.850     3.872     3.619 -0.5420  0.3140  0.7795
 
              Baa    -0.0085    -4.540    -1.620    -1.514  0.7695  0.0858 -0.6329
     9 H(1)   Bbb    -0.0017    -0.890    -0.317    -0.297  0.5968  0.2563  0.7603
              Bcc     0.0102     5.430     1.937     1.811 -0.2275  0.9628 -0.1460
 
              Baa    -0.0030    -1.623    -0.579    -0.541  0.1368  0.3321  0.9333
    10 H(1)   Bbb    -0.0004    -0.194    -0.069    -0.065  0.9882 -0.1117 -0.1051
              Bcc     0.0034     1.817     0.648     0.606  0.0693  0.9366 -0.3434
 
              Baa    -0.1538    11.132     3.972     3.713  0.5189  0.6623 -0.5405
    11 O(17)  Bbb    -0.1462    10.576     3.774     3.528  0.7684 -0.6384 -0.0447
              Bcc     0.3000   -21.707    -7.746    -7.241  0.3747  0.3921  0.8402
 
              Baa    -0.0031    -1.656    -0.591    -0.552  0.1673  0.5173  0.8393
    12 H(1)   Bbb     0.0012     0.667     0.238     0.222  0.9831 -0.0230 -0.1817
              Bcc     0.0019     0.989     0.353     0.330 -0.0747  0.8555 -0.5124
 
              Baa    -0.0116    -6.169    -2.201    -2.058  0.8212 -0.4250 -0.3808
    13 H(1)   Bbb    -0.0016    -0.866    -0.309    -0.289  0.5624  0.4900  0.6660
              Bcc     0.0132     7.035     2.510     2.347  0.0965  0.7611 -0.6414
 
              Baa    -0.0032    -0.431    -0.154    -0.144  0.2590  0.3357  0.9057
    14 C(13)  Bbb    -0.0018    -0.243    -0.087    -0.081  0.6020  0.6771 -0.4232
              Bcc     0.0050     0.673     0.240     0.225  0.7553 -0.6548  0.0267
 
              Baa    -0.0019    -1.010    -0.360    -0.337  0.1210  0.6197  0.7754
    15 H(1)   Bbb    -0.0014    -0.749    -0.267    -0.250  0.5744  0.5934 -0.5638
              Bcc     0.0033     1.759     0.628     0.587  0.8096 -0.5136  0.2842
 
[...]
         Item               Value     Threshold  Converged?
 Maximum Force            0.000063     0.000450     YES
 RMS     Force            0.000012     0.000300     YES
 Maximum Displacement     0.007405     0.001800     NO 
 RMS     Displacement     0.000930     0.001200     YES
 Predicted change in Energy=-1.876437D-07
 GradGradGradGradGradGradGradGradGradGradGradGradGradGradGradGradGradGrad

 Leave Link  103 at Mon Aug 28 11:02:18 2006, MaxMem=    6291456 cpu:       0.3
 (Enter /usr/local/Gaussian/g03/l9999.exe)
 1\1\GINC-PUBLIX\Freq\UB3LYP\6-311+G(d,p)\C7H8Cl1O1(2)\NOBODY\28-Aug-20
 06\0\\#P GEOM=ALLCHECK GUESS=READ SCRF=CHECK GENCHK UB3LYP/6-311+G(D,P
 ) FREQ\\OMe\Cl complexbasis\\0,2\C,-1.4839474976,-0.5517388768,-0.6802
 636616\C,-1.483852311,-0.5541599309,0.7346339661\C,-0.2991658225,-0.55
 54022986,1.4315957265\C,0.9283992296,-0.5666937191,0.7347700887\C,0.94
 7290545,-0.5905968578,-0.670574025\C,-0.2502461659,-0.5931220874,-1.36
 34410382\Cl,-1.9897857283,1.9224030716,-1.1630025834\H,-2.407302107,-0
 .690823828,-1.2230623465\H,-2.4270645486,-0.5371051826,1.2662433025\H,
 -0.274695518,-0.5413955153,2.514065584\O,2.0310907428,-0.5547537528,1.
 5093575302\H,1.8817637135,-0.6007690527,-1.2139692227\H,-0.2449348562,
 -0.6065519508,-2.4461812791\C,3.3220241269,-0.5347064569,0.8974891115\
 H,3.4863189251,-1.4345038369,0.2976797522\H,4.0338093707,-0.5098524892
 ,1.7196751979\H,3.446723833,0.3567010247,0.2764716792\\Version=Sun64-S
 VR4-Unix-G03RevB.04\State=2-A\HF=-807.0564805\S2=0.757032\S2-1=0.\S2A=
 0.750034\RMSD=5.203e-09\RMSF=2.034e-05\Dipole=1.6356585,-1.5322307,0.3
 922091\DipoleDeriv=-0.1891985,0.3031348,-0.019941,0.1150667,-0.144932,
 0.0574805,0.0641416,0.0486905,-0.0700765,0.3160671,-0.192741,0.1119333
 ,-0.0926676,-0.1192504,-0.0010338,0.2542256,-0.4694979,0.2687974,-0.75
 7371,0.4543486,-0.3285318,-0.0170481,-0.1076647,0.0037295,0.1191521,-0
 .0410626,0.0975726,1.6764926,-0.4047397,0.7052392,0.0323107,0.1203211,
 0.0198781,1.008093,-0.2422478,0.7254255,-0.3226809,0.201701,-0.158737,
 -0.0218656,-0.1074643,-0.0221317,-0.7051301,0.3996531,-0.5050147,0.604
 6861,-0.6472017,0.276324,-0.0642143,-0.0978993,-0.069595,0.0923512,0.0
 808106,0.138224,-0.3391807,-0.0131965,-0.0178195,0.0363156,-0.2128098,
 0.0133681,-0.0263633,-0.0084825,-0.3156331,0.0544633,-0.0460885,-0.012
 0607,-0.0364184,0.1445212,-0.0209181,-0.0118689,-0.0261209,0.0632623,0
 .0003298,-0.0211223,0.0608887,0.0269884,0.1107803,0.0052194,0.0414449,
 0.019769,0.0402506,0.0792961,0.0070467,-0.0119516,0.0034044,0.149228,-
 0.0083772,-0.0123714,0.0088112,-0.0304805,-2.1443614,0.4749254,-0.6352
 927,-0.0160233,-0.256943,-0.0017564,-0.7341543,0.2459455,-0.7168597,-0
 .0379342,0.0202104,0.0382073,-0.0007687,0.1453198,0.0046389,0.0609315,
 -0.0000377,0.0637874,0.069732,0.0070708,0.0057182,0.0207377,0.1036305,
 0.0194567,0.0133235,-0.0314291,-0.0266717,1.1222201,-0.2006449,0.11367
 35,0.0119906,0.2964835,0.0074756,-0.3162781,0.0717316,0.2149933,-0.043
 3378,-0.008699,-0.031038,0.0493295,-0.0783822,-0.0727451,0.1346157,-0.
 1087412,0.03398,-0.0521551,0.0143604,-0.0611692,-0.0030867,0.1008563,-
 0.0028512,-0.1149083,-0.0000368,-0.0162155,-0.0370671,0.0516355,-0.035
 4425,-0.0440508,-0.045795,0.0681614,0.1327954,0.0522451,0.0346589\Pola
 r=152.5463484,-41.902654,115.7992551,28.1463703,-25.0003154,109.785258
 \PG=C01 [X(C7H8Cl1O1)]\NImag=0\\0.69177799,0.04496783,0.11250546,0.047
 76605,0.03742764,0.62841161,-0.12132291,-0.00638678,0.02692249,0.75277
 490,-0.00668130,-0.05631510,0.00112292,-0.00378822,0.13556006,-0.01688
 764,-0.01478988,-0.29488192,-0.01457563,0.00445134,0.64927019,0.019394
 32,0.00686832,-0.05569170,-0.31661751,-0.00123471,-0.08454833,0.673666
 14,0.00102912,0.00642776,-0.00095639,0.00065349,-0.05589242,-0.0000963
 3,-0.00358218,0.12351537,-0.03181794,0.00005142,-0.02720422,-0.1395408
 5,0.00053634,-0.19494559,0.05019069,0.00682082,0.74502523,-0.00830990,
 -0.00277614,0.02181819,-0.06001159,0.00245203,-0.02613059,-0.21398738,
 0.00285976,0.11514476,0.65950479,0.00067050,-0.00735857,-0.00018484,0.
 00005253,0.00102195,0.00070636,0.00059994,-0.06745090,-0.00147759,0.00
 080985,0.16192701,0.02222372,-0.00304950,-0.02884724,0.01501606,-0.001
 70033,0.05538392,0.04981386,-0.00176565,-0.18029856,-0.00172268,0.0069
 2917,0.66150324,-0.05210064,0.00487296,0.00857355,-0.01283577,-0.00002
 153,-0.02140223,0.03023760,0.00073163,0.02755909,-0.13443189,0.0011058
 4,0.06227523,0.74173217,0.00067795,0.00662762,0.00186806,-0.00016223,-
 0.00179569,-0.00098362,0.00110438,0.00732627,-0.00012233,-0.00028804,-
 0.06497804,-0.00180367,-0.00393800,0.11694984,-0.01439194,0.00773540,0
 .04214688,-0.01912594,0.00036658,-0.03609465,0.05750506,-0.00080780,-0
 .01983102,-0.00775870,-0.00318128,-0.27765527,-0.02839139,0.00648525,0
 .64665217,-0.25859225,-0.01187899,0.06147315,0.02359598,0.00216297,0.0
 5480924,-0.04903172,-0.00023556,0.00005317,0.02962277,-0.00167477,-0.0
 7775423,-0.29981214,0.00114654,-0.06895167,0.65404654,0.00340858,-0.05
 329393,-0.01161759,0.00017436,0.00619740,0.00257847,0.00039774,-0.0019
 7189,-0.00026564,-0.00171556,0.00049974,0.00396184,-0.00206497,-0.0553
 5515,-0.00561379,-0.00249183,0.13435519,0.10114008,-0.00363440,-0.1671
 5164,0.03136733,-0.00253059,-0.02522126,0.00039191,0.00047100,-0.00141
 237,-0.03113043,-0.00086688,-0.03368869,-0.12812129,-0.00149457,-0.179
 43611,0.02111531,0.01175513,0.73338196,-0.00035136,-0.00108608,-0.0011
 4338,-0.00083972,0.00190178,-0.00154443,0.00141376,0.00014084,0.000180
 43,-0.00094901,0.00006387,0.00262534,-0.00050107,0.00086179,-0.0016502
 4,-0.00359567,0.00403095,0.00079559,0.00397835,-0.00772911,0.00282792,
 -0.00426430,0.00356092,-0.00610826,0.00988631,-0.00357070,-0.00019212,
 -0.00099489,0.00092431,0.00033013,-0.00014452,-0.00209329,-0.00037941,
 -0.00186227,0.01079100,-0.00828627,-0.00182405,-0.00411680,0.02087163,
 0.00001344,-0.00242774,0.00086591,-0.00161299,0.00417997,-0.00440627,-
 0.00086799,0.00092961,0.00055766,0.00194468,-0.00008707,-0.00293394,0.
 00135870,-0.00002461,0.00226209,-0.00152932,0.00087909,-0.00041215,0.0
 0131941,-0.00285558,0.00301477,-0.26964326,-0.03577871,-0.12456930,0.0
 0473896,0.00172125,0.00173974,0.00208853,-0.00062915,0.00084753,-0.000
 64190,0.00006558,0.00085740,-0.00244605,-0.00047952,0.00396930,-0.0185
 6978,-0.00274661,-0.01497499,0.00042631,0.00237702,0.00002785,0.282850
 30,-0.03730887,-0.03219148,-0.02327912,0.00120821,0.00283969,0.0030592
 7,-0.00089876,0.00463250,-0.00010985,0.00040022,-0.00016669,0.00037953
 ,-0.00029164,0.00481623,-0.00107978,0.00408350,0.00240605,0.00034928,-
 0.00137098,-0.01014007,0.00014653,0.03456534,0.03354197,-0.12457668,-0
 .02148152,-0.13121216,-0.02770072,-0.00389450,-0.01074952,0.00159304,-
 0.00037945,-0.00531857,0.00085698,-0.00002627,-0.00154386,0.00335148,-
 0.00061535,-0.00062918,0.01433926,0.00324560,0.01194400,0.00019140,0.0
 0179970,0.00006429,0.13264072,0.02062075,0.13540976,0.00444405,0.00009
 643,-0.00234972,-0.27323177,0.00374525,0.12062087,-0.01828150,0.000489
 57,0.01483165,-0.00176749,0.00013442,-0.00346651,0.00009147,-0.0000157
 7,-0.00056638,0.00133893,0.00008489,-0.00070137,0.00000242,0.00005018,
 -0.00012983,0.00050141,-0.00001575,0.00031487,0.28736597,-0.00055474,0
 .00278000,0.00106470,0.00433061,-0.03870500,-0.00417263,0.00027460,0.0
 0524273,0.00011344,-0.00040281,0.00902224,0.00009959,-0.00003510,-0.00
 108637,-0.00013018,0.00020890,0.00514618,0.00003022,0.00002533,0.00041
 396,-0.00030644,0.00039345,-0.00266606,0.00039460,-0.00437871,0.025539
 16,0.02830728,-0.00035502,-0.01060169,0.12103932,-0.00214969,-0.126565
 58,-0.01608384,0.00020339,0.01176229,-0.00279624,-0.00019970,-0.001538
 59,-0.00072153,0.00001204,-0.00019016,-0.00112147,0.00011343,-0.005920
 22,-0.00010692,-0.00036899,0.00028729,-0.00031445,-0.00005567,0.001001
 70,-0.12890220,0.00274688,0.13103907,-0.00463055,-0.00013321,-0.002109
 76,0.00460545,-0.00002628,-0.02816659,-0.05783119,-0.00010818,-0.00422
 554,0.00407371,0.00046374,0.02837057,-0.00472120,0.00005523,0.00185980
 ,-0.00101879,0.00004869,-0.00029789,0.00006488,-0.00013115,0.00007463,
 0.00015298,-0.00003332,-0.00127720,0.00099104,0.00001163,0.00041819,0.
 05588719,0.00063282,0.00826854,0.00033935,0.00010716,0.00361834,-0.000
 27215,-0.00025625,-0.03514091,-0.00423984,0.00022403,0.00407898,-0.000
 65979,0.00007946,0.00440146,0.00020035,-0.00016318,-0.00102151,-0.0000
 3733,-0.00010697,0.00007031,-0.00032195,-0.00025497,0.00008387,0.00031
 008,-0.00014806,-0.00500469,0.00008838,-0.00013028,0.02428742,-0.00257
 927,-0.00032730,0.00083187,0.00170209,0.00000240,-0.00974399,-0.002273
 70,-0.00390170,-0.34056314,-0.00347856,-0.00022213,-0.01295818,0.00270
 588,-0.00004775,0.00008714,0.00029896,-0.00000017,0.00067715,0.0000025
 2,-0.00003887,0.00016053,0.00023526,0.00004828,-0.00048583,-0.00012680
 ,0.00010857,0.00077248,0.00476129,0.00435788,0.36035638,-0.00382903,0.
 00180510,-0.00534307,0.00525064,-0.00083445,0.01255564,-0.07190529,-0.
 00123028,-0.02706445,-0.22831828,-0.00158642,-0.10872047,-0.00945360,-
 0.00122357,-0.02319146,0.00490935,-0.00068652,0.00331487,-0.00017407,0
 .00054308,-0.00044389,0.00068962,-0.00037462,0.00008393,-0.00137734,0.
 00018394,-0.00094250,0.00224576,0.00009901,-0.00116685,0.55137851,-0.0
 0026785,-0.00070355,0.00001888,-0.00010011,0.00391468,-0.00018159,0.00
 026281,0.00569159,-0.00008319,-0.00248191,-0.04435033,-0.00170209,-0.0
 0101226,0.01155243,-0.00056664,0.00022008,0.00620505,-0.00018893,0.000
 01135,0.00004272,0.00000139,0.00006621,-0.00040142,0.00004569,0.000008
 18,0.00012503,-0.00000533,-0.00003654,-0.00270426,0.00002790,0.0061711
 2,0.06904307,-0.00336034,0.00090545,-0.00082535,0.00531121,-0.00027974
 ,-0.00236491,0.00352677,-0.00030526,0.01941623,-0.07322600,-0.00092648
 ,-0.18096679,-0.04833057,-0.00111948,-0.03267987,0.01110270,-0.0010043
 9,-0.00378871,-0.00044244,0.00042789,0.00028123,0.00016413,-0.00016107
 ,0.00044876,0.00080870,0.00005650,0.00057934,-0.00056000,0.00020116,0.
 00115444,0.03971476,0.00090332,0.32098515,-0.00265419,-0.00034068,-0.0
 0394001,0.00018987,0.00000745,-0.00046161,0.00114516,0.00000309,-0.000
 70407,0.00365731,0.00011431,-0.00094730,-0.26745324,0.00241667,0.12528
 117,-0.01938159,0.00061461,0.01527349,0.00017093,-0.00012296,-0.000031
 14,-0.00082818,0.00007293,0.00077908,-0.00002156,-0.00001364,0.0000681
 3,0.00007781,-0.00000416,-0.00024787,-0.00079742,-0.00006454,0.0009023
 1,0.28772181,0.00063523,0.00759804,0.00016730,-0.00014724,-0.00085761,
 -0.00018401,0.00024835,0.00492611,-0.00027562,0.00026755,0.00254132,0.
 00005337,0.00196395,-0.03216311,-0.00195129,-0.00029596,0.00284353,0.0
 0046650,-0.00032550,0.00012717,0.00002724,0.00012151,0.00024556,-0.000
 35325,-0.00002441,-0.00071627,-0.00000583,0.00004645,0.00019919,-0.000
 02712,0.00016960,-0.00240424,0.00019255,-0.00263320,0.02295718,-0.0033
 0976,-0.00011511,-0.00121918,-0.00091490,0.00006848,-0.00061489,-0.001
 47089,-0.00016084,-0.00555448,0.02931064,-0.00012380,-0.00899652,0.124
 45131,-0.00196773,-0.13231095,-0.01540747,0.00033794,0.01225776,0.0000
 0137,-0.00009403,0.00006493,-0.00071855,-0.00002719,0.00042329,0.00006
 905,0.00000244,0.00007435,0.00140490,0.00001576,-0.00054637,-0.0007848
 2,-0.00002719,0.00185596,-0.13177000,0.00198493,0.13446368,0.00395374,
 0.00053256,0.02872481,-0.00489912,0.00040435,0.00236756,-0.00081586,-0
 .00002951,-0.00022883,-0.00455466,-0.00000662,-0.00169935,0.00357478,-
 0.00047478,-0.02819376,-0.05837304,0.00034804,0.00141138,0.00005357,-0
 .00032008,-0.00012073,0.00086277,-0.00015490,-0.00047237,0.00010660,-0
 .00001252,0.00139725,0.00010414,-0.00003063,-0.00000172,-0.00024218,0.
 00001903,-0.00185006,0.00105194,-0.00005145,0.00031154,0.05883309,0.00
 060415,0.00287830,-0.00160235,0.00044532,0.00516558,0.00001680,-0.0002
 9318,-0.00118986,0.00012570,0.00008498,0.00830320,-0.00077391,0.000544
 93,0.00553450,0.00031933,-0.00175558,-0.03789958,-0.00252401,-0.000027
 31,0.00044613,-0.00014631,0.00056179,-0.00283681,0.00030335,-0.0000255
 3,0.00047176,-0.00005371,-0.00001737,-0.00059595,-0.00000299,0.0001716
 9,-0.00092856,0.00009064,0.00004526,-0.00462114,0.00009782,-0.00022839
 ,0.02503112,-0.00206966,-0.00002630,-0.01032198,0.00278849,-0.00021534
 ,0.00032363,0.00001560,0.00003653,0.00063544,-0.00242732,0.00005196,0.
 00079526,0.00235746,-0.00004591,-0.01014137,0.00119042,-0.00433673,-0.
 34166708,-0.00025464,0.00034116,0.00022149,0.00009413,0.00013971,0.000
 61465,-0.00019423,-0.00001944,-0.00056781,-0.00001635,0.00000499,-0.00
 005624,0.00005060,-0.00003298,-0.00070108,-0.00009267,-0.00004850,0.00
 086077,-0.00160900,0.00414042,0.36003645,0.00163379,-0.00084735,0.0007
 0978,-0.00251864,0.00040539,-0.00036357,0.00561666,0.00000696,-0.00377
 025,-0.05367073,-0.00073894,-0.00045903,0.00715726,0.00040152,0.004716
 46,-0.00434384,0.00059510,0.00107800,0.00024854,-0.00029873,0.00017863
 ,-0.00029407,0.00011596,-0.00005448,-0.00001381,-0.00006190,-0.0001345
 3,-0.00025672,-0.00003517,0.00033114,-0.16907770,-0.00150239,0.0401939
 9,-0.00159922,0.00000410,0.00045020,0.00044505,-0.00010699,0.00021920,
 0.47011012,-0.00011781,0.00008153,-0.00008324,0.00001088,0.00138293,-0
 .00008075,0.00020298,0.00433205,-0.00008492,-0.00049601,-0.00541991,0.
 00008896,0.00003589,-0.00181065,0.00013264,-0.00004097,0.00006446,0.00
 002933,-0.00002402,-0.00004992,0.00000829,0.00001382,-0.00015953,0.000
 03613,-0.00000120,-0.00056034,0.00003005,-0.00001016,-0.00055635,0.000
 02315,-0.00219603,-0.05896107,0.00073173,-0.00002108,-0.00000694,0.000
 01210,-0.00000018,0.00021165,0.00000716,-0.00158381,0.57269293,-0.0009
 7951,0.00035946,-0.00010261,-0.00035319,-0.00002088,0.00096452,-0.0039
 8771,-0.00012772,-0.00287627,-0.01753367,-0.00026474,0.01523902,-0.007
 50991,-0.00026855,-0.00292455,0.00181033,-0.00019292,0.00021564,-0.000
 02012,0.00003740,-0.00002146,0.00008847,-0.00006982,0.00003241,-0.0003
 1198,0.00002109,-0.00018923,-0.00008620,0.00002276,0.00024825,0.067487
 09,0.00093330,-0.11838176,-0.00186599,-0.00003307,-0.00093375,-0.00011
 642,0.00003557,-0.00007545,0.07681712,0.00071086,0.57886113,0.00017786
 ,0.00006692,-0.00039289,0.00060638,-0.00037165,0.00070257,-0.00193319,
 -0.00092085,-0.00014380,0.00579328,0.00193235,0.00449925,0.00062695,-0
 .00010014,-0.00087976,-0.00055138,-0.00036060,-0.00018493,0.00000767,0
 .00005303,-0.00008597,0.00003353,0.00006952,-0.00004213,-0.00002203,0.
 00012515,-0.00001713,0.00013663,0.00015450,-0.00010702,-0.02155335,0.0
 2684305,0.02337447,-0.00092110,0.00100679,-0.00075516,-0.00002737,0.00
 000604,-0.00001789,-0.05186904,0.01892461,0.01018267,0.06236867,0.0000
 6673,-0.00010200,-0.00002496,-0.00018803,0.00001513,-0.00003094,0.0004
 3851,-0.00024770,0.00017909,-0.00144922,0.00072931,-0.00124632,0.00089
 817,0.00002613,-0.00069952,-0.00051412,-0.00001068,0.00034751,0.000016
 17,0.00001176,0.00002712,-0.00006352,0.00001922,0.00001722,0.00000938,
 0.00002158,0.00001274,-0.00007265,-0.00000265,0.00003841,0.00495985,0.
 00745511,0.00170836,-0.00032493,-0.00006896,0.00064349,0.00003732,-0.0
 0000217,0.00000456,0.02403023,-0.23162808,-0.11485239,-0.02896031,0.24
 270512,0.00033609,-0.00017780,0.00007676,-0.00017028,0.00013451,-0.000
 05156,0.00065337,0.00013127,0.00000091,-0.00307649,0.00037959,-0.00134
 100,0.00075295,0.00016083,0.00084606,-0.00068717,-0.00009155,-0.000101
 10,0.00003680,-0.00001885,-0.00000277,-0.00002328,0.00003739,-0.000024
 53,0.00002816,-0.00002165,0.00000930,-0.00006699,-0.00008903,0.0000453
 3,0.01362740,-0.00943254,-0.00962101,-0.00087170,0.00058275,-0.0001506
 7,0.00002262,0.00002393,0.00001829,0.01389022,-0.11380035,-0.12316026,
 -0.02384274,0.12763100,0.13337325,-0.00002894,0.00002920,0.00000638,-0
 .00013246,-0.00000469,0.00054136,-0.00122587,-0.00005746,-0.00117818,-
 0.00192421,-0.00015094,0.00457215,-0.00024764,-0.00000482,0.00067939,0
 .00027784,-0.00002715,-0.00027851,-0.00001088,0.00004081,-0.00002667,0
 .00003347,-0.00000733,-0.00001398,-0.00010669,0.00000791,-0.00008322,-
 0.00000895,-0.00000350,0.00004365,-0.03731049,-0.00083477,-0.02134623,
 0.00040661,0.00001873,-0.00018843,-0.00004702,0.00000641,-0.00002040,-
 0.15112302,-0.00369988,-0.12924868,0.00493940,-0.00082361,0.00274958,0
 .18235583,-0.00000157,-0.00005420,-0.00001522,0.00001107,-0.00001036,0
 .00002011,-0.00003806,0.00024554,-0.00001392,0.00004076,0.00052821,0.0
 0005466,0.00002551,0.00030987,0.00000945,-0.00001783,0.00018991,-0.000
 00418,0.00000467,-0.00000028,-0.00000559,0.00000026,-0.00002127,0.0000
 0433,-0.00000249,-0.00004398,0.00000134,-0.00000022,0.00001953,0.00000
 135,-0.00053664,0.00020435,-0.00026774,0.00000750,-0.00043739,0.000019
 05,0.00000150,0.00002596,-0.00000045,-0.00390004,-0.05121950,-0.004681
 16,-0.01741328,0.00091574,-0.02070147,0.00450162,0.04702730,-0.0001317
 3,0.00001316,-0.00003076,0.00002470,-0.00000252,-0.00024813,0.00059280
 ,0.00000072,0.00061154,0.00326346,0.00006802,-0.00093087,0.00034537,-0
 .00003378,-0.00098379,-0.00004245,-0.00003012,0.00044232,-0.00002948,0
 .00000686,0.00001717,-0.00003800,0.00000165,0.00003273,0.00004999,0.00
 000433,0.00003961,-0.00001763,0.00000433,-0.00002018,0.01761937,0.0005
 2959,0.01452647,-0.00058997,0.00001635,0.00047223,0.00003491,0.0000051
 9,0.00001089,-0.14342424,-0.00496428,-0.21784616,-0.00960881,0.0010522
 3,-0.01113213,0.14192262,0.00518684,0.22657522,0.00008129,-0.00001138,
 -0.00045457,0.00064729,0.00016236,0.00074364,-0.00193268,0.00087870,-0
 .00013340,0.00591518,-0.00185523,0.00451598,0.00058300,0.00002278,-0.0
 0090994,-0.00052121,0.00039028,-0.00019855,0.00005537,0.00004246,-0.00
 006881,0.00004535,-0.00005951,-0.00001320,-0.00001971,-0.00010209,-0.0
 0000614,0.00012781,-0.00016382,-0.00009901,-0.02043511,-0.02730146,0.0
 2401660,-0.00076493,-0.00100451,-0.00067902,-0.00002643,-0.00001624,-0
 .00001374,-0.05044463,-0.01099704,0.00562770,0.00218708,0.00194003,-0.
 00335853,0.00415303,0.01731724,-0.00997092,0.06034931,-0.00003166,0.00
 002367,0.00001915,0.00021805,-0.00003132,0.00007324,-0.00052380,-0.000
 25413,-0.00015901,0.00154619,0.00074234,0.00127867,-0.00080155,0.00002
 406,0.00064353,0.00045580,-0.00006852,-0.00034404,0.00000091,0.0000146
 1,-0.00002396,0.00006625,-0.00000176,-0.00002710,-0.00000638,0.0000200
 9,-0.00001431,0.00007362,-0.00000133,-0.00003993,-0.00543488,0.0062194
 2,-0.00115344,0.00024336,-0.00016246,-0.00066611,-0.00003374,0.0000058
 6,-0.00000084,-0.01648394,-0.22839326,0.11839081,-0.00105513,-0.019836
 87,0.01525200,0.00100947,0.00232056,-0.00185856,0.02075743,0.23937904,
 0.00031782,-0.00010795,0.00006572,-0.00017717,-0.00006895,-0.00005398,
 0.00064104,-0.00009219,-0.00000508,-0.00305805,-0.00057431,-0.00122194
 ,0.00074591,0.00000117,0.00088257,-0.00069878,0.00028139,-0.00011950,0
 .00003879,-0.00003298,-0.00002077,-0.00002595,0.00000009,-0.00000794,0
 .00002571,0.00000798,0.00000785,-0.00006522,0.00007505,0.00004037,0.01
 320384,0.00976038,-0.00991812,-0.00078181,-0.00061227,-0.00014617,0.00
 002217,-0.00005546,0.00001416,0.00962136,0.11720315,-0.12904945,-0.002
 68074,-0.01480760,0.01121513,0.00186918,0.02039260,-0.01153614,-0.0189
 9809,-0.13137011,0.13985330\\-0.00001661,-0.00001044,-0.00000753,-0.00
 000506,-0.00001528,0.00002504,0.00004671,0.00000110,0.00003580,-0.0000
 8207,-0.00000827,-0.00002320,0.00004745,-0.00001670,-0.00002515,-0.000
 00578,0.00000360,-0.00001303,-0.00000656,0.00004756,-0.00002961,0.0000
 0221,-0.00000283,0.00000200,0.00000953,-0.00000160,0.00000637,-0.00001
 316,0.00000080,-0.00000375,0.00002224,0.00000630,0.00001726,-0.0000212
 1,0.00000510,0.00000652,0.00000525,0.00000551,-0.00000530,0.00001927,-
 0.00000777,0.00001090,-0.00000053,-0.00000055,0.00000113,-0.00000600,-
 0.00000387,0.00000087,0.00000432,-0.00000266,0.00000167\\\@


 A COMPUTER IS LIKE A HORSE, IT WILL SENSE WEAKNESS.
     -- GREG WETTSTEIN
 Job cpu time:  0 days 13 hours 42 minutes 54.9 seconds.
 File lengths (MBytes):  RWF=    238 Int=      0 D2E=      0 Chk=     14 Scr=      1
 Normal termination of Gaussian 03 at Mon Aug 28 11:02:20 2006.
