 Entering Gaussian System, Link 0=/usr/local/Gaussian/g03/g03
 Initial command:
 /usr/local/Gaussian/g03/l1.exe /export/scratch//webmo/3296/Gau-17819.inp -scrdir=/export/scratch//webmo/3296/
 Entering Link 1 = /usr/local/Gaussian/g03/l1.exe PID=     17821.
  
 Copyright (c) 1988,1990,1992,1993,1995,1998,2003, Gaussian, Inc.
                  All Rights Reserved.
  
 This is the Gaussian(R) 03 program.  It is based on the
 the Gaussian(R) 98 system (copyright 1998, Gaussian, Inc.),
 the Gaussian(R) 94 system (copyright 1995, Gaussian, Inc.),
 the Gaussian 92(TM) system (copyright 1992, Gaussian, Inc.),
 the Gaussian 90(TM) system (copyright 1990, Gaussian, Inc.),
 the Gaussian 88(TM) system (copyright 1988, Gaussian, Inc.),
 the Gaussian 86(TM) system (copyright 1986, Carnegie Mellon
 University), and the Gaussian 82(TM) system (copyright 1983,
 Carnegie Mellon University). Gaussian is a federally registered
 trademark of Gaussian, Inc.
  
 This software contains proprietary and confidential information,
 including trade secrets, belonging to Gaussian, Inc.
  
 This software is provided under written license and may be
 used, copied, transmitted, or stored only in accord with that
 written license.
  
 The following legend is applicable only to US Government
 contracts under DFARS:
  
                    RESTRICTED RIGHTS LEGEND
  
 Use, duplication or disclosure by the US Government is subject
 to restrictions as set forth in subparagraph (c)(1)(ii) of the
 Rights in Technical Data and Computer Software clause at DFARS
 252.227-7013.
  
 Gaussian, Inc.
 Carnegie Office Park, Building 6, Pittsburgh, PA 15106 USA
  
 The following legend is applicable only to US Government
 contracts under FAR:
  
                    RESTRICTED RIGHTS LEGEND
  
 Use, reproduction and disclosure by the US Government is subject
 to restrictions as set forth in subparagraph (c) of the
 Commercial Computer Software - Restricted Rights clause at FAR
 52.227-19.
  
 Gaussian, Inc.
 Carnegie Office Park, Building 6, Pittsburgh, PA 15106 USA
  
  
 ---------------------------------------------------------------
 Warning -- This program may not be used in any manner that
 competes with the business of Gaussian, Inc. or will provide
 assistance to any competitor of Gaussian, Inc.  The licensee
 of this program is prohibited from giving any competitor of
 Gaussian, Inc. access to this program.  By using this program,
 the user acknowledges that Gaussian, Inc. is engaged in the
 business of creating and licensing software in the field of
 computational chemistry and represents and warrants to the
 licensee that it is not a competitor of Gaussian, Inc. and that
 it will not use this program in any manner prohibited above.
 ---------------------------------------------------------------
  

 Cite this work as:
 Gaussian 03, Revision B.04,
 M. J. Frisch, G. W. Trucks, H. B. Schlegel, G. E. Scuseria, 
 M. A. Robb, J. R. Cheeseman, J. A. Montgomery, Jr., T. Vreven, 
 K. N. Kudin, J. C. Burant, J. M. Millam, S. S. Iyengar, J. Tomasi, 
 V. Barone, B. Mennucci, M. Cossi, G. Scalmani, N. Rega, 
 G. A. Petersson, H. Nakatsuji, M. Hada, M. Ehara, K. Toyota, 
 R. Fukuda, J. Hasegawa, M. Ishida, T. Nakajima, Y. Honda, O. Kitao, 
 H. Nakai, M. Klene, X. Li, J. E. Knox, H. P. Hratchian, J. B. Cross, 
 C. Adamo, J. Jaramillo, R. Gomperts, R. E. Stratmann, O. Yazyev, 
 A. J. Austin, R. Cammi, C. Pomelli, J. W. Ochterski, P. Y. Ayala, 
 K. Morokuma, G. A. Voth, P. Salvador, J. J. Dannenberg, 
 V. G. Zakrzewski, S. Dapprich, A. D. Daniels, M. C. Strain, 
 O. Farkas, D. K. Malick, A. D. Rabuck, K. Raghavachari, 
 J. B. Foresman, J. V. Ortiz, Q. Cui, A. G. Baboul, S. Clifford, 
 J. Cioslowski, B. B. Stefanov, G. Liu, A. Liashenko, P. Piskorz, 
 I. Komaromi, R. L. Martin, D. J. Fox, T. Keith, M. A. Al-Laham, 
 C. Y. Peng, A. Nanayakkara, M. Challacombe, P. M. W. Gill, 
 B. Johnson, W. Chen, M. W. Wong, C. Gonzalez, and J. A. Pople, 
 Gaussian, Inc., Pittsburgh PA, 2003.
 
 ***************************************************
 Gaussian 03:  Sun64-SVR4-Unix-G03RevB.04 2-Jun-2003
                     20-Aug-2006 
 ***************************************************
 ------------------------------
 #P B3LYP/6-311+G(d,p) OPT FREQ
 ------------------------------
 1/14=-1,18=20,26=3,38=1/1,3;
 2/9=110,17=6,18=5,40=1/2;
 3/5=4,6=6,7=111,11=2,16=1,25=1,30=1,74=-5/1,2,3;
 4//1;
 5/5=2,38=5/2;
 6/7=2,8=2,9=2,10=2,28=1/1;
 7//1,2,3,16;
 1/14=-1,18=20/3(1);
 99//99;
 2/9=110/2;
 3/5=4,6=6,7=111,11=2,16=1,25=1,30=1,74=-5/1,2,3;
 4/5=5,16=3/1;
 5/5=2,38=5/2;
 7//1,2,3,16;
 1/14=-1,18=20/3(-5);
 2/9=110/2;
 6/7=2,8=2,9=2,10=2,19=2,28=1/1;
 99/9=1/99;
 Leave Link    1 at Sun Aug 20 14:05:51 2006, MaxMem=          0 cpu:       0.2
 (Enter /usr/local/Gaussian/g03/l101.exe)
 -------------
 nitrobz basis
 -------------
 Symbolic Z-matrix:
 Charge =  0 Multiplicity = 1
 C
 C                    1    B1
 C                    2    B2       1    A1
 C                    3    B3       2    A2       1    D1       0
 C                    4    B4       3    A3       2    D2       0
 C                    1    B5       2    A4       3    D3       0
 H                    6    B6       1    A5       2    D4       0
 H                    5    B7       4    A6       3    D5       0
 H                    4    B8       3    A7       2    D6       0
 H                    3    B9       2    A8       1    D7       0
 N                    2    B10      1    A9       6    D8       0
 O                    11   B11      2    A10      1    D9       0
 O                    11   B12      2    A11      1    D10      0
 H                    1    B13      2    A12      3    D11      0
       Variables:
  A10                 117.61062                  
  A11                 117.61062                  
  A12                 119.48265                  
  B1                    1.39151                  
  B2                    1.39151                  
  B3                    1.39131                  
  B4                    1.39558                  
  B5                    1.39131                  
  B6                    1.08622                  
  B7                    1.08671                  
  B8                    1.08622                  
  B10                   1.46817                  
  B9                    1.08377                  
  B11                   1.22506                  
  B12                   1.22506                  
  B13                   1.08377                  
  D10                  -0.00539                  
  D11                -179.99513                  
  D1                   -0.00956                  
  D2                    0.00522                  
  D3                    0.00956                  
  A1                  122.31714                  
  D4                 -179.9947                   
  A2                  118.49979                  
  D5                 -179.98857                  
  A3                  120.1765                   
  A4                  118.49979                  
  D6                  179.9947                   
  D7                  179.99513                  
  A5                  119.6147                   
  D8                 -179.98781                  
  A6                  119.83486                  
  D9                 -179.99715                  
  A7                  119.6147                   
  A8                  119.48265                  
  A9                  118.84143                  
 
                    Isotopes and Nuclear Properties:

  Atom         1           2           3           4           5           6           7           8           9          10
 IAtWgt=          12          12          12          12          12          12           1           1           1           1
 AtmWgt=  12.0000000  12.0000000  12.0000000  12.0000000  12.0000000  12.0000000   1.0078250   1.0078250   1.0078250   1.0078250
 IAtSpn=           0           0           0           0           0           0           1           1           1           1
 AtZEff=   0.0000000   0.0000000   0.0000000   0.0000000   0.0000000   0.0000000   0.0000000   0.0000000   0.0000000   0.0000000
 AtQMom=   0.0000000   0.0000000   0.0000000   0.0000000   0.0000000   0.0000000   0.0000000   0.0000000   0.0000000   0.0000000
 AtGFac=   0.0000000   0.0000000   0.0000000   0.0000000   0.0000000   0.0000000   2.7928460   2.7928460   2.7928460   2.7928460

  Atom        11          12          13          14
 IAtWgt=          14          16          16           1
 AtmWgt=  14.0030740  15.9949146  15.9949146   1.0078250
 IAtSpn=           2           0           0           1
 AtZEff=   0.0000000   0.0000000   0.0000000   0.0000000
 AtQMom=   1.5600000   0.0000000   0.0000000   0.0000000
 AtGFac=   0.4037610   0.0000000   0.0000000   2.7928460
 Leave Link  101 at Sun Aug 20 14:05:53 2006, MaxMem=    6291456 cpu:       0.2
 (Enter /usr/local/Gaussian/g03/l103.exe)

 GradGradGradGradGradGradGradGradGradGradGradGradGradGradGradGradGradGrad
 Berny optimization.
 Initialization pass.
                           ----------------------------
                           !    Initial Parameters    !
                           ! (Angstroms and Degrees)  !
 --------------------------                            --------------------------
 ! Name  Definition              Value          Derivative Info.                !
 --------------------------------------------------------------------------------
 ! R1    R(1,2)                  1.3915         estimate D2E/DX2                !
 ! R2    R(1,6)                  1.3913         estimate D2E/DX2                !
 ! R3    R(1,14)                 1.0838         estimate D2E/DX2                !
 ! R4    R(2,3)                  1.3915         estimate D2E/DX2                !
 ! R5    R(2,11)                 1.4682         estimate D2E/DX2                !
 ! R6    R(3,4)                  1.3913         estimate D2E/DX2                !
 ! R7    R(3,10)                 1.0838         estimate D2E/DX2                !
 ! R8    R(4,5)                  1.3956         estimate D2E/DX2                !
 ! R9    R(4,9)                  1.0862         estimate D2E/DX2                !
 ! R10   R(5,6)                  1.3956         estimate D2E/DX2                !
 ! R11   R(5,8)                  1.0867         estimate D2E/DX2                !
 ! R12   R(6,7)                  1.0862         estimate D2E/DX2                !
 ! R13   R(11,12)                1.2251         estimate D2E/DX2                !
 ! R14   R(11,13)                1.2251         estimate D2E/DX2                !
 ! A1    A(2,1,6)              118.4998         estimate D2E/DX2                !
 ! A2    A(2,1,14)             119.4827         estimate D2E/DX2                !
 ! A3    A(6,1,14)             122.0176         estimate D2E/DX2                !
 ! A4    A(1,2,3)              122.3171         estimate D2E/DX2                !
 ! A5    A(1,2,11)             118.8414         estimate D2E/DX2                !
 ! A6    A(3,2,11)             118.8414         estimate D2E/DX2                !
 ! A7    A(2,3,4)              118.4998         estimate D2E/DX2                !
 ! A8    A(2,3,10)             119.4827         estimate D2E/DX2                !
 ! A9    A(4,3,10)             122.0176         estimate D2E/DX2                !
 ! A10   A(3,4,5)              120.1765         estimate D2E/DX2                !
 ! A11   A(3,4,9)              119.6147         estimate D2E/DX2                !
 ! A12   A(5,4,9)              120.2088         estimate D2E/DX2                !
 ! A13   A(4,5,6)              120.3303         estimate D2E/DX2                !
 ! A14   A(4,5,8)              119.8349         estimate D2E/DX2                !
 ! A15   A(6,5,8)              119.8349         estimate D2E/DX2                !
 ! A16   A(1,6,5)              120.1765         estimate D2E/DX2                !
 ! A17   A(1,6,7)              119.6147         estimate D2E/DX2                !
 ! A18   A(5,6,7)              120.2088         estimate D2E/DX2                !
 ! A19   A(2,11,12)            117.6106         estimate D2E/DX2                !
 ! A20   A(2,11,13)            117.6106         estimate D2E/DX2                !
 ! A21   A(12,11,13)           124.7788         estimate D2E/DX2                !
 ! D1    D(6,1,2,3)              0.0096         estimate D2E/DX2                !
 ! D2    D(6,1,2,11)          -179.9878         estimate D2E/DX2                !
 ! D3    D(14,1,2,3)          -179.9951         estimate D2E/DX2                !
 ! D4    D(14,1,2,11)            0.0075         estimate D2E/DX2                !
 ! D5    D(2,1,6,5)             -0.0052         estimate D2E/DX2                !
 ! D6    D(2,1,6,7)           -179.9947         estimate D2E/DX2                !
 ! D7    D(14,1,6,5)           179.9996         estimate D2E/DX2                !
 ! D8    D(14,1,6,7)             0.0101         estimate D2E/DX2                !
 ! D9    D(1,2,3,4)             -0.0096         estimate D2E/DX2                !
 ! D10   D(1,2,3,10)           179.9951         estimate D2E/DX2                !
 ! D11   D(11,2,3,4)           179.9878         estimate D2E/DX2                !
 ! D12   D(11,2,3,10)           -0.0075         estimate D2E/DX2                !
 ! D13   D(1,2,11,12)         -179.9972         estimate D2E/DX2                !
 ! D14   D(1,2,11,13)           -0.0054         estimate D2E/DX2                !
 ! D15   D(3,2,11,12)            0.0054         estimate D2E/DX2                !
 ! D16   D(3,2,11,13)          179.9972         estimate D2E/DX2                !
 ! D17   D(2,3,4,5)              0.0052         estimate D2E/DX2                !
 ! D18   D(2,3,4,9)            179.9947         estimate D2E/DX2                !
 ! D19   D(10,3,4,5)          -179.9996         estimate D2E/DX2                !
 ! D20   D(10,3,4,9)            -0.0101         estimate D2E/DX2                !
 ! D21   D(3,4,5,6)             -0.0012         estimate D2E/DX2                !
 ! D22   D(3,4,5,8)           -179.9886         estimate D2E/DX2                !
 ! D23   D(9,4,5,6)           -179.9906         estimate D2E/DX2                !
 ! D24   D(9,4,5,8)              0.022          estimate D2E/DX2                !
 ! D25   D(4,5,6,1)              0.0012         estimate D2E/DX2                !
 ! D26   D(4,5,6,7)            179.9906         estimate D2E/DX2                !
 ! D27   D(8,5,6,1)            179.9886         estimate D2E/DX2                !
 ! D28   D(8,5,6,7)             -0.022          estimate D2E/DX2                !
 --------------------------------------------------------------------------------
 Trust Radius=3.00D-01 FncErr=1.00D-07 GrdErr=1.00D-06
 Number of steps in this run=  73 maximum allowed number of steps= 100.
 GradGradGradGradGradGradGradGradGradGradGradGradGradGradGradGradGradGrad

 Leave Link  103 at Sun Aug 20 14:05:54 2006, MaxMem=    6291456 cpu:       0.0
 (Enter /usr/local/Gaussian/g03/l202.exe)
                          Input orientation:                          
 ---------------------------------------------------------------------
 Center     Atomic     Atomic              Coordinates (Angstroms)
 Number     Number      Type              X           Y           Z
 ---------------------------------------------------------------------
    1          6             0        0.000000    0.000000    0.000000
    2          6             0        0.000000    0.000000    1.391513
    3          6             0        1.175970    0.000000    2.135423
    4          6             0        2.390674   -0.000204    1.457019
    5          6             0        2.414870   -0.000293    0.061652
    6          6             0        1.222707   -0.000204   -0.663870
    7          1             0        1.243843   -0.000120   -1.749883
    8          1             0        3.366783   -0.000640   -0.462563
    9          1             0        3.319764   -0.000120    2.019745
   10          1             0        1.122377    0.000080    3.217867
   11          7             0       -1.286059   -0.000059    2.099741
   12          8             0       -1.259745   -0.000004    3.324519
   13          8             0       -2.307053   -0.000004    1.422730
   14          1             0       -0.943427    0.000080   -0.533388
 ---------------------------------------------------------------------
                    Distance matrix (angstroms):
                    1          2          3          4          5
     1  C    0.000000
     2  C    1.391513   0.000000
     3  C    2.437814   1.391513   0.000000
     4  C    2.799683   2.391571   1.391308   0.000000
     5  C    2.415657   2.756833   2.415657   1.395577   0.000000
     6  C    1.391308   2.391571   2.799683   2.421222   1.395577
     7  H    2.146913   3.378685   3.885898   3.405795   2.157073
     8  H    3.398410   3.843543   3.398410   2.153505   1.086710
     9  H    3.885898   3.378685   2.146913   1.086218   2.157073
    10  H    3.407990   2.143665   1.083770   2.170061   3.410606
    11  N    2.462288   1.468174   2.462288   3.732487   4.225007
    12  O    3.555191   2.307265   2.710472   4.100380   4.914173
    13  O    2.710472   2.307265   3.555191   4.697853   4.914173
    14  H    1.083770   2.143665   3.407990   3.883034   3.410606
                    6          7          8          9         10
     6  C    0.000000
     7  H    1.086218   0.000000
     8  H    2.153505   2.482754   0.000000
     9  H    3.405795   4.303434   2.482754   0.000000
    10  H    3.883034   4.969234   4.310792   2.502800   0.000000
    11  N    3.732487   4.606518   5.311717   4.606518   2.655328
    12  O    4.697853   5.658401   5.978858   4.761758   2.384508
    13  O    4.100380   4.761758   5.978858   5.658401   3.870854
    14  H    2.170061   2.502800   4.310792   4.969234   4.282460
                   11         12         13         14
    11  N    0.000000
    12  O    1.225061   0.000000
    13  O    1.225061   2.171096   0.000000
    14  H    2.655328   3.870854   2.384508   0.000000
 Stoichiometry    C6H5NO2
 Framework group  CS[SG(C2HN),X(C4H4O2)]
 Deg. of freedom    20
 Full point group                 CS      NOp   2
 Largest Abelian subgroup         CS      NOp   2
 Largest concise Abelian subgroup CS      NOp   2
                         Standard orientation:                         
 ---------------------------------------------------------------------
 Center     Atomic     Atomic              Coordinates (Angstroms)
 Number     Number      Type              X           Y           Z
 ---------------------------------------------------------------------
    1          6             0        0.000084    0.425127    1.218907
    2          6             0        0.000085   -0.246121    0.000000
    3          6             0        0.000084    0.425127   -1.218907
    4          6             0       -0.000122    1.816410   -1.210611
    5          6             0       -0.000212    2.510712    0.000000
    6          6             0       -0.000122    1.816410    1.210611
    7          1             0       -0.000039    2.358802    2.151717
    8          1             0       -0.000561    3.597422    0.000000
    9          1             0       -0.000039    2.358802   -2.151717
   10          1             0        0.000165   -0.143976   -2.141230
   11          7             0        0.000028   -1.714295    0.000000
   12          8             0        0.000084   -2.282062   -1.085548
   13          8             0        0.000084   -2.282062    1.085548
   14          1             0        0.000165   -0.143976    2.141230
 ---------------------------------------------------------------------
 Rotational constants (GHZ):      3.9761528      1.2911151      0.9746364
 Leave Link  202 at Sun Aug 20 14:05:57 2006, MaxMem=    6291456 cpu:       0.5
 (Enter /usr/local/Gaussian/g03/l301.exe)
 Standard basis: 6-311+G(d,p) (5D, 7F)
 There are   131 symmetry adapted basis functions of A'  symmetry.
 There are    97 symmetry adapted basis functions of A"  symmetry.
 Integral buffers will be    131072 words long.
 Raffenetti 2 integral format.
 Two-electron integral symmetry is turned on.
   228 basis functions,   364 primitive gaussians,   237 cartesian basis functions
    32 alpha electrons       32 beta electrons
       nuclear repulsion energy       412.7795092851 Hartrees.
 IExCor= 402 DFT=T Ex=B+HF Corr=LYP ExCW=0 ScaHFX=  0.200000
 ScaDFX=  0.800000  0.720000  1.000000  0.810000
 IRadAn=      0 IRanWt=     -1 IRanGd=            0 ICorTp=0
 NAtoms=   14 NActive=   14 NUniq=    9 SFac= 3.02D+00 NAtFMM=   60 Big=F
 Leave Link  301 at Sun Aug 20 14:05:59 2006, MaxMem=    6291456 cpu:       0.1
 (Enter /usr/local/Gaussian/g03/l302.exe)
 NPDir=0 NMtPBC=     1 NCelOv=     1 NCel=       1 NClECP=     1 NCelD=      1
         NCelK=      1 NCelE2=     1 NClLst=     1 CellRange=     0.0.
 One-electron integrals computed using PRISM.
 One-electron integral symmetry used in STVInt
 NBasis=   228 RedAO= T  NBF=   131    97
 NBsUse=   228 1.00D-06 NBFU=   131    97
 Precomputing XC quadrature grid using
 IXCGrd= 2 IRadAn=           0 IRanWt=          -1 IRanGd=           0.
 NRdTot=     898 NPtTot=      113984 NUsed=      120327 NTot=      120359
 NSgBfM=   237   237   237   237.
 Leave Link  302 at Sun Aug 20 14:06:16 2006, MaxMem=    6291456 cpu:       2.5
 (Enter /usr/local/Gaussian/g03/l303.exe)
 DipDrv:  MaxL=1.
 Leave Link  303 at Sun Aug 20 14:06:19 2006, MaxMem=    6291456 cpu:       0.2
 (Enter /usr/local/Gaussian/g03/l401.exe)
 Harris functional with IExCor=  402 diagonalized for initial guess.
 ExpMin= 4.38D-02 ExpMax= 8.59D+03 ExpMxC= 1.30D+03 IAcc=2 IRadAn=         4 AccDes= 0.00D+00
 HarFok:  IExCor= 402 AccDes= 0.00D+00 IRadAn=         4 IDoV=1
 ScaDFX=  1.000000  1.000000  1.000000  1.000000
 Harris En= -437.021746527976    
 Initial guess orbital symmetries:
       Occupied  (A") (A') (A') (A") (A') (A') (A") (A') (A') (A')
                 (A") (A') (A') (A") (A') (A") (A') (A') (A") (A')
                 (A') (A") (A") (A') (A') (A") (A') (A") (A') (A")
                 (A') (A")
       Virtual   (A') (A") (A') (A') (A") (A') (A') (A') (A") (A')
                 (A') (A') (A') (A") (A') (A") (A") (A') (A') (A")
                 (A") (A') (A') (A") (A") (A') (A') (A') (A') (A')
                 (A") (A') (A") (A') (A') (A") (A") (A') (A") (A')
                 (A") (A') (A") (A') (A') (A") (A') (A") (A') (A')
                 (A") (A') (A") (A') (A") (A') (A') (A") (A") (A')
                 (A") (A') (A") (A') (A') (A") (A") (A') (A') (A')
                 (A") (A') (A") (A') (A") (A') (A') (A") (A') (A')
                 (A") (A') (A") (A') (A") (A") (A') (A') (A") (A")
                 (A') (A') (A') (A") (A") (A') (A') (A") (A') (A')
                 (A") (A") (A') (A') (A") (A') (A') (A') (A") (A')
                 (A") (A') (A") (A") (A') (A") (A') (A") (A') (A')
                 (A") (A") (A') (A') (A") (A') (A") (A") (A') (A")
                 (A") (A') (A') (A') (A") (A") (A') (A') (A') (A")
                 (A') (A') (A') (A') (A") (A") (A') (A") (A") (A')
                 (A') (A') (A") (A") (A') (A") (A") (A') (A') (A")
                 (A') (A') (A") (A') (A") (A") (A") (A') (A') (A')
                 (A") (A') (A') (A') (A") (A') (A') (A") (A") (A')
                 (A") (A") (A') (A") (A') (A') (A") (A') (A") (A')
                 (A') (A") (A') (A') (A') (A")
 The electronic state of the initial guess is 1-A'.
 Leave Link  401 at Sun Aug 20 14:08:03 2006, MaxMem=    6291456 cpu:      17.0
 (Enter /usr/local/Gaussian/g03/l502.exe)
 Closed shell SCF:
 Requested convergence on RMS density matrix=1.00D-08 within 128 cycles.
 Requested convergence on MAX density matrix=1.00D-06.
 Requested convergence on             energy=1.00D-06.
 No special actions if energy rises.
 Using DIIS extrapolation, IDIIS=  1040.
 Integral symmetry usage will be decided dynamically.
       120326 words used for storage of precomputed grid.
 IEnd=    337146 IEndB=    337146 NGot=   6291456 MDV=   6027357
 LenX=   6027357
 Fock matrices will be formed incrementally for  20 cycles.

 Cycle   1  Pass 1  IDiag  1:
 Petite list used in FoFDir.
 MinBra= 0 MaxBra= 2 Meth= 1.
 IRaf=       0 NMat=   1 IRICut=       1 DoRegI=T DoRafI=F ISym2E= 1 JSym2E=1.
 E= -436.547515611287    
 DIIS: error= 4.15D-02 at cycle   1 NSaved=   1.
 NSaved= 1 IEnMin= 1 EnMin= -436.547515611287     IErMin= 1 ErrMin= 4.15D-02
 ErrMax= 4.15D-02 EMaxC= 1.00D-01 BMatC= 4.08D-01 BMatP= 4.08D-01
 IDIUse=3 WtCom= 5.85D-01 WtEn= 4.15D-01
 Coeff-Com:  0.100D+01
 Coeff-En:   0.100D+01
 Coeff:      0.100D+01
 Gap=     0.190 Goal=   None    Shift=    0.000
 GapD=    0.190 DampG=1.000 DampE=0.500 DampFc=0.5000 IDamp=-1.
 Damping current iteration by 5.00D-01
 RMSDP=1.74D-02 MaxDP=5.45D-01              OVMax= 3.38D-01

 Cycle   2  Pass 1  IDiag  1:
 RMSU=  7.79D-03    CP:  1.14D+00
 E= -436.631254268085     Delta-E=       -0.083738656798 Rises=F Damp=T
 DIIS: error= 2.10D-02 at cycle   2 NSaved=   2.
 NSaved= 2 IEnMin= 2 EnMin= -436.631254268085     IErMin= 2 ErrMin= 2.10D-02
 ErrMax= 2.10D-02 EMaxC= 1.00D-01 BMatC= 6.35D-02 BMatP= 4.08D-01
 IDIUse=3 WtCom= 7.90D-01 WtEn= 2.10D-01
 Coeff-Com:  0.234D+00 0.766D+00
 Coeff-En:   0.365D+00 0.635D+00
 Coeff:      0.261D+00 0.739D+00
 Gap=     0.182 Goal=   None    Shift=    0.000
 RMSDP=3.53D-03 MaxDP=1.30D-01 DE=-8.37D-02 OVMax= 2.38D-01

 Cycle   3  Pass 1  IDiag  1:
 RMSU=  3.09D-03    CP:  1.11D+00  8.15D-01
 E= -436.857356150615     Delta-E=       -0.226101882530 Rises=F Damp=F
 DIIS: error= 9.97D-03 at cycle   3 NSaved=   3.
 NSaved= 3 IEnMin= 3 EnMin= -436.857356150615     IErMin= 3 ErrMin= 9.97D-03
 ErrMax= 9.97D-03 EMaxC= 1.00D-01 BMatC= 1.80D-02 BMatP= 6.35D-02
 IDIUse=3 WtCom= 9.00D-01 WtEn= 9.97D-02
 Coeff-Com:  0.745D-01 0.351D+00 0.574D+00
 Coeff-En:   0.000D+00 0.000D+00 0.100D+01
 Coeff:      0.670D-01 0.316D+00 0.617D+00
 Gap=     0.185 Goal=   None    Shift=    0.000
 RMSDP=2.09D-03 MaxDP=9.50D-02 DE=-2.26D-01 OVMax= 6.00D-02

 Cycle   4  Pass 1  IDiag  1:
 RMSU=  1.89D-03    CP:  1.13D+00  8.64D-01  8.13D-01
 E= -436.868900472318     Delta-E=       -0.011544321703 Rises=F Damp=F
 DIIS: error= 6.08D-03 at cycle   4 NSaved=   4.
 NSaved= 4 IEnMin= 4 EnMin= -436.868900472318     IErMin= 4 ErrMin= 6.08D-03
 ErrMax= 6.08D-03 EMaxC= 1.00D-01 BMatC= 5.47D-03 BMatP= 1.80D-02
 IDIUse=3 WtCom= 9.39D-01 WtEn= 6.08D-02
 Coeff-Com:  0.257D-01 0.104D+00 0.375D+00 0.496D+00
 Coeff-En:   0.000D+00 0.000D+00 0.269D+00 0.731D+00
 Coeff:      0.241D-01 0.973D-01 0.368D+00 0.510D+00
 Gap=     0.182 Goal=   None    Shift=    0.000
 RMSDP=1.10D-03 MaxDP=5.67D-02 DE=-1.15D-02 OVMax= 3.01D-02

 Cycle   5  Pass 1  IDiag  1:
 RMSU=  2.69D-04    CP:  1.11D+00  8.11D-01  8.39D-01  5.37D-01
 E= -436.874213527450     Delta-E=       -0.005313055132 Rises=F Damp=F
 DIIS: error= 1.28D-03 at cycle   5 NSaved=   5.
 NSaved= 5 IEnMin= 5 EnMin= -436.874213527450     IErMin= 5 ErrMin= 1.28D-03
 ErrMax= 1.28D-03 EMaxC= 1.00D-01 BMatC= 3.10D-04 BMatP= 5.47D-03
 IDIUse=3 WtCom= 9.87D-01 WtEn= 1.28D-02
 Coeff-Com:  0.501D-02 0.170D-01 0.144D+00 0.277D+00 0.557D+00
 Coeff-En:   0.000D+00 0.000D+00 0.000D+00 0.000D+00 0.100D+01
 Coeff:      0.494D-02 0.168D-01 0.143D+00 0.273D+00 0.562D+00
 Gap=     0.184 Goal=   None    Shift=    0.000
 RMSDP=2.24D-04 MaxDP=7.79D-03 DE=-5.31D-03 OVMax= 7.54D-03

 Cycle   6  Pass 1  IDiag  1:
 RMSU=  1.37D-04    CP:  1.11D+00  8.09D-01  8.28D-01  6.23D-01  7.76D-01
 E= -436.874487437158     Delta-E=       -0.000273909707 Rises=F Damp=F
 DIIS: error= 3.95D-04 at cycle   6 NSaved=   6.
 NSaved= 6 IEnMin= 6 EnMin= -436.874487437158     IErMin= 6 ErrMin= 3.95D-04
 ErrMax= 3.95D-04 EMaxC= 1.00D-01 BMatC= 2.57D-05 BMatP= 3.10D-04
 IDIUse=3 WtCom= 9.96D-01 WtEn= 3.95D-03
 Coeff-Com:  0.375D-03 0.363D-03 0.377D-01 0.881D-01 0.287D+00 0.586D+00
 Coeff-En:   0.000D+00 0.000D+00 0.000D+00 0.000D+00 0.218D-01 0.978D+00
 Coeff:      0.373D-03 0.361D-03 0.375D-01 0.878D-01 0.286D+00 0.588D+00
 Gap=     0.185 Goal=   None    Shift=    0.000
 RMSDP=5.55D-05 MaxDP=1.52D-03 DE=-2.74D-04 OVMax= 2.35D-03

 Cycle   7  Pass 1  IDiag  1:
 RMSU=  3.62D-05    CP:  1.11D+00  8.11D-01  8.36D-01  6.14D-01  7.55D-01
                    CP:  8.02D-01
 E= -436.874510298168     Delta-E=       -0.000022861010 Rises=F Damp=F
 DIIS: error= 1.20D-04 at cycle   7 NSaved=   7.
 NSaved= 7 IEnMin= 7 EnMin= -436.874510298168     IErMin= 7 ErrMin= 1.20D-04
 ErrMax= 1.20D-04 EMaxC= 1.00D-01 BMatC= 3.13D-06 BMatP= 2.57D-05
 IDIUse=3 WtCom= 9.99D-01 WtEn= 1.20D-03
 Coeff-Com: -0.135D-03-0.148D-02 0.109D-01 0.326D-01 0.132D+00 0.341D+00
 Coeff-Com:  0.486D+00
 Coeff-En:   0.000D+00 0.000D+00 0.000D+00 0.000D+00 0.000D+00 0.348D-01
 Coeff-En:   0.965D+00
 Coeff:     -0.135D-03-0.148D-02 0.109D-01 0.326D-01 0.131D+00 0.340D+00
 Coeff:      0.487D+00
 Gap=     0.184 Goal=   None    Shift=    0.000
 RMSDP=2.18D-05 MaxDP=7.23D-04 DE=-2.29D-05 OVMax= 8.96D-04

 Cycle   8  Pass 1  IDiag  1:
 RMSU=  1.01D-05    CP:  1.11D+00  8.10D-01  8.35D-01  6.08D-01  7.86D-01
                    CP:  7.51D-01  7.50D-01
 E= -436.874513166497     Delta-E=       -0.000002868329 Rises=F Damp=F
 DIIS: error= 2.15D-05 at cycle   8 NSaved=   8.
 NSaved= 8 IEnMin= 8 EnMin= -436.874513166497     IErMin= 8 ErrMin= 2.15D-05
 ErrMax= 2.15D-05 EMaxC= 1.00D-01 BMatC= 7.40D-08 BMatP= 3.13D-06
 IDIUse=1 WtCom= 1.00D+00 WtEn= 0.00D+00
 Coeff-Com: -0.559D-04-0.509D-03-0.705D-04 0.247D-02 0.160D-01 0.493D-01
 Coeff-Com:  0.167D+00 0.766D+00
 Coeff:     -0.559D-04-0.509D-03-0.705D-04 0.247D-02 0.160D-01 0.493D-01
 Coeff:      0.167D+00 0.766D+00
 Gap=     0.184 Goal=   None    Shift=    0.000
 RMSDP=8.39D-06 MaxDP=5.34D-04 DE=-2.87D-06 OVMax= 1.58D-04

 Cycle   9  Pass 1  IDiag  1:
 RMSU=  2.45D-06    CP:  1.11D+00  8.11D-01  8.35D-01  6.11D-01  7.83D-01
                    CP:  7.69D-01  7.61D-01  7.87D-01
 E= -436.874513242771     Delta-E=       -0.000000076274 Rises=F Damp=F
 DIIS: error= 4.02D-06 at cycle   9 NSaved=   9.
 NSaved= 9 IEnMin= 9 EnMin= -436.874513242771     IErMin= 9 ErrMin= 4.02D-06
 ErrMax= 4.02D-06 EMaxC= 1.00D-01 BMatC= 2.91D-09 BMatP= 7.40D-08
 IDIUse=1 WtCom= 1.00D+00 WtEn= 0.00D+00
 Coeff-Com: -0.310D-06-0.121D-03-0.206D-03 0.145D-04 0.167D-02 0.653D-02
 Coeff-Com:  0.331D-01 0.239D+00 0.720D+00
 Coeff:     -0.310D-06-0.121D-03-0.206D-03 0.145D-04 0.167D-02 0.653D-02
 Coeff:      0.331D-01 0.239D+00 0.720D+00
 Gap=     0.184 Goal=   None    Shift=    0.000
 RMSDP=1.49D-06 MaxDP=6.63D-05 DE=-7.63D-08 OVMax= 3.27D-05

 Cycle  10  Pass 1  IDiag  1:
 RMSU=  4.34D-07    CP:  1.11D+00  8.11D-01  8.35D-01  6.10D-01  7.83D-01
                    CP:  7.65D-01  7.63D-01  8.27D-01  9.48D-01
 E= -436.874513244456     Delta-E=       -0.000000001685 Rises=F Damp=F
 DIIS: error= 3.14D-06 at cycle  10 NSaved=  10.
 NSaved=10 IEnMin=10 EnMin= -436.874513244456     IErMin=10 ErrMin= 3.14D-06
 ErrMax= 3.14D-06 EMaxC= 1.00D-01 BMatC= 1.06D-09 BMatP= 2.91D-09
 IDIUse=1 WtCom= 1.00D+00 WtEn= 0.00D+00
 Coeff-Com:  0.710D-05-0.254D-04-0.114D-03-0.278D-03-0.756D-03-0.121D-02
 Coeff-Com:  0.115D-02 0.617D-01 0.421D+00 0.518D+00
 Coeff:      0.710D-05-0.254D-04-0.114D-03-0.278D-03-0.756D-03-0.121D-02
 Coeff:      0.115D-02 0.617D-01 0.421D+00 0.518D+00
 Gap=     0.184 Goal=   None    Shift=    0.000
 RMSDP=3.30D-07 MaxDP=1.23D-05 DE=-1.69D-09 OVMax= 9.57D-06

 Cycle  11  Pass 1  IDiag  1:
 RMSU=  1.61D-07    CP:  1.11D+00  8.11D-01  8.35D-01  6.10D-01  7.83D-01
                    CP:  7.65D-01  7.66D-01  8.35D-01  9.56D-01  9.24D-01
 E= -436.874513245405     Delta-E=       -0.000000000949 Rises=F Damp=F
 DIIS: error= 2.61D-07 at cycle  11 NSaved=  11.
 NSaved=11 IEnMin=11 EnMin= -436.874513245405     IErMin=11 ErrMin= 2.61D-07
 ErrMax= 2.61D-07 EMaxC= 1.00D-01 BMatC= 1.03D-11 BMatP= 1.06D-09
 IDIUse=1 WtCom= 1.00D+00 WtEn= 0.00D+00
 Coeff-Com:  0.185D-05 0.977D-06-0.488D-05-0.700D-04-0.293D-03-0.559D-03
 Coeff-Com: -0.213D-02-0.523D-02 0.259D-01 0.546D-01 0.928D+00
 Coeff:      0.185D-05 0.977D-06-0.488D-05-0.700D-04-0.293D-03-0.559D-03
 Coeff:     -0.213D-02-0.523D-02 0.259D-01 0.546D-01 0.928D+00
 Gap=     0.184 Goal=   None    Shift=    0.000
 RMSDP=9.87D-08 MaxDP=7.65D-06 DE=-9.49D-10 OVMax= 1.05D-06

 Cycle  12  Pass 1  IDiag  1:
 RMSU=  2.33D-08    CP:  1.11D+00  8.11D-01  8.35D-01  6.10D-01  7.83D-01
                    CP:  7.66D-01  7.66D-01  8.35D-01  9.77D-01  9.43D-01
                    CP:  1.04D+00
 E= -436.874513245383     Delta-E=        0.000000000021 Rises=F Damp=F
 DIIS: error= 2.33D-08 at cycle  12 NSaved=  12.
 NSaved=12 IEnMin=11 EnMin= -436.874513245405     IErMin=12 ErrMin= 2.33D-08
 ErrMax= 2.33D-08 EMaxC= 1.00D-01 BMatC= 1.75D-13 BMatP= 1.03D-11
 IDIUse=1 WtCom= 1.00D+00 WtEn= 0.00D+00
 Coeff-Com:  0.177D-06 0.496D-06 0.999D-06-0.414D-05-0.267D-04-0.412D-04
 Coeff-Com: -0.205D-03-0.172D-02-0.571D-02-0.107D-01 0.109D+00 0.910D+00
 Coeff:      0.177D-06 0.496D-06 0.999D-06-0.414D-05-0.267D-04-0.412D-04
 Coeff:     -0.205D-03-0.172D-02-0.571D-02-0.107D-01 0.109D+00 0.910D+00
 Gap=     0.184 Goal=   None    Shift=    0.000
 RMSDP=2.53D-08 MaxDP=1.80D-06 DE= 2.14D-11 OVMax= 1.98D-07

 Cycle  13  Pass 1  IDiag  1:
 RMSU=  6.16D-09    CP:  1.11D+00  8.11D-01  8.35D-01  6.10D-01  7.83D-01
                    CP:  7.66D-01  7.66D-01  8.35D-01  9.75D-01  9.48D-01
                    CP:  1.06D+00  8.61D-01
 E= -436.874513245383     Delta-E=        0.000000000000 Rises=F Damp=F
 DIIS: error= 1.60D-08 at cycle  13 NSaved=  13.
 NSaved=13 IEnMin=11 EnMin= -436.874513245405     IErMin=13 ErrMin= 1.60D-08
 ErrMax= 1.60D-08 EMaxC= 1.00D-01 BMatC= 2.30D-14 BMatP= 1.75D-13
 IDIUse=1 WtCom= 1.00D+00 WtEn= 0.00D+00
 Coeff-Com:  0.402D-07 0.165D-06 0.531D-06 0.328D-06-0.301D-05 0.471D-07
 Coeff-Com: -0.270D-04-0.496D-03-0.275D-02-0.641D-02 0.224D-01 0.374D+00
 Coeff-Com:  0.614D+00
 Coeff:      0.402D-07 0.165D-06 0.531D-06 0.328D-06-0.301D-05 0.471D-07
 Coeff:     -0.270D-04-0.496D-03-0.275D-02-0.641D-02 0.224D-01 0.374D+00
 Coeff:      0.614D+00
 Gap=     0.184 Goal=   None    Shift=    0.000
 RMSDP=1.91D-09 MaxDP=1.46D-07 DE= 1.14D-13 OVMax= 6.80D-08

 SCF Done:  E(RB+HF-LYP) =  -436.874513245     A.U. after   13 cycles
             Convg  =    0.1906D-08             -V/T =  2.0038
             S**2   =   0.0000
 KE= 4.352263046093D+02 PE=-1.845767293093D+03 EE= 5.608869659535D+02
 Leave Link  502 at Sun Aug 20 15:38:07 2006, MaxMem=    6291456 cpu:     917.6
 (Enter /usr/local/Gaussian/g03/l601.exe)
 Copying SCF densities to generalized density rwf, ISCF=0 IROHF=0.

 **********************************************************************

            Population analysis using the SCF density.

 **********************************************************************

 Orbital symmetries:
       Occupied  (A") (A') (A') (A') (A") (A') (A') (A") (A') (A')
                 (A") (A') (A') (A") (A') (A") (A') (A') (A') (A")
                 (A') (A") (A') (A") (A') (A') (A") (A") (A') (A")
                 (A') (A")
       Virtual   (A') (A") (A') (A') (A") (A') (A') (A") (A') (A')
                 (A") (A') (A') (A") (A') (A') (A") (A') (A") (A')
                 (A') (A") (A') (A") (A') (A') (A") (A') (A') (A")
                 (A') (A') (A") (A') (A') (A") (A") (A") (A') (A')
                 (A") (A") (A') (A') (A') (A") (A') (A") (A') (A")
                 (A') (A') (A") (A') (A") (A') (A') (A") (A") (A')
                 (A") (A") (A') (A') (A") (A') (A') (A") (A') (A')
                 (A") (A') (A') (A') (A") (A') (A") (A') (A") (A')
                 (A") (A') (A') (A") (A') (A") (A") (A') (A") (A')
                 (A') (A") (A") (A') (A") (A') (A') (A") (A') (A')
                 (A") (A") (A') (A') (A") (A') (A') (A') (A") (A')
                 (A") (A") (A') (A") (A') (A") (A") (A') (A') (A')
                 (A") (A") (A') (A") (A') (A') (A") (A") (A') (A")
                 (A') (A') (A") (A') (A") (A') (A") (A') (A") (A')
                 (A') (A') (A') (A") (A') (A') (A") (A") (A') (A")
                 (A') (A') (A") (A') (A") (A") (A') (A") (A') (A')
                 (A") (A') (A") (A') (A") (A") (A") (A') (A') (A')
                 (A") (A') (A') (A') (A") (A') (A') (A") (A") (A')
                 (A") (A") (A') (A") (A') (A') (A") (A') (A') (A")
                 (A') (A") (A') (A') (A') (A")
 The electronic state is 1-A'.
 Alpha  occ. eigenvalues --  -19.16711 -19.16708 -14.56194 -10.25071 -10.21490
 Alpha  occ. eigenvalues --  -10.21489 -10.21361 -10.21074 -10.21069  -1.24593
 Alpha  occ. eigenvalues --   -1.07218  -0.90625  -0.82280  -0.78746  -0.71687
 Alpha  occ. eigenvalues --   -0.64649  -0.61112  -0.57824  -0.55052  -0.52894
 Alpha  occ. eigenvalues --   -0.52433  -0.48722  -0.47863  -0.46170  -0.40604
 Alpha  occ. eigenvalues --   -0.40282  -0.38476  -0.32795  -0.32587  -0.30873
 Alpha  occ. eigenvalues --   -0.29710  -0.29239
 Alpha virt. eigenvalues --   -0.10811  -0.04687  -0.02020  -0.00840   0.01356
 Alpha virt. eigenvalues --    0.01942   0.03494   0.04444   0.04725   0.05641
 Alpha virt. eigenvalues --    0.07766   0.08113   0.08190   0.09852   0.11080
 Alpha virt. eigenvalues --    0.11548   0.12417   0.12990   0.13119   0.13586
 Alpha virt. eigenvalues --    0.14020   0.14056   0.17052   0.17134   0.17899
 Alpha virt. eigenvalues --    0.18329   0.18666   0.18886   0.19249   0.19290
 Alpha virt. eigenvalues --    0.19579   0.20529   0.21124   0.21422   0.24565
 Alpha virt. eigenvalues --    0.25033   0.25377   0.25583   0.26182   0.26821
 Alpha virt. eigenvalues --    0.28570   0.29702   0.30119   0.30388   0.31074
 Alpha virt. eigenvalues --    0.32597   0.34922   0.38296   0.39595   0.40770
 Alpha virt. eigenvalues --    0.42918   0.44009   0.48239   0.48952   0.49750
 Alpha virt. eigenvalues --    0.50252   0.52091   0.53678   0.54779   0.55529
 Alpha virt. eigenvalues --    0.57817   0.59014   0.59889   0.60172   0.62344
 Alpha virt. eigenvalues --    0.64940   0.65545   0.67245   0.69110   0.69944
 Alpha virt. eigenvalues --    0.72304   0.76457   0.79427   0.79742   0.80129
 Alpha virt. eigenvalues --    0.82098   0.82885   0.84206   0.84757   0.87455
 Alpha virt. eigenvalues --    0.88729   0.94659   0.95253   0.97293   0.99044
 Alpha virt. eigenvalues --    0.99509   1.03959   1.05435   1.06018   1.10020
 Alpha virt. eigenvalues --    1.10539   1.10826   1.15156   1.16960   1.19130
 Alpha virt. eigenvalues --    1.21305   1.23825   1.29691   1.31268   1.37718
 Alpha virt. eigenvalues --    1.45110   1.48400   1.49164   1.51999   1.53665
 Alpha virt. eigenvalues --    1.53784   1.55463   1.58391   1.61897   1.62202
 Alpha virt. eigenvalues --    1.69207   1.70426   1.70490   1.74555   1.76065
 Alpha virt. eigenvalues --    1.78968   1.83008   1.83105   1.85561   1.88967
 Alpha virt. eigenvalues --    1.90803   1.91217   1.93832   1.94430   1.96547
 Alpha virt. eigenvalues --    1.98677   2.01260   2.05466   2.10227   2.16368
 Alpha virt. eigenvalues --    2.26118   2.30215   2.31178   2.34912   2.37794
 Alpha virt. eigenvalues --    2.40033   2.40516   2.46348   2.55843   2.58968
 Alpha virt. eigenvalues --    2.61203   2.64527   2.66367   2.69858   2.72174
 Alpha virt. eigenvalues --    2.73378   2.75166   2.75612   2.75682   2.78435
 Alpha virt. eigenvalues --    2.81135   2.81694   2.82029   2.85523   2.86039
 Alpha virt. eigenvalues --    2.86103   2.89785   2.90393   3.04215   3.10447
 Alpha virt. eigenvalues --    3.14901   3.23910   3.28715   3.34529   3.35231
 Alpha virt. eigenvalues --    3.37317   3.45843   3.47510   3.52208   3.61896
 Alpha virt. eigenvalues --    3.68395   3.77543   3.80496   3.80618   3.96154
 Alpha virt. eigenvalues --    4.00656   4.12693   4.12877   4.52631   4.71688
 Alpha virt. eigenvalues --    4.81089   4.97815   5.00838   5.10171   5.15838
 Alpha virt. eigenvalues --    5.72335   6.25693  23.54125  23.90883  23.92632
 Alpha virt. eigenvalues --   24.04134  24.06947  24.16411  35.39521  49.88864
 Alpha virt. eigenvalues --   49.99579
          Condensed to atoms (all electrons):
              1          2          3          4          5          6
     1  C    9.250864  -0.195044  -1.241287  -0.910642   0.093959  -1.301311
     2  C   -0.195044   8.535714  -0.195044  -0.358097  -0.585702  -0.358097
     3  C   -1.241287  -0.195044   9.250864  -1.301311   0.093959  -0.910642
     4  C   -0.910642  -0.358097  -1.301311   7.557139   0.170528   0.481749
     5  C    0.093959  -0.585702   0.093959   0.170528   5.832922   0.170528
     6  C   -1.301311  -0.358097  -0.910642   0.481749   0.170528   7.557139
     7  H   -0.033835   0.030476   0.009051  -0.011884  -0.015151   0.374276
     8  H   -0.028417   0.021625  -0.028417   0.002353   0.382879   0.002353
     9  H    0.009051   0.030476  -0.033835   0.374276  -0.015151  -0.011884
    10  H   -0.025263   0.058820   0.360841  -0.008118  -0.004589   0.000127
    11  N    0.062132  -0.356244   0.062132  -0.037015  -0.007194  -0.037015
    12  O   -0.101751  -0.376764   0.057578   0.276923  -0.029821   0.031644
    13  O    0.057578  -0.376764  -0.101751   0.031644  -0.029821   0.276923
    14  H    0.360841   0.058820  -0.025263   0.000127  -0.004589  -0.008118
              7          8          9         10         11         12
     1  C   -0.033835  -0.028417   0.009051  -0.025263   0.062132  -0.101751
     2  C    0.030476   0.021625   0.030476   0.058820  -0.356244  -0.376764
     3  C    0.009051  -0.028417  -0.033835   0.360841   0.062132   0.057578
     4  C   -0.011884   0.002353   0.374276  -0.008118  -0.037015   0.276923
     5  C   -0.015151   0.382879  -0.015151  -0.004589  -0.007194  -0.029821
     6  C    0.374276   0.002353  -0.011884   0.000127  -0.037015   0.031644
     7  H    0.520386  -0.007343  -0.000204   0.000036  -0.001435  -0.000010
     8  H   -0.007343   0.522340  -0.007343  -0.000169   0.000247   0.000000
     9  H   -0.000204  -0.007343   0.520386  -0.006081  -0.001435   0.000023
    10  H    0.000036  -0.000169  -0.006081   0.476443  -0.028499   0.011582
    11  N   -0.001435   0.000247  -0.001435  -0.028499   7.114476   0.224388
    12  O   -0.000010   0.000000   0.000023   0.011582   0.224388   7.939914
    13  O    0.000023   0.000000  -0.000010  -0.001145   0.224388  -0.007936
    14  H   -0.006081  -0.000169   0.000036  -0.000110  -0.028499  -0.001145
             13         14
     1  C    0.057578   0.360841
     2  C   -0.376764   0.058820
     3  C   -0.101751  -0.025263
     4  C    0.031644   0.000127
     5  C   -0.029821  -0.004589
     6  C    0.276923  -0.008118
     7  H    0.000023  -0.006081
     8  H    0.000000  -0.000169
     9  H   -0.000010   0.000036
    10  H   -0.001145  -0.000110
    11  N    0.224388  -0.028499
    12  O   -0.007936  -0.001145
    13  O    7.939914   0.011582
    14  H    0.011582   0.476443
 Mulliken atomic charges:
              1
     1  C    0.003125
     2  C    0.065827
     3  C    0.003125
     4  C   -0.267672
     5  C   -0.052755
     6  C   -0.267672
     7  H    0.141696
     8  H    0.140059
     9  H    0.141696
    10  H    0.166125
    11  N   -0.190426
    12  O   -0.024626
    13  O   -0.024626
    14  H    0.166125
 Sum of Mulliken charges=   0.00000
 Atomic charges with hydrogens summed into heavy atoms:
              1
     1  C    0.169250
     2  C    0.065827
     3  C    0.169250
     4  C   -0.125976
     5  C    0.087304
     6  C   -0.125976
     7  H    0.000000
     8  H    0.000000
     9  H    0.000000
    10  H    0.000000
    11  N   -0.190426
    12  O   -0.024626
    13  O   -0.024626
    14  H    0.000000
 Sum of Mulliken charges=   0.00000
 Electronic spatial extent (au):  <R**2>=  1119.5734
 Charge=     0.0000 electrons
 Dipole moment (field-independent basis, Debye):
    X=    -0.0001    Y=     4.9186    Z=     0.0000  Tot=     4.9186
 Quadrupole moment (field-independent basis, Debye-Ang):
   XX=   -53.4606   YY=   -56.1801   ZZ=   -48.1867
   XY=    -0.0007   XZ=     0.0000   YZ=     0.0000
 Traceless Quadrupole moment (field-independent basis, Debye-Ang):
   XX=    -0.8515   YY=    -3.5710   ZZ=     4.4224
   XY=    -0.0007   XZ=     0.0000   YZ=     0.0000
 Octapole moment (field-independent basis, Debye-Ang**2):
  XXX=     0.0014  YYY=    32.5503  ZZZ=     0.0000  XYY=    -0.0054
  XXY=   -12.9923  XXZ=     0.0000  XZZ=     0.0018  YZZ=     8.2012
  YYZ=     0.0000  XYZ=     0.0000
 Hexadecapole moment (field-independent basis, Debye-Ang**3):
 XXXX=   -57.3252 YYYY= -1017.2967 ZZZZ=  -352.9124 XXXY=     0.0279
 XXXZ=     0.0000 YYYX=     0.0108 YYYZ=     0.0000 ZZZX=     0.0000
 ZZZY=     0.0000 XXYY=  -185.3393 XXZZ=   -80.1212 YYZZ=  -234.7802
 XXYZ=     0.0000 YYXZ=     0.0000 ZZXY=     0.0101
 N-N= 4.127795092851D+02 E-N=-1.845767293180D+03  KE= 4.352263046093D+02
 Symmetry A'   KE= 2.750101128966D+02
 Symmetry A"   KE= 1.602161917127D+02
 No NMR shielding tensors so no spin-rotation constants.
 Leave Link  601 at Sun Aug 20 15:38:18 2006, MaxMem=    6291456 cpu:       1.8
 (Enter /usr/local/Gaussian/g03/l701.exe)
 Compute integral first derivatives.
 ... and contract with generalized density number  0.
 Leave Link  701 at Sun Aug 20 15:38:28 2006, MaxMem=    6291456 cpu:       1.2
 (Enter /usr/local/Gaussian/g03/l702.exe)
 L702 exits ... SP integral derivatives will be done elsewhere.
 Leave Link  702 at Sun Aug 20 15:38:29 2006, MaxMem=    6291456 cpu:       0.0
 (Enter /usr/local/Gaussian/g03/l703.exe)
 Compute integral first derivatives, UseDBF=F.
 Integral derivatives from FoFDir, PRISM(SPDF).
 Petite list used in FoFDir.
 MinBra= 0 MaxBra= 2 Meth= 1.
 IRaf=       0 NMat=   1 IRICut=       1 DoRegI=T DoRafI=F ISym2E= 1 JSym2E=1.
 Leave Link  703 at Sun Aug 20 16:06:11 2006, MaxMem=    6291456 cpu:     288.9
 (Enter /usr/local/Gaussian/g03/l716.exe)
 Dipole        =-5.09340908D-05 1.93511154D+00-4.44089210D-14
 ***** Axes restored to original set *****
 -------------------------------------------------------------------
 Center     Atomic                   Forces (Hartrees/Bohr)
 Number     Number              X              Y              Z
 -------------------------------------------------------------------
    1          6          -0.000868336   -0.000008310   -0.001218176
    2          6           0.004148868   -0.000005502   -0.002284768
    3          6           0.000565266   -0.000008310    0.001385075
    4          6           0.001488094    0.000018027    0.000893289
    5          6           0.001437717   -0.000020926   -0.000791746
    6          6           0.000040622    0.000018027   -0.001735149
    7          1           0.000040903   -0.000007903    0.001894544
    8          1          -0.001637406    0.000011751    0.000901714
    9          1          -0.001579216   -0.000007903   -0.001047400
   10          1           0.000404386   -0.000000537   -0.001873446
   11          7          -0.003436556    0.000028783    0.001892500
   12          8          -0.001373856   -0.000008331    0.000349612
   13          8          -0.001029929   -0.000008331    0.000974144
   14          1           0.001799440   -0.000000537    0.000659806
 -------------------------------------------------------------------
 Cartesian Forces:  Max     0.004148868 RMS     0.001318946
 Leave Link  716 at Sun Aug 20 16:06:12 2006, MaxMem=    6291456 cpu:       0.0
 (Enter /usr/local/Gaussian/g03/l103.exe)

 GradGradGradGradGradGradGradGradGradGradGradGradGradGradGradGradGradGrad
 Berny optimization.
 Internal  Forces:  Max     0.006667374 RMS     0.001079551
 Search for a local minimum.
 Step number   1 out of a maximum of  73
 All quantities printed in internal units (Hartrees-Bohrs-Radians)
 Second derivative matrix not updated -- first step.
     Eigenvalues ---    0.00790   0.00790   0.01785   0.02147   0.02160
     Eigenvalues ---    0.02173   0.02178   0.02191   0.02201   0.02202
     Eigenvalues ---    0.02203   0.16000   0.16000   0.16000   0.16000
     Eigenvalues ---    0.16000   0.22000   0.22000   0.23503   0.25000
     Eigenvalues ---    0.25000   0.25000   0.35196   0.35253   0.35253
     Eigenvalues ---    0.35543   0.35543   0.35960   0.42384   0.42605
     Eigenvalues ---    0.46498   0.46728   0.47063   0.47092   0.93176
     Eigenvalues ---    0.931761000.000001000.000001000.000001000.00000
     Eigenvalues --- 1000.000001000.000001000.000001000.000001000.00000
     Eigenvalues --- 1000.000001000.000001000.000001000.000001000.00000
     Eigenvalues --- 1000.000001000.000001000.000001000.000001000.00000
     Eigenvalues --- 1000.000001000.000001000.000001000.000001000.00000
     Eigenvalues --- 1000.000001000.000001000.00000
 RFO step:  Lambda=-2.16072200D-04.
 Linear search not attempted -- first point.
 Iteration  1 RMS(Cart)=  0.00627503 RMS(Int)=  0.00000493
 Iteration  2 RMS(Cart)=  0.00000612 RMS(Int)=  0.00000041
 Iteration  3 RMS(Cart)=  0.00000000 RMS(Int)=  0.00000041
 Variable       Old X    -DE/DX   Delta X   Delta X   Delta X     New X
                                 (Linear)    (Quad)   (Total)
    R1        2.62958   0.00074   0.00000   0.00168   0.00168   2.63126
    R2        2.62919  -0.00012   0.00000  -0.00026  -0.00026   2.62893
    R3        2.04803  -0.00189   0.00000  -0.00532  -0.00532   2.04271
    R4        2.62958   0.00074   0.00000   0.00168   0.00168   2.63126
    R5        2.77445   0.00667   0.00000   0.01853   0.01853   2.79298
    R6        2.62919  -0.00012   0.00000  -0.00026  -0.00026   2.62893
    R7        2.04803  -0.00189   0.00000  -0.00532  -0.00532   2.04271
    R8        2.63726  -0.00045   0.00000  -0.00108  -0.00108   2.63618
    R9        2.05265  -0.00189   0.00000  -0.00537  -0.00537   2.04729
   R10        2.63726  -0.00045   0.00000  -0.00108  -0.00108   2.63618
   R11        2.05358  -0.00187   0.00000  -0.00531  -0.00531   2.04828
   R12        2.05265  -0.00189   0.00000  -0.00537  -0.00537   2.04729
   R13        2.31503   0.00032   0.00000   0.00034   0.00034   2.31537
   R14        2.31503   0.00032   0.00000   0.00034   0.00034   2.31537
    A1        2.06821   0.00038   0.00000   0.00183   0.00183   2.07005
    A2        2.08537   0.00013   0.00000   0.00107   0.00107   2.08644
    A3        2.12961  -0.00051   0.00000  -0.00291  -0.00291   2.12670
    A4        2.13484  -0.00105   0.00000  -0.00391  -0.00390   2.13093
    A5        2.07417   0.00052   0.00000   0.00195   0.00195   2.07613
    A6        2.07417   0.00052   0.00000   0.00195   0.00195   2.07613
    A7        2.06821   0.00038   0.00000   0.00183   0.00183   2.07005
    A8        2.08537   0.00013   0.00000   0.00107   0.00107   2.08644
    A9        2.12961  -0.00051   0.00000  -0.00291  -0.00291   2.12670
   A10        2.09748   0.00016   0.00000   0.00041   0.00041   2.09789
   A11        2.08767   0.00000   0.00000   0.00029   0.00029   2.08796
   A12        2.09804  -0.00016   0.00000  -0.00070  -0.00070   2.09734
   A13        2.10016  -0.00002   0.00000  -0.00058  -0.00059   2.09957
   A14        2.09151   0.00001   0.00000   0.00029   0.00029   2.09181
   A15        2.09151   0.00001   0.00000   0.00029   0.00029   2.09181
   A16        2.09748   0.00016   0.00000   0.00041   0.00041   2.09789
   A17        2.08767   0.00000   0.00000   0.00029   0.00029   2.08796
   A18        2.09804  -0.00016   0.00000  -0.00070  -0.00070   2.09734
   A19        2.05269   0.00107   0.00000   0.00426   0.00426   2.05695
   A20        2.05269   0.00107   0.00000   0.00426   0.00426   2.05695
   A21        2.17780  -0.00213   0.00000  -0.00852  -0.00852   2.16928
    D1        0.00017   0.00000   0.00000  -0.00016  -0.00016   0.00000
    D2       -3.14138   0.00000   0.00000  -0.00020  -0.00020  -3.14158
    D3       -3.14151   0.00000   0.00000  -0.00007  -0.00007  -3.14157
    D4        0.00013   0.00000   0.00000  -0.00011  -0.00011   0.00002
    D5       -0.00009   0.00000   0.00000   0.00011   0.00011   0.00002
    D6       -3.14150   0.00000   0.00000  -0.00006  -0.00006  -3.14156
    D7        3.14159   0.00000   0.00000   0.00001   0.00001  -3.14159
    D8        0.00018   0.00000   0.00000  -0.00016  -0.00016   0.00002
    D9       -0.00017   0.00000   0.00000   0.00016   0.00016   0.00000
   D10        3.14151   0.00000   0.00000   0.00007   0.00007   3.14157
   D11        3.14138   0.00000   0.00000   0.00020   0.00020   3.14158
   D12       -0.00013   0.00000   0.00000   0.00011   0.00011  -0.00002
   D13       -3.14154  -0.00001   0.00000  -0.00104  -0.00104   3.14060
   D14       -0.00009   0.00001   0.00000   0.00108   0.00108   0.00099
   D15        0.00009  -0.00001   0.00000  -0.00108  -0.00108  -0.00099
   D16        3.14154   0.00001   0.00000   0.00104   0.00104  -3.14060
   D17        0.00009   0.00000   0.00000  -0.00011  -0.00011  -0.00002
   D18        3.14150   0.00000   0.00000   0.00006   0.00006   3.14156
   D19       -3.14159   0.00000   0.00000  -0.00001  -0.00001   3.14159
   D20       -0.00018   0.00000   0.00000   0.00016   0.00016  -0.00002
   D21       -0.00002   0.00000   0.00000   0.00007   0.00007   0.00005
   D22       -3.14139   0.00000   0.00000  -0.00014  -0.00014  -3.14154
   D23       -3.14143   0.00000   0.00000  -0.00010  -0.00010  -3.14153
   D24        0.00038  -0.00001   0.00000  -0.00031  -0.00031   0.00007
   D25        0.00002   0.00000   0.00000  -0.00007  -0.00007  -0.00005
   D26        3.14143   0.00000   0.00000   0.00010   0.00010   3.14153
   D27        3.14139   0.00000   0.00000   0.00014   0.00014   3.14154
   D28       -0.00038   0.00001   0.00000   0.00031   0.00031  -0.00007
         Item               Value     Threshold  Converged?
 Maximum Force            0.006667     0.000450     NO 
 RMS     Force            0.001080     0.000300     NO 
 Maximum Displacement     0.025165     0.001800     NO 
 RMS     Displacement     0.006273     0.001200     NO 
 Predicted change in Energy=-1.081067D-04
 GradGradGradGradGradGradGradGradGradGradGradGradGradGradGradGradGradGrad

 Leave Link  103 at Sun Aug 20 16:06:16 2006, MaxMem=    6291456 cpu:       0.3
 (Enter /usr/local/Gaussian/g03/l202.exe)
                          Input orientation:                          
 ---------------------------------------------------------------------
 Center     Atomic     Atomic              Coordinates (Angstroms)
 Number     Number      Type              X           Y           Z
 ---------------------------------------------------------------------
    1          6             0        0.003204    0.000088   -0.001154
    2          6             0        0.000486    0.000225    1.391245
    3          6             0        1.178659    0.000088    2.133332
    4          6             0        2.393164   -0.000200    1.454852
    5          6             0        2.417758   -0.000373    0.060062
    6          6             0        1.225870   -0.000200   -0.664816
    7          1             0        1.247395   -0.000277   -1.747979
    8          1             0        3.367210   -0.000650   -0.462799
    9          1             0        3.320055   -0.000277    2.015726
   10          1             0        1.128470    0.000220    3.213122
   11          7             0       -1.294162    0.000520    2.104204
   12          8             0       -1.273061   -0.000436    3.329264
   13          8             0       -2.318183   -0.000436    1.431448
   14          1             0       -0.936160    0.000220   -0.536001
 ---------------------------------------------------------------------
                    Distance matrix (angstroms):
                    1          2          3          4          5
     1  C    0.000000
     2  C    1.392402   0.000000
     3  C    2.436744   1.392402   0.000000
     4  C    2.798546   2.393523   1.391171   0.000000
     5  C    2.415330   2.759575   2.415330   1.395007   0.000000
     6  C    1.391171   2.393523   2.798546   2.419827   1.395007
     7  H    2.144623   3.377797   3.881920   3.401604   2.153779
     8  H    3.395534   3.843477   3.395534   2.150848   1.083901
     9  H    3.881920   3.377797   2.144623   1.083378   2.153779
    10  H    3.405554   2.142798   1.080956   2.165864   3.406473
    11  N    2.472993   1.477980   2.472993   3.744066   4.237555
    12  O    3.566587   2.319017   2.727854   4.117600   4.930500
    13  O    2.727854   2.319017   3.566587   4.711404   4.930500
    14  H    1.080956   2.142798   3.405554   3.879161   3.406473
                    6          7          8          9         10
     6  C    0.000000
     7  H    1.083378   0.000000
     8  H    2.150848   2.478973   0.000000
     9  H    3.401604   4.296673   2.478973   0.000000
    10  H    3.879161   4.962527   4.303993   2.497359   0.000000
    11  N    3.744066   4.615065   5.321456   4.615065   2.664366
    12  O    4.711404   5.668430   5.992650   4.777248   2.404338
    13  O    4.117600   4.777248   5.992650   5.668430   3.879920
    14  H    2.165864   2.497359   4.303993   4.962527   4.280026
                   11         12         13         14
    11  N    0.000000
    12  O    1.225242   0.000000
    13  O    1.225242   2.166561   0.000000
    14  H    2.664366   3.879920   2.404338   0.000000
 Stoichiometry    C6H5NO2
 Framework group  CS[SG(C2HN),X(C4H4O2)]
 Deg. of freedom    20
 Full point group                 CS      NOp   2
 Largest Abelian subgroup         CS      NOp   2
 Largest concise Abelian subgroup CS      NOp   2
                         Standard orientation:                         
 ---------------------------------------------------------------------
 Center     Atomic     Atomic              Coordinates (Angstroms)
 Number     Number      Type              X           Y           Z
 ---------------------------------------------------------------------
    1          6             0       -0.000276   -0.431080    1.218372
    2          6             0       -0.000274    0.242977    0.000000
    3          6             0       -0.000276   -0.431080   -1.218372
    4          6             0       -0.000276   -1.822225   -1.209914
    5          6             0       -0.000247   -2.516598    0.000000
    6          6             0       -0.000276   -1.822225    1.209914
    7          1             0       -0.000311   -2.363584    2.148336
    8          1             0       -0.000194   -3.600499    0.000000
    9          1             0       -0.000311   -2.363584   -2.148336
   10          1             0       -0.000292    0.133761   -2.140013
   11          7             0       -0.000263    1.720957    0.000000
   12          8             0        0.000812    2.293427   -1.083280
   13          8             0        0.000812    2.293427    1.083280
   14          1             0       -0.000292    0.133761    2.140013
 ---------------------------------------------------------------------
 Rotational constants (GHZ):      3.9845833      1.2812670      0.9695139
 Leave Link  202 at Sun Aug 20 16:06:19 2006, MaxMem=    6291456 cpu:       0.5
 (Enter /usr/local/Gaussian/g03/l301.exe)
 Standard basis: 6-311+G(d,p) (5D, 7F)
 There are   131 symmetry adapted basis functions of A'  symmetry.
 There are    97 symmetry adapted basis functions of A"  symmetry.
 Integral buffers will be    131072 words long.
 Raffenetti 2 integral format.
 Two-electron integral symmetry is turned on.
   228 basis functions,   364 primitive gaussians,   237 cartesian basis functions
    32 alpha electrons       32 beta electrons
       nuclear repulsion energy       412.1826422851 Hartrees.
 IExCor= 402 DFT=T Ex=B+HF Corr=LYP ExCW=0 ScaHFX=  0.200000
 ScaDFX=  0.800000  0.720000  1.000000  0.810000
 IRadAn=      0 IRanWt=     -1 IRanGd=            0 ICorTp=0
 NAtoms=   14 NActive=   14 NUniq=    9 SFac= 3.02D+00 NAtFMM=   60 Big=F
 Leave Link  301 at Sun Aug 20 16:06:22 2006, MaxMem=    6291456 cpu:       0.1
 (Enter /usr/local/Gaussian/g03/l302.exe)
 NPDir=0 NMtPBC=     1 NCelOv=     1 NCel=       1 NClECP=     1 NCelD=      1
         NCelK=      1 NCelE2=     1 NClLst=     1 CellRange=     0.0.
 One-electron integrals computed using PRISM.
 One-electron integral symmetry used in STVInt
 NBasis=   228 RedAO= T  NBF=   131    97
 NBsUse=   228 1.00D-06 NBFU=   131    97
 Precomputing XC quadrature grid using
 IXCGrd= 2 IRadAn=           0 IRanWt=          -1 IRanGd=           0.
 NRdTot=     898 NPtTot=      113984 NUsed=      120327 NTot=      120359
 NSgBfM=   237   237   237   237.
 Leave Link  302 at Sun Aug 20 16:06:38 2006, MaxMem=    6291456 cpu:       2.5
 (Enter /usr/local/Gaussian/g03/l303.exe)
 DipDrv:  MaxL=1.
 Leave Link  303 at Sun Aug 20 16:06:40 2006, MaxMem=    6291456 cpu:       0.2
 (Enter /usr/local/Gaussian/g03/l401.exe)
 Initial guess read from the read-write file:
 Guess basis will be translated and rotated to current coordinates.
 Initial guess orbital symmetries:
       Occupied  (A") (A') (A') (A') (A") (A') (A') (A") (A') (A')
                 (A") (A') (A') (A") (A') (A") (A') (A') (A') (A")
                 (A') (A") (A') (A") (A') (A') (A") (A") (A') (A")
                 (A') (A")
       Virtual   (A') (A") (A') (A') (A") (A') (A') (A") (A') (A')
                 (A") (A') (A') (A") (A') (A') (A") (A') (A") (A')
                 (A') (A") (A') (A") (A') (A') (A") (A') (A') (A")
                 (A') (A') (A") (A') (A') (A") (A") (A") (A') (A')
                 (A") (A") (A') (A') (A') (A") (A') (A") (A') (A")
                 (A') (A') (A") (A') (A") (A') (A') (A") (A") (A')
                 (A") (A") (A') (A') (A") (A') (A') (A") (A') (A')
                 (A") (A') (A') (A') (A") (A') (A") (A') (A") (A')
                 (A") (A') (A') (A") (A') (A") (A") (A') (A") (A')
                 (A') (A") (A") (A') (A") (A') (A') (A") (A') (A')
                 (A") (A") (A') (A') (A") (A') (A') (A') (A") (A')
                 (A") (A") (A') (A") (A') (A") (A") (A') (A') (A')
                 (A") (A") (A') (A") (A') (A') (A") (A") (A') (A")
                 (A') (A') (A") (A') (A") (A') (A") (A') (A") (A')
                 (A') (A') (A') (A") (A') (A') (A") (A") (A') (A")
                 (A') (A') (A") (A') (A") (A") (A') (A") (A') (A')
                 (A") (A') (A") (A') (A") (A") (A") (A') (A') (A')
                 (A") (A') (A') (A') (A") (A') (A') (A") (A") (A')
                 (A") (A") (A') (A") (A') (A') (A") (A') (A') (A")
                 (A') (A") (A') (A') (A') (A")
 The electronic state of the initial guess is 1-A'.
 Generating alternative initial guess.
 Harris functional with IExCor=  402 diagonalized for initial guess.
 ExpMin= 4.38D-02 ExpMax= 8.59D+03 ExpMxC= 1.30D+03 IAcc=2 IRadAn=         4 AccDes= 0.00D+00
 HarFok:  IExCor= 402 AccDes= 0.00D+00 IRadAn=         4 IDoV=1
 ScaDFX=  1.000000  1.000000  1.000000  1.000000
 Harris En= -437.023083806909    
 Leave Link  401 at Sun Aug 20 16:08:28 2006, MaxMem=    6291456 cpu:      18.2
 (Enter /usr/local/Gaussian/g03/l502.exe)
 Closed shell SCF:
 Requested convergence on RMS density matrix=1.00D-08 within 128 cycles.
 Requested convergence on MAX density matrix=1.00D-06.
 Requested convergence on             energy=1.00D-06.
 No special actions if energy rises.
 Using DIIS extrapolation, IDIIS=  1040.
 Integral symmetry usage will be decided dynamically.
       120326 words used for storage of precomputed grid.
 IEnd=    337146 IEndB=    337146 NGot=   6291456 MDV=   6027357
 LenX=   6027357
 Fock matrices will be formed incrementally for  20 cycles.

 Cycle   1  Pass 1  IDiag  1:
 Petite list used in FoFDir.
 MinBra= 0 MaxBra= 2 Meth= 1.
 IRaf=       0 NMat=   1 IRICut=       1 DoRegI=T DoRafI=F ISym2E= 1 JSym2E=1.
 E= -429.226206503351    
 DIIS: error= 1.00D-01 at cycle   1 NSaved=   1.
 NSaved= 1 IEnMin= 1 EnMin= -429.226206503351     IErMin= 1 ErrMin= 1.00D-01
 ErrMax= 1.00D-01 EMaxC= 1.00D-01 BMatC= 3.98D+00 BMatP= 3.98D+00
 IDIUse=3 WtCom= 0.00D+00 WtEn= 1.00D+00
 Coeff-Com:  0.100D+01
 Coeff-En:   0.100D+01
 Coeff:      0.100D+01
 Recover alternate guess density for next cycle.
 RMSDP=3.11D-02 MaxDP=1.26D+00              OVMax= 0.00D+00

 Cycle   2  Pass 1  IDiag  1:
 RMSU=  2.07D-02    CP:  4.36D-01
 E= -436.544956988159     Delta-E=       -7.318750484809 Rises=F Damp=F
 DIIS: error= 4.15D-02 at cycle   2 NSaved=   2.
 NSaved= 2 IEnMin= 2 EnMin= -436.544956988159     IErMin= 2 ErrMin= 4.15D-02
 ErrMax= 4.15D-02 EMaxC= 1.00D-01 BMatC= 4.11D-01 BMatP= 3.98D+00
 IDIUse=3 WtCom= 5.85D-01 WtEn= 4.15D-01
 Coeff-Com:  0.100D+00 0.900D+00
 Coeff-En:   0.000D+00 0.100D+01
 Coeff:      0.587D-01 0.941D+00
 Gap=     0.255 Goal=   None    Shift=    0.000
 RMSDP=1.47D-02 MaxDP=4.41D-01 DE=-7.32D+00 OVMax= 7.56D-01

 Cycle   3  Pass 1  IDiag  1:
 RMSU=  1.31D-02    CP:  5.41D-01  1.25D+00
 E= -436.141319121522     Delta-E=        0.403637866638 Rises=F Damp=F
 DIIS: error= 8.16D-02 at cycle   3 NSaved=   3.
 NSaved= 3 IEnMin= 2 EnMin= -436.544956988159     IErMin= 2 ErrMin= 4.15D-02
 ErrMax= 8.16D-02 EMaxC= 1.00D-01 BMatC= 9.27D-01 BMatP= 4.11D-01
 IDIUse=2 WtCom= 0.00D+00 WtEn= 1.00D+00
 Coeff-En:   0.000D+00 0.669D+00 0.331D+00
 Coeff:      0.000D+00 0.669D+00 0.331D+00
 Gap=     0.186 Goal=   None    Shift=    0.000
 RMSDP=7.48D-03 MaxDP=2.66D-01 DE= 4.04D-01 OVMax= 2.64D-01

 Cycle   4  Pass 1  IDiag  1:
 RMSU=  4.39D-03    CP:  4.87D-01  1.15D+00  5.95D-01
 E= -436.850447533867     Delta-E=       -0.709128412346 Rises=F Damp=F
 DIIS: error= 1.20D-02 at cycle   4 NSaved=   4.
 NSaved= 4 IEnMin= 4 EnMin= -436.850447533867     IErMin= 4 ErrMin= 1.20D-02
 ErrMax= 1.20D-02 EMaxC= 1.00D-01 BMatC= 2.77D-02 BMatP= 4.11D-01
 IDIUse=3 WtCom= 8.80D-01 WtEn= 1.20D-01
 Coeff-Com: -0.327D-02 0.265D+00 0.969D-01 0.642D+00
 Coeff-En:   0.000D+00 0.000D+00 0.000D+00 0.100D+01
 Coeff:     -0.288D-02 0.233D+00 0.853D-01 0.684D+00
 Gap=     0.185 Goal=   None    Shift=    0.000
 RMSDP=2.60D-03 MaxDP=1.06D-01 DE=-7.09D-01 OVMax= 7.75D-02

 Cycle   5  Pass 1  IDiag  1:
 RMSU=  1.33D-03    CP:  4.82D-01  1.11D+00  4.65D-01  7.32D-01
 E= -436.866319917956     Delta-E=       -0.015872384088 Rises=F Damp=F
 DIIS: error= 7.92D-03 at cycle   5 NSaved=   5.
 NSaved= 5 IEnMin= 5 EnMin= -436.866319917956     IErMin= 5 ErrMin= 7.92D-03
 ErrMax= 7.92D-03 EMaxC= 1.00D-01 BMatC= 7.85D-03 BMatP= 2.77D-02
 IDIUse=3 WtCom= 9.21D-01 WtEn= 7.92D-02
 Coeff-Com: -0.101D-04 0.854D-01 0.137D-01 0.415D+00 0.486D+00
 Coeff-En:   0.000D+00 0.000D+00 0.000D+00 0.243D+00 0.757D+00
 Coeff:     -0.933D-05 0.787D-01 0.127D-01 0.401D+00 0.507D+00
 Gap=     0.183 Goal=   None    Shift=    0.000
 RMSDP=6.32D-04 MaxDP=1.85D-02 DE=-1.59D-02 OVMax= 4.80D-02

 Cycle   6  Pass 1  IDiag  1:
 RMSU=  3.91D-04    CP:  4.79D-01  1.12D+00  4.68D-01  7.35D-01  6.37D-01
 E= -436.873905212381     Delta-E=       -0.007585294426 Rises=F Damp=F
 DIIS: error= 2.08D-03 at cycle   6 NSaved=   6.
 NSaved= 6 IEnMin= 6 EnMin= -436.873905212381     IErMin= 6 ErrMin= 2.08D-03
 ErrMax= 2.08D-03 EMaxC= 1.00D-01 BMatC= 6.90D-04 BMatP= 7.85D-03
 IDIUse=3 WtCom= 9.79D-01 WtEn= 2.08D-02
 Coeff-Com:  0.182D-03 0.196D-01-0.386D-02 0.179D+00 0.304D+00 0.502D+00
 Coeff-En:   0.000D+00 0.000D+00 0.000D+00 0.000D+00 0.261D-01 0.974D+00
 Coeff:      0.178D-03 0.192D-01-0.378D-02 0.175D+00 0.298D+00 0.512D+00
 Gap=     0.185 Goal=   None    Shift=    0.000
 RMSDP=2.44D-04 MaxDP=7.86D-03 DE=-7.59D-03 OVMax= 1.07D-02

 Cycle   7  Pass 1  IDiag  1:
 RMSU=  1.47D-04    CP:  4.80D-01  1.11D+00  4.64D-01  7.49D-01  6.29D-01
                    CP:  5.55D-01
 E= -436.874586279412     Delta-E=       -0.000681067030 Rises=F Damp=F
 DIIS: error= 3.34D-04 at cycle   7 NSaved=   7.
 NSaved= 7 IEnMin= 7 EnMin= -436.874586279412     IErMin= 7 ErrMin= 3.34D-04
 ErrMax= 3.34D-04 EMaxC= 1.00D-01 BMatC= 1.76D-05 BMatP= 6.90D-04
 IDIUse=3 WtCom= 9.97D-01 WtEn= 3.34D-03
 Coeff-Com: -0.293D-04 0.135D-02-0.300D-02 0.368D-01 0.676D-01 0.198D+00
 Coeff-Com:  0.700D+00
 Coeff-En:   0.000D+00 0.000D+00 0.000D+00 0.000D+00 0.000D+00 0.000D+00
 Coeff-En:   0.100D+01
 Coeff:     -0.292D-04 0.134D-02-0.299D-02 0.367D-01 0.674D-01 0.197D+00
 Coeff:      0.701D+00
 Gap=     0.185 Goal=   None    Shift=    0.000
 RMSDP=7.20D-05 MaxDP=3.88D-03 DE=-6.81D-04 OVMax= 1.66D-03

 Cycle   8  Pass 1  IDiag  1:
 RMSU=  2.68D-05    CP:  4.79D-01  1.11D+00  4.64D-01  7.47D-01  6.35D-01
                    CP:  6.77D-01  7.66D-01
 E= -436.874602519434     Delta-E=       -0.000016240022 Rises=F Damp=F
 DIIS: error= 9.27D-05 at cycle   8 NSaved=   8.
 NSaved= 8 IEnMin= 8 EnMin= -436.874602519434     IErMin= 8 ErrMin= 9.27D-05
 ErrMax= 9.27D-05 EMaxC= 1.00D-01 BMatC= 1.11D-06 BMatP= 1.76D-05
 IDIUse=1 WtCom= 1.00D+00 WtEn= 0.00D+00
 Coeff-Com:  0.936D-05 0.224D-03-0.122D-02 0.133D-01 0.250D-01 0.864D-01
 Coeff-Com:  0.357D+00 0.520D+00
 Coeff:      0.936D-05 0.224D-03-0.122D-02 0.133D-01 0.250D-01 0.864D-01
 Coeff:      0.357D+00 0.520D+00
 Gap=     0.185 Goal=   None    Shift=    0.000
 RMSDP=2.40D-05 MaxDP=1.28D-03 DE=-1.62D-05 OVMax= 4.21D-04

 Cycle   9  Pass 1  IDiag  1:
 RMSU=  1.02D-05    CP:  4.79D-01  1.11D+00  4.64D-01  7.50D-01  6.35D-01
                    CP:  6.52D-01  8.11D-01  6.86D-01
 E= -436.874603448074     Delta-E=       -0.000000928640 Rises=F Damp=F
 DIIS: error= 2.10D-05 at cycle   9 NSaved=   9.
 NSaved= 9 IEnMin= 9 EnMin= -436.874603448074     IErMin= 9 ErrMin= 2.10D-05
 ErrMax= 2.10D-05 EMaxC= 1.00D-01 BMatC= 1.09D-07 BMatP= 1.11D-06
 IDIUse=1 WtCom= 1.00D+00 WtEn= 0.00D+00
 Coeff-Com:  0.120D-05-0.165D-03-0.127D-03 0.332D-04 0.733D-03 0.888D-02
 Coeff-Com:  0.508D-01 0.255D+00 0.684D+00
 Coeff:      0.120D-05-0.165D-03-0.127D-03 0.332D-04 0.733D-03 0.888D-02
 Coeff:      0.508D-01 0.255D+00 0.684D+00
 Gap=     0.185 Goal=   None    Shift=    0.000
 RMSDP=3.67D-06 MaxDP=1.14D-04 DE=-9.29D-07 OVMax= 6.26D-05

 Cycle  10  Pass 1  IDiag  1:
 RMSU=  1.89D-06    CP:  4.79D-01  1.11D+00  4.64D-01  7.49D-01  6.35D-01
                    CP:  6.53D-01  8.17D-01  6.85D-01  8.29D-01
 E= -436.874603535737     Delta-E=       -0.000000087663 Rises=F Damp=F
 DIIS: error= 3.42D-06 at cycle  10 NSaved=  10.
 NSaved=10 IEnMin=10 EnMin= -436.874603535737     IErMin=10 ErrMin= 3.42D-06
 ErrMax= 3.42D-06 EMaxC= 1.00D-01 BMatC= 1.69D-09 BMatP= 1.09D-07
 IDIUse=1 WtCom= 1.00D+00 WtEn= 0.00D+00
 Coeff-Com:  0.830D-07-0.470D-04 0.373D-05-0.383D-03-0.404D-03-0.220D-03
 Coeff-Com:  0.223D-02 0.617D-01 0.166D+00 0.772D+00
 Coeff:      0.830D-07-0.470D-04 0.373D-05-0.383D-03-0.404D-03-0.220D-03
 Coeff:      0.223D-02 0.617D-01 0.166D+00 0.772D+00
 Gap=     0.185 Goal=   None    Shift=    0.000
 RMSDP=1.73D-06 MaxDP=8.15D-05 DE=-8.77D-08 OVMax= 2.05D-05

 Cycle  11  Pass 1  IDiag  1:
 RMSU=  3.97D-07    CP:  4.79D-01  1.11D+00  4.64D-01  7.49D-01  6.35D-01
                    CP:  6.55D-01  8.16D-01  7.04D-01  8.39D-01  8.75D-01
 E= -436.874603536855     Delta-E=       -0.000000001118 Rises=F Damp=F
 DIIS: error= 2.76D-06 at cycle  11 NSaved=  11.
 NSaved=11 IEnMin=11 EnMin= -436.874603536855     IErMin=11 ErrMin= 2.76D-06
 ErrMax= 2.76D-06 EMaxC= 1.00D-01 BMatC= 6.05D-10 BMatP= 1.69D-09
 IDIUse=1 WtCom= 1.00D+00 WtEn= 0.00D+00
 Coeff-Com:  0.159D-06-0.179D-04 0.813D-05-0.226D-03-0.275D-03-0.729D-03
 Coeff-Com: -0.202D-02 0.206D-01 0.480D-01 0.439D+00 0.496D+00
 Coeff:      0.159D-06-0.179D-04 0.813D-05-0.226D-03-0.275D-03-0.729D-03
 Coeff:     -0.202D-02 0.206D-01 0.480D-01 0.439D+00 0.496D+00
 Gap=     0.185 Goal=   None    Shift=    0.000
 RMSDP=4.02D-07 MaxDP=1.66D-05 DE=-1.12D-09 OVMax= 7.06D-06

 Cycle  12  Pass 1  IDiag  1:
 RMSU=  1.35D-07    CP:  4.79D-01  1.11D+00  4.64D-01  7.49D-01  6.35D-01
                    CP:  6.56D-01  8.15D-01  7.09D-01  8.34D-01  8.68D-01
                    CP:  1.03D+00
 E= -436.874603537399     Delta-E=       -0.000000000543 Rises=F Damp=F
 DIIS: error= 2.62D-07 at cycle  12 NSaved=  12.
 NSaved=12 IEnMin=12 EnMin= -436.874603537399     IErMin=12 ErrMin= 2.62D-07
 ErrMax= 2.62D-07 EMaxC= 1.00D-01 BMatC= 1.06D-11 BMatP= 6.05D-10
 IDIUse=1 WtCom= 1.00D+00 WtEn= 0.00D+00
 Coeff-Com: -0.993D-08 0.120D-06 0.155D-05-0.221D-04-0.436D-04-0.225D-03
 Coeff-Com: -0.862D-03-0.124D-02-0.796D-02 0.224D-01 0.115D+00 0.873D+00
 Coeff:     -0.993D-08 0.120D-06 0.155D-05-0.221D-04-0.436D-04-0.225D-03
 Coeff:     -0.862D-03-0.124D-02-0.796D-02 0.224D-01 0.115D+00 0.873D+00
 Gap=     0.185 Goal=   None    Shift=    0.000
 RMSDP=8.08D-08 MaxDP=6.09D-06 DE=-5.43D-10 OVMax= 1.52D-06

 Cycle  13  Pass 1  IDiag  1:
 RMSU=  3.46D-08    CP:  4.79D-01  1.11D+00  4.64D-01  7.49D-01  6.35D-01
                    CP:  6.56D-01  8.16D-01  7.08D-01  8.34D-01  8.84D-01
                    CP:  1.06D+00  1.02D+00
 E= -436.874603537335     Delta-E=        0.000000000064 Rises=F Damp=F
 DIIS: error= 2.42D-08 at cycle  13 NSaved=  13.
 NSaved=13 IEnMin=12 EnMin= -436.874603537399     IErMin=13 ErrMin= 2.42D-08
 ErrMax= 2.42D-08 EMaxC= 1.00D-01 BMatC= 1.23D-13 BMatP= 1.06D-11
 IDIUse=1 WtCom= 1.00D+00 WtEn= 0.00D+00
 Coeff-Com:  0.120D-08 0.407D-06-0.226D-08 0.134D-05-0.225D-05-0.182D-04
 Coeff-Com: -0.527D-04-0.568D-03-0.159D-02-0.730D-02 0.340D-02 0.101D+00
 Coeff-Com:  0.905D+00
 Coeff:      0.120D-08 0.407D-06-0.226D-08 0.134D-05-0.225D-05-0.182D-04
 Coeff:     -0.527D-04-0.568D-03-0.159D-02-0.730D-02 0.340D-02 0.101D+00
 Coeff:      0.905D+00
 Gap=     0.185 Goal=   None    Shift=    0.000
 RMSDP=2.45D-08 MaxDP=1.70D-06 DE= 6.41D-11 OVMax= 2.98D-07

 Cycle  14  Pass 1  IDiag  1:
 RMSU=  5.91D-09    CP:  4.79D-01  1.11D+00  4.64D-01  7.49D-01  6.35D-01
                    CP:  6.56D-01  8.16D-01  7.09D-01  8.34D-01  8.82D-01
                    CP:  1.07D+00  1.04D+00  9.13D-01
 E= -436.874603537342     Delta-E=       -0.000000000008 Rises=F Damp=F
 DIIS: error= 1.38D-08 at cycle  14 NSaved=  14.
 NSaved=14 IEnMin=12 EnMin= -436.874603537399     IErMin=14 ErrMin= 1.38D-08
 ErrMax= 1.38D-08 EMaxC= 1.00D-01 BMatC= 3.17D-14 BMatP= 1.23D-13
 IDIUse=1 WtCom= 1.00D+00 WtEn= 0.00D+00
 Coeff-Com: -0.265D-09 0.229D-06-0.491D-07 0.154D-05 0.635D-06-0.243D-05
 Coeff-Com: -0.203D-05-0.279D-03-0.659D-03-0.472D-02-0.187D-02 0.240D-01
 Coeff-Com:  0.431D+00 0.552D+00
 Coeff:     -0.265D-09 0.229D-06-0.491D-07 0.154D-05 0.635D-06-0.243D-05
 Coeff:     -0.203D-05-0.279D-03-0.659D-03-0.472D-02-0.187D-02 0.240D-01
 Coeff:      0.431D+00 0.552D+00
 Gap=     0.185 Goal=   None    Shift=    0.000
 RMSDP=1.68D-09 MaxDP=9.91D-08 DE=-7.50D-12 OVMax= 7.55D-08

 SCF Done:  E(RB+HF-LYP) =  -436.874603537     A.U. after   14 cycles
             Convg  =    0.1677D-08             -V/T =  2.0038
             S**2   =   0.0000
 KE= 4.352224000739D+02 PE=-1.844568935345D+03 EE= 5.602892894488D+02
 Leave Link  502 at Sun Aug 20 17:44:49 2006, MaxMem=    6291456 cpu:    1002.3
 (Enter /usr/local/Gaussian/g03/l701.exe)
 Compute integral first derivatives.
 ... and contract with generalized density number  0.
 Leave Link  701 at Sun Aug 20 17:44:57 2006, MaxMem=    6291456 cpu:       1.2
 (Enter /usr/local/Gaussian/g03/l702.exe)
 L702 exits ... SP integral derivatives will be done elsewhere.
 Leave Link  702 at Sun Aug 20 17:44:58 2006, MaxMem=    6291456 cpu:       0.0
 (Enter /usr/local/Gaussian/g03/l703.exe)
 Compute integral first derivatives, UseDBF=F.
 Integral derivatives from FoFDir, PRISM(SPDF).
 Petite list used in FoFDir.
 MinBra= 0 MaxBra= 2 Meth= 1.
 IRaf=       0 NMat=   1 IRICut=       1 DoRegI=T DoRafI=F ISym2E= 1 JSym2E=1.
 Leave Link  703 at Sun Aug 20 18:12:31 2006, MaxMem=    6291456 cpu:     287.6
 (Enter /usr/local/Gaussian/g03/l716.exe)
 Dipole        =-9.93418860D-04-1.94745873D+00 3.55271368D-14
 ***** Axes restored to original set *****
 -------------------------------------------------------------------
 Center     Atomic                   Forces (Hartrees/Bohr)
 Number     Number              X              Y              Z
 -------------------------------------------------------------------
    1          6          -0.000645731    0.000014393    0.000703382
    2          6           0.002006341    0.000061461   -0.001104885
    3          6          -0.000939641    0.000014393    0.000169676
    4          6          -0.000007444   -0.000005168   -0.000004106
    5          6           0.000064821    0.000001603   -0.000035697
    6          6          -0.000000509   -0.000005168    0.000008486
    7          1          -0.000063879   -0.000002797   -0.000018366
    8          1           0.000012466    0.000002900   -0.000006865
    9          1          -0.000018629   -0.000002797    0.000063803
   10          1           0.000063661    0.000000686    0.000209005
   11          7          -0.002919023   -0.000289543    0.001607496
   12          8           0.001441487    0.000104675   -0.000447342
   13          8           0.001148677    0.000104675   -0.000979052
   14          1          -0.000142597    0.000000686   -0.000165535
 -------------------------------------------------------------------
 Cartesian Forces:  Max     0.002919023 RMS     0.000739216
 Leave Link  716 at Sun Aug 20 18:12:32 2006, MaxMem=    6291456 cpu:       0.0
 (Enter /usr/local/Gaussian/g03/l103.exe)

 GradGradGradGradGradGradGradGradGradGradGradGradGradGradGradGradGradGrad
 Berny optimization.
 Internal  Forces:  Max     0.002236646 RMS     0.000411357
 Search for a local minimum.
 Step number   2 out of a maximum of  73
 All quantities printed in internal units (Hartrees-Bohrs-Radians)
 Update second derivatives using D2CorX and points  1  2
 Trust test= 8.35D-01 RLast= 2.57D-02 DXMaxT set to 3.00D-01
     Eigenvalues ---    0.00790   0.00792   0.01783   0.02147   0.02160
     Eigenvalues ---    0.02173   0.02178   0.02191   0.02201   0.02202
     Eigenvalues ---    0.02203   0.15826   0.16000   0.16000   0.16000
     Eigenvalues ---    0.16010   0.21992   0.22000   0.23700   0.25000
     Eigenvalues ---    0.25000   0.25000   0.35105   0.35210   0.35253
     Eigenvalues ---    0.35342   0.35543   0.37707   0.42596   0.45118
     Eigenvalues ---    0.46498   0.47063   0.47089   0.48681   0.93176
     Eigenvalues ---    0.936541000.000001000.000001000.000001000.00000
     Eigenvalues --- 1000.000001000.000001000.000001000.000001000.00000
     Eigenvalues --- 1000.000001000.000001000.000001000.000001000.00000
     Eigenvalues --- 1000.000001000.000001000.000001000.000001000.00000
     Eigenvalues --- 1000.000001000.000001000.000001000.000001000.00000
     Eigenvalues --- 1000.000001000.000001000.00000
 RFO step:  Lambda=-2.96190358D-05.
 Quartic linear search produced a step of -0.13825.
 Iteration  1 RMS(Cart)=  0.00317680 RMS(Int)=  0.00003080
 Iteration  2 RMS(Cart)=  0.00002675 RMS(Int)=  0.00001811
 Iteration  3 RMS(Cart)=  0.00000000 RMS(Int)=  0.00001811
 Variable       Old X    -DE/DX   Delta X   Delta X   Delta X     New X
                                 (Linear)    (Quad)   (Total)
    R1        2.63126  -0.00068  -0.00023  -0.00084  -0.00107   2.63018
    R2        2.62893  -0.00001   0.00004  -0.00008  -0.00005   2.62889
    R3        2.04271   0.00021   0.00074  -0.00095  -0.00022   2.04249
    R4        2.63126  -0.00068  -0.00023  -0.00084  -0.00107   2.63018
    R5        2.79298   0.00038  -0.00256   0.00597   0.00340   2.79638
    R6        2.62893  -0.00001   0.00004  -0.00008  -0.00005   2.62889
    R7        2.04271   0.00021   0.00074  -0.00095  -0.00022   2.04249
    R8        2.63618   0.00019   0.00015   0.00012   0.00027   2.63645
    R9        2.04729   0.00002   0.00074  -0.00143  -0.00068   2.04660
   R10        2.63618   0.00019   0.00015   0.00012   0.00027   2.63645
   R11        2.04828   0.00001   0.00073  -0.00142  -0.00068   2.04759
   R12        2.04729   0.00002   0.00074  -0.00143  -0.00068   2.04660
   R13        2.31537  -0.00042  -0.00005  -0.00030  -0.00034   2.31503
   R14        2.31537  -0.00042  -0.00005  -0.00030  -0.00034   2.31503
[...]
         Item               Value     Threshold  Converged?
 Maximum Force            0.000147     0.000450     YES
 RMS     Force            0.000033     0.000300     YES
 Maximum Displacement     0.000291     0.001800     YES
 RMS     Displacement     0.000097     0.001200     YES
 Predicted change in Energy=-7.586850D-08
 Optimization completed.
    -- Stationary point found.
                           ----------------------------
                           !   Optimized Parameters   !
                           ! (Angstroms and Degrees)  !
 --------------------------                            --------------------------
 ! Name  Definition              Value          Derivative Info.                !
 --------------------------------------------------------------------------------
 ! R1    R(1,2)                  1.3914         -DE/DX =    0.0                 !
 ! R2    R(1,6)                  1.3914         -DE/DX =    0.0001              !
 ! R3    R(1,14)                 1.0811         -DE/DX =    0.0                 !
 ! R4    R(2,3)                  1.3914         -DE/DX =    0.0                 !
 ! R5    R(2,11)                 1.4807         -DE/DX =    0.0001              !
 ! R6    R(3,4)                  1.3914         -DE/DX =    0.0001              !
 ! R7    R(3,10)                 1.0811         -DE/DX =    0.0                 !
 ! R8    R(4,5)                  1.3952         -DE/DX =    0.0                 !
 ! R9    R(4,9)                  1.0833         -DE/DX =    0.0001              !
 ! R10   R(5,6)                  1.3952         -DE/DX =    0.0                 !
 ! R11   R(5,8)                  1.0839         -DE/DX =    0.0                 !
 ! R12   R(6,7)                  1.0833         -DE/DX =    0.0001              !
 ! R13   R(11,12)                1.2246         -DE/DX =   -0.0001              !
 ! R14   R(11,13)                1.2246         -DE/DX =   -0.0001              !
 ! A1    A(2,1,6)              118.4986         -DE/DX =    0.0                 !
 ! A2    A(2,1,14)             119.6459         -DE/DX =    0.0                 !
 ! A3    A(6,1,14)             121.8555         -DE/DX =    0.0                 !
 ! A4    A(1,2,3)              122.2988         -DE/DX =    0.0                 !
 ! A5    A(1,2,11)             118.8506         -DE/DX =    0.0                 !
 ! A6    A(3,2,11)             118.8506         -DE/DX =    0.0                 !
 ! A7    A(2,3,4)              118.4986         -DE/DX =    0.0                 !
 ! A8    A(2,3,10)             119.6459         -DE/DX =    0.0                 !
 ! A9    A(4,3,10)             121.8555         -DE/DX =    0.0                 !
 ! A10   A(3,4,5)              120.1982         -DE/DX =    0.0                 !
 ! A11   A(3,4,9)              119.6139         -DE/DX =    0.0                 !
 ! A12   A(5,4,9)              120.1878         -DE/DX =    0.0                 !
 ! A13   A(4,5,6)              120.3076         -DE/DX =    0.0                 !
 ! A14   A(4,5,8)              119.8462         -DE/DX =    0.0                 !
 ! A15   A(6,5,8)              119.8462         -DE/DX =    0.0                 !
 ! A16   A(1,6,5)              120.1982         -DE/DX =    0.0                 !
 ! A17   A(1,6,7)              119.6139         -DE/DX =    0.0                 !
 ! A18   A(5,6,7)              120.1878         -DE/DX =    0.0                 !
 ! A19   A(2,11,12)            117.6645         -DE/DX =    0.0                 !
 ! A20   A(2,11,13)            117.6645         -DE/DX =    0.0                 !
 ! A21   A(12,11,13)           124.6711         -DE/DX =    0.0                 !
 ! D1    D(6,1,2,3)             -0.0003         -DE/DX =    0.0                 !
 ! D2    D(6,1,2,11)           179.9997         -DE/DX =    0.0                 !
 ! D3    D(14,1,2,3)           179.9997         -DE/DX =    0.0                 !
 ! D4    D(14,1,2,11)           -0.0002         -DE/DX =    0.0                 !
 ! D5    D(2,1,6,5)              0.0            -DE/DX =    0.0                 !
 ! D6    D(2,1,6,7)            179.9997         -DE/DX =    0.0                 !
 ! D7    D(14,1,6,5)           179.9999         -DE/DX =    0.0                 !
 ! D8    D(14,1,6,7)            -0.0004         -DE/DX =    0.0                 !
 ! D9    D(1,2,3,4)              0.0003         -DE/DX =    0.0                 !
 ! D10   D(1,2,3,10)          -179.9997         -DE/DX =    0.0                 !
 ! D11   D(11,2,3,4)           180.0003         -DE/DX =    0.0                 !
 ! D12   D(11,2,3,10)            0.0002         -DE/DX =    0.0                 !
 ! D13   D(1,2,11,12)          179.9992         -DE/DX =    0.0                 !
 ! D14   D(1,2,11,13)            0.0008         -DE/DX =    0.0                 !
 ! D15   D(3,2,11,12)           -0.0008         -DE/DX =    0.0                 !
 ! D16   D(3,2,11,13)          180.0008         -DE/DX =    0.0                 !
 ! D17   D(2,3,4,5)              0.0            -DE/DX =    0.0                 !
 ! D18   D(2,3,4,9)           -179.9997         -DE/DX =    0.0                 !
 ! D19   D(10,3,4,5)           180.0001         -DE/DX =    0.0                 !
 ! D20   D(10,3,4,9)             0.0004         -DE/DX =    0.0                 !
 ! D21   D(3,4,5,6)             -0.0004         -DE/DX =    0.0                 !
 ! D22   D(3,4,5,8)           -180.0006         -DE/DX =    0.0                 !
 ! D23   D(9,4,5,6)            179.9993         -DE/DX =    0.0                 !
 ! D24   D(9,4,5,8)             -0.0009         -DE/DX =    0.0                 !
 ! D25   D(4,5,6,1)              0.0004         -DE/DX =    0.0                 !
 ! D26   D(4,5,6,7)            180.0007         -DE/DX =    0.0                 !
 ! D27   D(8,5,6,1)            180.0006         -DE/DX =    0.0                 !
 ! D28   D(8,5,6,7)              0.0009         -DE/DX =    0.0                 !
 --------------------------------------------------------------------------------
 GradGradGradGradGradGradGradGradGradGradGradGradGradGradGradGradGradGrad

 Leave Link  103 at Mon Aug 21 20:30:45 2006, MaxMem=    6291456 cpu:       0.2
 (Enter /usr/local/Gaussian/g03/l9999.exe)
 1\1\GINC-PUBLIX\Freq\RB3LYP\6-311+G(d,p)\C6H5N1O2\NOBODY\21-Aug-2006\0
 \\#P GEOM=ALLCHECK GUESS=READ SCRF=CHECK GENCHK RB3LYP/6-311+G(D,P) FR
 EQ\\nitrobz basis\\0,1\C,-0.2113687364,-0.0000324945,-1.2748915222\C,-
 0.2115914765,0.0000201403,0.1165227186\C,0.9644144814,-0.0000324938,0.
 8601917485\C,2.1790357813,-0.0001341228,0.1815454351\C,2.2035021584,-0
 .0001805477,-1.2134612704\C,1.0114994275,-0.0001341234,-1.9385625059\H
 ,1.0327604673,-0.0001815117,-3.0216966009\H,3.152909492,-0.0002492389,
 -1.7362967144\H,3.1057607727,-0.0001815105,0.7426267926\H,0.9142012498
 ,0.0000068526,1.9401610188\N,-1.5086437561,0.0001347876,0.8308050718\O
 ,-1.4834894972,0.0001635563,2.0551681786\O,-2.5299078006,0.0001635557,
 0.1549962931\H,-1.1508971202,0.0000068515,-1.8098133945\\Version=Sun64
 -SVR4-Unix-G03RevB.04\State=1-A'\HF=-436.8746215\RMSD=1.745e-09\RMSF=5
 .214e-05\Dipole=1.6943228,-0.0001365,-0.9330579\DipoleDeriv=0.0457153,
 -0.0000046,0.0574294,-0.0000126,-0.0677227,-0.0000029,-0.2065531,0.000
 0145,-0.017494,-0.3282248,0.0000309,0.2257834,0.0000399,0.0451793,-0.0
 00022,0.2257834,-0.000017,-0.042567,0.0679448,-0.0000147,-0.1924909,-0
 .0000043,-0.0677227,0.0000122,0.0714917,-0.0000039,-0.0397237,0.046791
 1,-0.0000073,0.183129,-0.0000136,-0.1333928,-0.0000136,0.1417942,-0.00
 00098,-0.1337386,0.1226775,-0.0000127,-0.02965,-0.0000073,-0.1007128,0
 .000004,-0.02965,0.000007,0.0851647,-0.2289417,0.0000044,-0.0326323,0.
 0000042,-0.1333928,0.0000187,0.0087025,0.0000114,0.1419941,0.0655931,0
 .0000048,0.0036637,0.0000037,0.140936,-0.0000099,0.0120915,-0.0000088,
 -0.069288,-0.0370799,0.0000126,0.0655168,0.0000121,0.1371912,-0.000006
 6,0.0655168,-0.0000069,0.045811,-0.0378568,0.00001,-0.0533501,0.000010
 4,0.140936,0.0000022,-0.0617779,0.0000007,0.0341618,0.1206971,0.000001
 8,0.0048772,0.0000024,0.1473126,-0.0000034,-0.0093648,-0.0000028,0.046
 9779,1.8180214,-0.0001089,-0.1300759,-0.0001141,0.2234066,0.0000628,-0
 .1300759,0.00006,1.6534514,-0.5957214,0.000029,0.1828871,0.0000286,-0.
 2396652,-0.0000368,0.0940856,-0.0000427,-1.1681594,-1.1296902,0.000051
 5,-0.2436991,0.0000463,-0.2396652,-0.0000045,-0.1548976,-0.0000017,-0.
 6341906,0.0700745,0.0000033,-0.0413883,0.0000042,0.1473126,-0.0000002,
 -0.0271463,0.,0.0976005\Polar=108.3131241,-0.0042474,45.1905962,-7.338
 8041,0.002339,99.0281784\PG=CS [SG(C2H1N1),X(C4H4O2)]\NImag=0\\0.73930
 966,-0.00003722,0.13348155,0.03705476,0.00001837,0.67559896,-0.1187683
 9,0.00000441,0.00897688,0.58015069,0.00000245,-0.05526359,-0.00001069,
 -0.00002677,0.12073468,-0.04874856,-0.00000719,-0.32126359,0.09448060,
 0.00001474,0.69968614,0.03280199,-0.00000421,-0.07050512,-0.24542123,0
 .00001035,-0.07114276,0.66032527,-0.00000268,0.00483973,0.00000329,0.0
 0000843,-0.05526359,0.00000011,-0.00003542,0.13348155,-0.02640310,0.00
 000051,-0.02850143,-0.12886820,0.00000364,-0.19461074,-0.01291017,0.00
 002164,0.75458335,-0.01741299,0.00000201,0.03068406,-0.06007529,0.0000
 0331,-0.02382332,-0.28857477,0.00001902,0.12100139,0.72096258,0.000001
 84,-0.00346238,-0.00000365,0.00000508,0.00314766,0.00000348,0.00001656
 ,-0.06168424,-0.00001180,-0.00003800,0.13391854,0.02745047,-0.00000336
 ,-0.04953962,0.02661655,0.00000034,0.05938819,0.05536744,-0.00000776,-
 0.17835052,0.03740818,0.00001402,0.67498126,-0.05747703,0.00000461,0.0
 2047167,-0.01663267,-0.00000030,-0.02742185,0.03184456,-0.00000056,0.0
 3228445,-0.13082834,0.00000566,0.03478641,0.71938664,0.00000312,0.0056
 0443,0.00000072,-0.00000012,-0.00469453,0.00000006,0.00000106,0.005604
 44,-0.00000302,0.00000317,-0.06345451,-0.00001041,-0.00003483,0.139481
 16,-0.02421972,0.00000357,0.06521769,-0.02742185,0.00000016,-0.0513263
 8,0.07697584,-0.00000580,-0.02410390,-0.02974971,-0.00000609,-0.328345
 45,-0.03615446,0.00001918,0.67364456,-0.28953562,0.00001673,0.05475961
 ,0.02398323,0.00000149,0.07979134,-0.06662268,0.00000391,-0.00367921,0
 .03714891,-0.00000474,-0.07381394,-0.27417009,0.00001049,-0.05589050,0
 .65432112,0.00001883,-0.06168424,-0.00000769,-0.00000022,0.00314766,-0
 .00000615,0.00000407,-0.00346238,0.00000040,-0.00000313,0.00698777,0.0
 0000363,0.00000817,-0.06345451,-0.00000152,-0.00003216,0.13391854,0.12
 039356,-0.00001193,-0.17738967,0.02935148,-0.00000298,-0.02467034,-0.0
 0044562,0.00000009,-0.00032993,-0.02981530,0.00000071,-0.02840617,-0.1
 2042663,0.00000289,-0.18500371,-0.00474871,0.00002462,0.74162272,0.002
 76260,0.00000119,0.02927157,-0.00422880,0.00000080,0.00161122,-0.00128
 253,0.00000002,0.00002940,-0.00440675,0.00000062,-0.00247203,0.0049845
 8,-0.00000120,-0.02812988,-0.05879731,0.00000145,0.00507862,0.05883309
 ,0.00000003,0.00342569,-0.00000235,0.00000083,0.00728923,-0.00000028,-
 0.00000008,-0.00098026,0.00000008,0.00000061,0.00695116,-0.00000015,0.
 00000019,0.00343552,0.00000139,0.00000130,-0.03737705,-0.00001321,-0.0
 0000226,0.02582520,-0.00153168,-0.00000047,-0.01053187,0.00262753,-0.0
 0000046,0.00106939,-0.00008785,0.00000007,0.00064397,-0.00309830,-0.00
 000009,0.00045972,0.00296672,-0.00000078,-0.01131998,0.00528416,-0.000
 01294,-0.33877739,-0.00595831,0.00001426,0.35815944,-0.00310597,0.0000
 0043,-0.00364097,0.00038059,-0.00000006,-0.00113070,0.00160786,0.00000
 026,-0.00047169,0.00357968,-0.00000005,-0.00218570,-0.27303649,0.00001
 678,0.11760242,-0.01791720,0.00000180,0.01514469,0.00089462,-0.0000002
 7,-0.00021684,0.28781635,0.00000051,0.00709306,-0.00000011,-0.00000001
 ,0.00000729,0.,0.00000036,0.00709306,-0.00000037,0.00000104,0.00423854
 ,-0.00000043,0.00001651,-0.03952798,-0.00000909,0.00000092,0.00423854,
 -0.00000065,-0.00000028,-0.00391336,0.00000022,-0.00001867,0.02623882,
 -0.00345362,-0.00000004,-0.00099378,-0.00113070,0.00000003,-0.00104995
 ,-0.00065904,-0.00000034,-0.00570761,0.02874346,-0.00000215,-0.0097194
 4,0.11760242,-0.00000924,-0.12424766,-0.01578447,0.00000119,0.01177744
 ,0.00051044,0.00000011,0.00074781,-0.12626983,0.00001028,0.12806164,0.
 00011978,-0.00000005,0.00079924,-0.00235990,0.00000082,0.00380978,-0.0
 1926504,0.00000103,-0.01546620,-0.26344019,0.00001172,-0.12417140,0.00
 470851,0.00000002,0.00279209,0.00158552,0.00000041,0.00069237,0.000096
 45,0.00000002,0.00022031,0.00065713,-0.00000033,-0.00036708,0.27799504
 ,-0.00000011,-0.00098026,0.00000002,0.00000068,0.00728923,-0.00000056,
 0.00000200,0.00342569,0.00000124,0.00001186,-0.03737705,0.00000596,-0.
 00000107,0.00343552,-0.00000090,0.00000045,0.00695116,-0.00000043,-0.0
 0000002,0.00011926,-0.00000004,-0.00000024,-0.00391336,0.00000017,-0.0
 0001326,0.02582520,0.00091649,-0.00000005,-0.00075833,0.00279347,-0.00
 000043,-0.00079952,0.01533705,-0.00000076,0.01149577,-0.12437693,0.000
 00569,-0.13413451,-0.02830452,0.00000143,-0.01104392,0.00131863,-0.000
 00048,-0.00553255,-0.00134428,0.00000004,-0.00061457,0.00036020,0.0000
 0012,0.00098531,0.13268190,-0.00000571,0.13899749,-0.00507952,0.000000
 62,-0.00229699,0.00645684,-0.00000102,-0.02636965,-0.05726354,0.000001
 60,0.01014254,0.00417841,0.00000097,0.02740576,-0.00450929,0.00000085,
 0.00216543,-0.00114520,0.,0.00007658,0.00007662,-0.00000006,0.00001347
 ,0.00006067,0.00000002,0.00126990,0.00102857,-0.00000037,-0.00050893,0
 .05601864,0.00000060,0.00534902,0.00000007,-0.00000025,0.00457927,0.00
 000105,0.00000179,-0.03864998,-0.00001085,-0.00000020,0.00463505,-0.00
 000205,0.00000082,0.00757442,-0.00000049,0.00000012,-0.00117236,0.0000
 0004,-0.00000005,-0.00083723,0.00000003,-0.00000003,-0.00014434,-0.000
 00011,-0.00000037,-0.00436240,0.00000018,-0.00000235,0.02626968,-0.002
 75960,0.00000004,0.00065082,0.00100085,-0.00000065,-0.01282533,0.00800
 299,-0.00001076,-0.34553624,-0.00150577,-0.00000031,-0.00720967,0.0020
 0191,-0.00000035,0.00075124,0.00023124,0.00000004,0.00064573,0.0000263
 6,0.00000002,-0.00005615,-0.00019950,0.,-0.00035276,0.00008958,0.00000
 016,0.00074057,-0.01143482,0.00001206,0.36519379,-0.00488181,0.0000009
 4,0.02931350,-0.10570365,0.00000337,-0.00099835,-0.04211540,0.00000290
 ,0.01210776,0.00017070,0.00000034,-0.00914738,-0.00141518,-0.00000018,
 -0.00185828,0.00913665,-0.00000011,-0.00377106,0.00084046,-0.00000002,
 -0.00092418,-0.00017970,-0.00000011,-0.00018964,-0.00015824,0.00000008
 ,0.00082088,0.00069308,-0.00000028,0.00066394,0.69737520,0.00000141,-0
 .00579913,-0.00000227,0.00000198,-0.06716774,-0.00000109,0.00000267,-0
 .00579913,0.00000002,0.00000029,0.00947017,0.00000043,-0.00000017,-0.0
 0207522,0.00000009,-0.00000021,0.00947017,-0.00000047,0.00000007,0.000
 85236,0.00000001,-0.00000008,-0.00152278,0.00000004,0.00000002,0.00085
 236,-0.00000006,-0.00000043,-0.00435496,0.,-0.00002259,0.21297028,0.03
 566145,-0.00000284,-0.01591264,-0.00099835,-0.00000185,-0.10696674,0.0
 0575981,0.00000073,0.02132097,-0.00944285,0.00000035,0.00096455,-0.001
 85828,0.00000010,-0.00376624,-0.00347558,-0.00000047,-0.00800140,0.001
 45264,-0.00000011,-0.00022358,-0.00018964,0.00000006,-0.00041962,-0.00
 155595,0.00000008,0.00077512,-0.00303582,0.00000021,-0.00350923,0.1272
 7963,0.00001244,0.85840748,-0.00576716,0.00000050,-0.00245128,0.004623
 92,0.00000180,0.04075269,-0.00711441,0.00000065,0.00195127,0.00199422,
 -0.00000018,0.00082604,0.00019008,0.00000007,0.00174538,-0.00099861,0.
 00000010,0.00252861,-0.00061681,0.00000002,0.00033423,-0.00001932,0.00
 000002,0.00025195,-0.00008107,0.,-0.00011191,-0.00214488,0.00000026,0.
 00373708,-0.13286017,0.00000409,0.01805505,0.13526074,0.00000066,0.003
 62384,0.00000017,0.00000184,0.01580757,-0.00000492,0.00000037,0.002422
 26,-0.00000029,-0.00000014,-0.00087500,-0.00000007,-0.00000001,0.00024
 841,-0.00000015,0.00000011,-0.00132336,-0.00000011,0.00000002,-0.00043
 610,-0.00000001,0.00000001,0.00012843,-0.00000001,0.00000001,0.0000079
 8,0.00000001,0.00000020,-0.00007791,-0.00000021,0.00000380,-0.07127070
 ,-0.00001201,-0.00000587,0.02615635,0.00549666,-0.00000030,0.00392957,
 0.02467547,-0.00000332,-0.05364594,-0.00848900,0.00000030,-0.00355746,
 0.00209887,-0.00000013,-0.00081318,-0.00066455,0.00000002,0.00003322,0
 .00242733,-0.00000019,-0.00107322,0.00061071,-0.00000003,-0.00034608,0
 .00016886,-0.00000002,0.00024591,0.00034678,-0.00000002,-0.00005501,0.
 00257716,-0.00000011,0.00143613,0.01433546,-0.00001302,-0.51394714,0.0
 1783502,0.00001647,0.65152267,-0.00162033,0.00000010,-0.00501348,-0.06
 655243,0.00000377,-0.02035016,-0.00021767,0.00000052,0.00900723,-0.003
 29097,0.00000021,0.00097720,-0.00041027,0.00000002,-0.00104432,-0.0013
 3228,0.00000001,-0.00000545,-0.00016857,0.00000002,0.00029143,-0.00002
 002,0.00000003,0.00016842,-0.00085037,0.00000004,0.00046296,0.00128068
 ,-0.00000008,-0.00006818,-0.41966535,0.00001319,-0.16709536,0.00742962
 ,-0.00000101,-0.06060615,0.48785804,0.00000044,0.00242226,-0.00000016,
 0.00000514,0.01580757,0.00000107,0.00000021,0.00362384,-0.00000065,0.0
 0000015,-0.00132336,-0.00000003,0.00000012,0.00024841,0.00000009,-0.00
 000002,-0.00087500,0.00000016,0.,0.00000798,-0.00000001,0.00000002,0.0
 0012843,0.,0.00000002,-0.00043610,-0.00000001,0.00000002,0.00048720,0.
 ,0.00001219,-0.07127070,0.00000321,-0.00000151,0.02510103,0.00000024,-
 0.00001706,0.02615635,0.00542679,-0.00000071,-0.00905155,-0.00427294,0
 .00000026,0.01753041,0.00105929,-0.00000026,-0.00161991,0.00107848,0.0
 0000001,0.00121913,0.00136560,-0.00000007,0.00063357,-0.00127828,0.000
 00022,0.00251332,-0.00016726,0.,0.00003249,0.00025151,0.,0.00024660,0.
 00018648,0.,-0.00011252,0.00147643,-0.00000011,0.00052377,-0.16337577,
 0.00000350,-0.22714195,-0.08618611,0.00000115,-0.08543007,0.24088544,-
 0.00000384,0.29892537,-0.27134520,0.00000995,-0.12742347,0.00414708,0.
 ,-0.00046029,0.00129762,0.00000030,0.00127454,-0.00000519,-0.00000003,
 0.00095240,-0.00263502,0.00000075,0.00318756,-0.01565643,0.00000077,-0
 .01405314,0.00101234,-0.00000033,0.00007931,-0.00071820,0.,-0.00069221
 ,-0.00003620,-0.00000005,-0.00004501,0.00034891,0.00000002,0.00021392,
 -0.00123659,-0.00000024,-0.00055676,0.00010386,0.,-0.00081263,-0.00244
 008,0.00000029,0.00355033,0.28716310,0.00001013,-0.03864998,0.00000429
 ,-0.00000102,0.00457927,-0.00000034,0.00000026,0.00534902,-0.00000054,
 0.00000003,-0.00117236,-0.00000012,0.00000085,0.00757442,-0.00000043,0
 .00000162,0.00463505,0.00000126,-0.00000035,-0.00436240,0.00000022,0.0
 0000008,-0.00014434,0.00000008,-0.00000006,-0.00083723,0.00000003,-0.0
 0000004,0.00070454,-0.00000006,-0.00000033,-0.00435496,0.00000012,0.00
 000005,0.00048720,0.00000013,0.00000023,-0.00007791,-0.00000016,-0.000
 01145,0.02626968,-0.12528392,0.00000440,-0.13145458,-0.02783079,0.0000
 0121,-0.01051558,0.00173714,-0.00000054,-0.00572632,0.00079774,-0.0000
 0003,-0.00049428,0.00335108,-0.00000053,-0.00112302,0.01485839,-0.0000
 0065,0.01262517,-0.00051919,0.00000022,0.00075680,0.00077719,-0.000000
 02,0.00042611,-0.00005790,0.00000004,0.00005667,-0.00148106,0.00000007
 ,-0.00045267,-0.00425652,0.00000036,-0.00157955,0.00073198,-0.00000002
 ,0.00170060,0.00239042,-0.00000005,0.00173133,0.13478545,-0.00000446,0
 .13404933\\0.00004611,-0.00000019,-0.00004849,-0.00010390,-0.00000090,
 0.00005722,0.00006563,-0.00000019,-0.00001304,-0.00000130,0.00000026,0
 .00007154,0.00006888,-0.00000021,-0.00003793,-0.00006115,0.00000026,-0
 .00003715,-0.00000882,-0.00000038,0.00005013,-0.00004019,0.00000050,0.
 00002213,-0.00004708,-0.00000038,-0.00001934,0.00001067,-0.00000002,-0
 .00001832,0.00012954,0.00000426,-0.00007134,0.00002888,-0.00000150,0.0
 0014660,-0.00010845,-0.00000150,-0.00010278,0.00002119,-0.00000002,0.0
 0000078\\\@


 THERE IS MORE TO LIFE THAN INCREASING ITS SPEED.

                                       -- GANDHI
 Job cpu time:  0 days  2 hours 44 minutes  7.4 seconds.
 File lengths (MBytes):  RWF=     82 Int=      0 D2E=      0 Chk=     13 Scr=      1
 Normal termination of Gaussian 03 at Mon Aug 21 20:30:49 2006.
