 Entering Gaussian System, Link 0=/usr/local/Gaussian/g03/g03
 Initial command:
 /usr/local/Gaussian/g03/l1.exe /export/scratch//webmo/3310/Gau-24661.inp -scrdir=/export/scratch//webmo/3310/
 Entering Link 1 = /usr/local/Gaussian/g03/l1.exe PID=     24663.
  
 Copyright (c) 1988,1990,1992,1993,1995,1998,2003, Gaussian, Inc.
                  All Rights Reserved.
  
 This is the Gaussian(R) 03 program.  It is based on the
 the Gaussian(R) 98 system (copyright 1998, Gaussian, Inc.),
 the Gaussian(R) 94 system (copyright 1995, Gaussian, Inc.),
 the Gaussian 92(TM) system (copyright 1992, Gaussian, Inc.),
 the Gaussian 90(TM) system (copyright 1990, Gaussian, Inc.),
 the Gaussian 88(TM) system (copyright 1988, Gaussian, Inc.),
 the Gaussian 86(TM) system (copyright 1986, Carnegie Mellon
 University), and the Gaussian 82(TM) system (copyright 1983,
 Carnegie Mellon University). Gaussian is a federally registered
 trademark of Gaussian, Inc.
  
 This software contains proprietary and confidential information,
 including trade secrets, belonging to Gaussian, Inc.
  
 This software is provided under written license and may be
 used, copied, transmitted, or stored only in accord with that
 written license.
  
 The following legend is applicable only to US Government
 contracts under DFARS:
  
                    RESTRICTED RIGHTS LEGEND
  
 Use, duplication or disclosure by the US Government is subject
 to restrictions as set forth in subparagraph (c)(1)(ii) of the
 Rights in Technical Data and Computer Software clause at DFARS
 252.227-7013.
  
 Gaussian, Inc.
 Carnegie Office Park, Building 6, Pittsburgh, PA 15106 USA
  
 The following legend is applicable only to US Government
 contracts under FAR:
  
                    RESTRICTED RIGHTS LEGEND
  
 Use, reproduction and disclosure by the US Government is subject
 to restrictions as set forth in subparagraph (c) of the
 Commercial Computer Software - Restricted Rights clause at FAR
 52.227-19.
  
 Gaussian, Inc.
 Carnegie Office Park, Building 6, Pittsburgh, PA 15106 USA
  
  
 ---------------------------------------------------------------
 Warning -- This program may not be used in any manner that
 competes with the business of Gaussian, Inc. or will provide
 assistance to any competitor of Gaussian, Inc.  The licensee
 of this program is prohibited from giving any competitor of
 Gaussian, Inc. access to this program.  By using this program,
 the user acknowledges that Gaussian, Inc. is engaged in the
 business of creating and licensing software in the field of
 computational chemistry and represents and warrants to the
 licensee that it is not a competitor of Gaussian, Inc. and that
 it will not use this program in any manner prohibited above.
 ---------------------------------------------------------------
  

 Cite this work as:
 Gaussian 03, Revision B.04,
 M. J. Frisch, G. W. Trucks, H. B. Schlegel, G. E. Scuseria, 
 M. A. Robb, J. R. Cheeseman, J. A. Montgomery, Jr., T. Vreven, 
 K. N. Kudin, J. C. Burant, J. M. Millam, S. S. Iyengar, J. Tomasi, 
 V. Barone, B. Mennucci, M. Cossi, G. Scalmani, N. Rega, 
 G. A. Petersson, H. Nakatsuji, M. Hada, M. Ehara, K. Toyota, 
 R. Fukuda, J. Hasegawa, M. Ishida, T. Nakajima, Y. Honda, O. Kitao, 
 H. Nakai, M. Klene, X. Li, J. E. Knox, H. P. Hratchian, J. B. Cross, 
 C. Adamo, J. Jaramillo, R. Gomperts, R. E. Stratmann, O. Yazyev, 
 A. J. Austin, R. Cammi, C. Pomelli, J. W. Ochterski, P. Y. Ayala, 
 K. Morokuma, G. A. Voth, P. Salvador, J. J. Dannenberg, 
 V. G. Zakrzewski, S. Dapprich, A. D. Daniels, M. C. Strain, 
 O. Farkas, D. K. Malick, A. D. Rabuck, K. Raghavachari, 
 J. B. Foresman, J. V. Ortiz, Q. Cui, A. G. Baboul, S. Clifford, 
 J. Cioslowski, B. B. Stefanov, G. Liu, A. Liashenko, P. Piskorz, 
 I. Komaromi, R. L. Martin, D. J. Fox, T. Keith, M. A. Al-Laham, 
 C. Y. Peng, A. Nanayakkara, M. Challacombe, P. M. W. Gill, 
 B. Johnson, W. Chen, M. W. Wong, C. Gonzalez, and J. A. Pople, 
 Gaussian, Inc., Pittsburgh PA, 2003.
 
 ***************************************************
 Gaussian 03:  Sun64-SVR4-Unix-G03RevB.04 2-Jun-2003
                      3-Sep-2006 
 ***************************************************
 ------------------------------
 #P B3LYP/6-311+G(d,p) OPT FREQ
 ------------------------------
 1/14=-1,18=20,26=3,38=1/1,3;
 2/9=110,17=6,18=5,40=1/2;
 3/5=4,6=6,7=111,11=2,16=1,25=1,30=1,74=-5/1,2,3;
 4//1;
 5/5=2,38=5/2;
 6/7=2,8=2,9=2,10=2,28=1/1;
 7//1,2,3,16;
 1/14=-1,18=20/3(1);
 99//99;
 2/9=110/2;
 3/5=4,6=6,7=111,11=2,16=1,25=1,30=1,74=-5/1,2,3;
 4/5=5,16=3/1;
 5/5=2,38=5/2;
 7//1,2,3,16;
 1/14=-1,18=20/3(-5);
 2/9=110/2;
 6/7=2,8=2,9=2,10=2,19=2,28=1/1;
 99/9=1/99;
 Leave Link    1 at Sun Sep  3 06:32:38 2006, MaxMem=          0 cpu:       0.2
 (Enter /usr/local/Gaussian/g03/l101.exe)
 -------------------------
 fluorobz/cl complex basis
 -------------------------
 Symbolic Z-matrix:
 Charge =  0 Multiplicity = 2
 C
 C                    1    B1
 C                    2    B2       1    A1
 C                    3    B3       2    A2       1    D1       0
 C                    4    B4       3    A3       2    D2       0
 C                    1    B5       2    A4       3    D3       0
 H                    6    B6       1    A5       2    D4       0
 H                    5    B7       4    A6       3    D5       0
 F                    4    B8       3    A7       2    D6       0
 H                    3    B9       2    A8       1    D7       0
 H                    2    B10      1    A9       6    D8       0
 H                    1    B11      2    A10      3    D9       0
 Cl                   1    B12      2    A11      3    D10      0
       Variables:
  A5                  119.57054                  
  D6                  179.98614                  
  A6                  120.15873                  
  D7                  179.28352                  
  A7                  119.14321                  
  D8                 -179.41338                  
  A8                  120.84478                  
  D9                  172.33613                  
  A9                  119.571                    
  A10                 119.95787                  
  A11                  97.79112                  
  B1                    1.40811                  
  B2                    1.38089                  
  B3                    1.39646                  
  B4                    1.39646                  
  B5                    1.40811                  
  B6                    1.08255                  
  B7                    1.08166                  
  B8                    1.89789                  
  D10                -102.14947                  
  B9                    1.08166                  
  B10                   1.08255                  
  B11                   1.08072                  
  B12                   2.58459                  
  D1                   -0.66881                  
  D2                   -0.07539                  
  A1                  120.40962                  
  D3                    1.39936                  
  A2                  118.99717                  
  D4                  179.41344                  
  A3                  121.71251                  
  A4                  119.45977                  
  D5                 -179.97258                  
 
                    Isotopes and Nuclear Properties:

  Atom         1           2           3           4           5           6           7           8           9          10
 IAtWgt=          12          12          12          12          12          12           1           1          19           1
 AtmWgt=  12.0000000  12.0000000  12.0000000  12.0000000  12.0000000  12.0000000   1.0078250   1.0078250  18.9984032   1.0078250
 IAtSpn=           0           0           0           0           0           0           1           1           1           1
 AtZEff=   0.0000000   0.0000000   0.0000000   0.0000000   0.0000000   0.0000000   0.0000000   0.0000000   0.0000000   0.0000000
 AtQMom=   0.0000000   0.0000000   0.0000000   0.0000000   0.0000000   0.0000000   0.0000000   0.0000000   0.0000000   0.0000000
 AtGFac=   0.0000000   0.0000000   0.0000000   0.0000000   0.0000000   0.0000000   2.7928460   2.7928460   2.6288670   2.7928460

  Atom        11          12          13
 IAtWgt=           1           1          35
 AtmWgt=   1.0078250   1.0078250  34.9688527
 IAtSpn=           1           1           3
 AtZEff=   0.0000000   0.0000000   0.0000000
 AtQMom=   0.0000000   0.0000000  -8.2490000
 AtGFac=   2.7928460   2.7928460   0.8218740
 Leave Link  101 at Sun Sep  3 06:32:39 2006, MaxMem=    6291456 cpu:       0.2
 (Enter /usr/local/Gaussian/g03/l103.exe)

 GradGradGradGradGradGradGradGradGradGradGradGradGradGradGradGradGradGrad
 Berny optimization.
 Initialization pass.
                           ----------------------------
                           !    Initial Parameters    !
                           ! (Angstroms and Degrees)  !
 --------------------------                            --------------------------
 ! Name  Definition              Value          Derivative Info.                !
 --------------------------------------------------------------------------------
 ! R1    R(1,2)                  1.4081         estimate D2E/DX2                !
 ! R2    R(1,6)                  1.4081         estimate D2E/DX2                !
 ! R3    R(1,12)                 1.0807         estimate D2E/DX2                !
 ! R4    R(1,13)                 2.5846         estimate D2E/DX2                !
 ! R5    R(2,3)                  1.3809         estimate D2E/DX2                !
 ! R6    R(2,11)                 1.0825         estimate D2E/DX2                !
 ! R7    R(2,13)                 3.1064         estimate D2E/DX2                !
 ! R8    R(3,4)                  1.3965         estimate D2E/DX2                !
 ! R9    R(3,10)                 1.0817         estimate D2E/DX2                !
 ! R10   R(4,5)                  1.3965         estimate D2E/DX2                !
 ! R11   R(4,9)                  1.8979         estimate D2E/DX2                !
 ! R12   R(5,6)                  1.3809         estimate D2E/DX2                !
 ! R13   R(5,8)                  1.0817         estimate D2E/DX2                !
 ! R14   R(6,7)                  1.0825         estimate D2E/DX2                !
 ! R15   R(6,13)                 3.1062         estimate D2E/DX2                !
 ! R16   R(12,13)                2.6636         estimate D2E/DX2                !
 ! A1    A(2,1,6)              119.4598         estimate D2E/DX2                !
 ! A2    A(2,1,12)             119.9579         estimate D2E/DX2                !
 ! A3    A(6,1,12)             119.9575         estimate D2E/DX2                !
 ! A4    A(1,2,3)              120.4096         estimate D2E/DX2                !
 ! A5    A(1,2,11)             119.571          estimate D2E/DX2                !
 ! A6    A(3,2,11)             120.0144         estimate D2E/DX2                !
 ! A7    A(3,2,13)             115.8596         estimate D2E/DX2                !
 ! A8    A(11,2,13)             96.808          estimate D2E/DX2                !
 ! A9    A(2,3,4)              118.9972         estimate D2E/DX2                !
 ! A10   A(2,3,10)             120.8448         estimate D2E/DX2                !
 ! A11   A(4,3,10)             120.158          estimate D2E/DX2                !
 ! A12   A(3,4,5)              121.7125         estimate D2E/DX2                !
 ! A13   A(3,4,9)              119.1432         estimate D2E/DX2                !
 ! A14   A(5,4,9)              119.1443         estimate D2E/DX2                !
 ! A15   A(4,5,6)              118.9961         estimate D2E/DX2                !
 ! A16   A(4,5,8)              120.1587         estimate D2E/DX2                !
 ! A17   A(6,5,8)              120.8451         estimate D2E/DX2                !
 ! A18   A(1,6,5)              120.4099         estimate D2E/DX2                !
 ! A19   A(1,6,7)              119.5705         estimate D2E/DX2                !
 ! A20   A(5,6,7)              120.0146         estimate D2E/DX2                !
 ! A21   A(5,6,13)             115.8614         estimate D2E/DX2                !
 ! A22   A(7,6,13)              96.8016         estimate D2E/DX2                !
 ! A23   A(2,13,6)              46.096          estimate D2E/DX2                !
 ! A24   A(2,13,12)             43.1463         estimate D2E/DX2                !
 ! A25   A(6,13,12)             43.1481         estimate D2E/DX2                !
 ! D1    D(6,1,2,3)              1.3994         estimate D2E/DX2                !
 ! D2    D(6,1,2,11)          -179.4134         estimate D2E/DX2                !
 ! D3    D(12,1,2,3)           172.3361         estimate D2E/DX2                !
 ! D4    D(12,1,2,11)           -8.4766         estimate D2E/DX2                !
 ! D5    D(2,1,6,5)             -1.399          estimate D2E/DX2                !
 ! D6    D(2,1,6,7)            179.4134         estimate D2E/DX2                !
 ! D7    D(12,1,6,5)          -172.3358         estimate D2E/DX2                !
 ! D8    D(12,1,6,7)             8.4766         estimate D2E/DX2                !
 ! D9    D(1,2,3,4)             -0.6688         estimate D2E/DX2                !
 ! D10   D(1,2,3,10)           179.2835         estimate D2E/DX2                !
 ! D11   D(11,2,3,4)          -179.8525         estimate D2E/DX2                !
 ! D12   D(11,2,3,10)            0.0999         estimate D2E/DX2                !
 ! D13   D(13,2,3,4)           -64.2491         estimate D2E/DX2                !
 ! D14   D(13,2,3,10)          115.7033         estimate D2E/DX2                !
 ! D15   D(3,2,13,6)            78.2782         estimate D2E/DX2                !
 ! D16   D(3,2,13,12)          141.2852         estimate D2E/DX2                !
 ! D17   D(11,2,13,6)         -153.574          estimate D2E/DX2                !
 ! D18   D(11,2,13,12)         -90.567          estimate D2E/DX2                !
 ! D19   D(2,3,4,5)             -0.0754         estimate D2E/DX2                !
 ! D20   D(2,3,4,9)            179.9861         estimate D2E/DX2                !
 ! D21   D(10,3,4,5)           179.9719         estimate D2E/DX2                !
 ! D22   D(10,3,4,9)             0.0335         estimate D2E/DX2                !
 ! D23   D(3,4,5,6)              0.0758         estimate D2E/DX2                !
 ! D24   D(3,4,5,8)           -179.9726         estimate D2E/DX2                !
 ! D25   D(9,4,5,6)           -179.9858         estimate D2E/DX2                !
 ! D26   D(9,4,5,8)             -0.0341         estimate D2E/DX2                !
 ! D27   D(4,5,6,1)              0.6681         estimate D2E/DX2                !
 ! D28   D(4,5,6,7)            179.852          estimate D2E/DX2                !
 ! D29   D(4,5,6,13)            64.2559         estimate D2E/DX2                !
 ! D30   D(8,5,6,1)           -179.2833         estimate D2E/DX2                !
 ! D31   D(8,5,6,7)             -0.0993         estimate D2E/DX2                !
 ! D32   D(8,5,6,13)          -115.6954         estimate D2E/DX2                !
 ! D33   D(5,6,13,2)           -78.2815         estimate D2E/DX2                !
 ! D34   D(5,6,13,12)         -141.2848         estimate D2E/DX2                !
 ! D35   D(7,6,13,2)           153.5739         estimate D2E/DX2                !
 ! D36   D(7,6,13,12)           90.5707         estimate D2E/DX2                !
 --------------------------------------------------------------------------------
 Trust Radius=3.00D-01 FncErr=1.00D-07 GrdErr=1.00D-06
 Number of steps in this run=  87 maximum allowed number of steps= 100.
 GradGradGradGradGradGradGradGradGradGradGradGradGradGradGradGradGradGrad

 Leave Link  103 at Sun Sep  3 06:32:40 2006, MaxMem=    6291456 cpu:       0.0
 (Enter /usr/local/Gaussian/g03/l202.exe)
                          Input orientation:                          
 ---------------------------------------------------------------------
 Center     Atomic     Atomic              Coordinates (Angstroms)
 Number     Number      Type              X           Y           Z
 ---------------------------------------------------------------------
    1          6             0        0.000000    0.000000    0.000000
    2          6             0        0.000000    0.000000    1.408107
    3          6             0        1.190918    0.000000    2.107083
    4          6             0        2.392952   -0.014257    1.396441
    5          6             0        2.420180   -0.030037    0.000336
    6          6             0        1.225677   -0.029941   -0.692526
    7          1             0        1.227558   -0.039629   -1.775029
    8          1             0        3.365823   -0.041319   -0.524653
    9          9             0        4.032195   -0.013913    2.352934
   10          1             0        1.199169    0.011613    3.188647
   11          1             0       -0.941446    0.013355    1.942347
   12          1             0       -0.927968   -0.124870   -0.539674
   13         17             0       -0.538939    2.503379   -0.350373
 ---------------------------------------------------------------------
                    Distance matrix (angstroms):
                    1          2          3          4          5
     1  C    0.000000
     2  C    1.408107   0.000000
     3  C    2.420348   1.380888   0.000000
     4  C    2.770645   2.393023   1.396461   0.000000
     5  C    2.420367   2.799999   2.439338   1.396459   0.000000
     6  C    1.408109   2.432249   2.799984   2.393023   1.380904
     7  H    2.158518   3.411866   3.882488   3.378907   2.138776
     8  H    3.406719   3.881499   3.414375   2.153558   1.081657
     9  F    4.668521   4.141435   2.851928   1.897892   2.851941
    10  H    3.406701   2.146734   1.081658   2.153553   3.414371
    11  H    2.158520   1.082549   2.138760   3.378904   3.882502
    12  H    1.080724   2.161149   3.392726   3.845684   3.392742
    13  Cl   2.584593   3.106382   3.911317   4.240971   3.911212
                    6          7          8          9         10
     6  C    0.000000
     7  H    1.082549   0.000000
     8  H    2.146751   2.477019   0.000000
     9  F    4.141452   4.990665   2.953864   0.000000
    10  H    3.881486   4.964022   4.299511   2.953828   0.000000
    11  H    3.411869   4.304216   4.964036   4.990634   2.476995
    12  H    2.161148   2.485892   4.294630   5.743057   4.294615
    13  Cl   3.106227   3.408379   4.664014   5.877065   4.664181
                   11         12         13
    11  H    0.000000
    12  H    2.485903   0.000000
    13  Cl   3.408635   2.663620   0.000000
 Stoichiometry    C6H5ClF(2)
 Framework group  C1[X(C6H5ClF)]
 Deg. of freedom    33
 Full point group                 C1      NOp   1
 Largest Abelian subgroup         C1      NOp   1
 Largest concise Abelian subgroup C1      NOp   1
                         Standard orientation:                         
 ---------------------------------------------------------------------
 Center     Atomic     Atomic              Coordinates (Angstroms)
 Number     Number      Type              X           Y           Z
 ---------------------------------------------------------------------
    1          6             0       -0.886571    0.000321    1.116248
    2          6             0       -0.239974    1.216353    0.823088
    3          6             0        1.005568    1.219713    0.226877
    4          6             0        1.618605   -0.000043   -0.067207
    5          6             0        1.005472   -1.219626    0.227383
    6          6             0       -0.240087   -1.215896    0.823591
    7          1             0       -0.731525   -2.151806    1.056988
    8          1             0        1.503425   -2.149784   -0.011008
    9          9             0        3.330308   -0.000263   -0.887004
   10          1             0        1.503610    2.149727   -0.011895
   11          1             0       -0.731317    2.152410    1.056095
   12          1             0       -1.800905    0.000480    1.692404
   13         17             0       -2.546714   -0.000211   -0.864672
 ---------------------------------------------------------------------
 Rotational constants (GHZ):      3.0023385      0.8544937      0.8383795
 Leave Link  202 at Sun Sep  3 06:32:42 2006, MaxMem=    6291456 cpu:       0.5
 (Enter /usr/local/Gaussian/g03/l301.exe)
 Standard basis: 6-311+G(d,p) (5D, 7F)
 There are   214 symmetry adapted basis functions of A   symmetry.
 Integral buffers will be    131072 words long.
 Raffenetti 2 integral format.
 Two-electron integral symmetry is turned on.
   214 basis functions,   345 primitive gaussians,   222 cartesian basis functions
    34 alpha electrons       33 beta electrons
       nuclear repulsion energy       377.3773301181 Hartrees.
 IExCor= 402 DFT=T Ex=B+HF Corr=LYP ExCW=0 ScaHFX=  0.200000
 ScaDFX=  0.800000  0.720000  1.000000  0.810000
 IRadAn=      0 IRanWt=     -1 IRanGd=            0 ICorTp=0
 NAtoms=   13 NActive=   13 NUniq=   13 SFac= 1.00D+00 NAtFMM=   60 Big=F
 Leave Link  301 at Sun Sep  3 06:32:43 2006, MaxMem=    6291456 cpu:       0.1
 (Enter /usr/local/Gaussian/g03/l302.exe)
 NPDir=0 NMtPBC=     1 NCelOv=     1 NCel=       1 NClECP=     1 NCelD=      1
         NCelK=      1 NCelE2=     1 NClLst=     1 CellRange=     0.0.
 One-electron integrals computed using PRISM.
 NBasis=   214 RedAO= T  NBF=   214
 NBsUse=   214 1.00D-06 NBFU=   214
 Precomputing XC quadrature grid using
 IXCGrd= 2 IRadAn=           0 IRanWt=          -1 IRanGd=           0.
 NRdTot=     833 NPtTot=      105548 NUsed=      111432 NTot=      111464
 NSgBfM=   220   220   220   220.
 Leave Link  302 at Sun Sep  3 06:32:53 2006, MaxMem=    6291456 cpu:       2.5
 (Enter /usr/local/Gaussian/g03/l303.exe)
 DipDrv:  MaxL=1.
 Leave Link  303 at Sun Sep  3 06:32:54 2006, MaxMem=    6291456 cpu:       0.2
 (Enter /usr/local/Gaussian/g03/l401.exe)
 Harris functional with IExCor=  402 diagonalized for initial guess.
 ExpMin= 4.38D-02 ExpMax= 1.06D+05 ExpMxC= 3.62D+03 IAcc=2 IRadAn=         4 AccDes= 0.00D+00
 HarFok:  IExCor= 402 AccDes= 0.00D+00 IRadAn=         4 IDoV=1
 ScaDFX=  1.000000  1.000000  1.000000  1.000000
 Harris En= -791.750587263685    
 Initial guess orbital symmetries:
 Alpha Orbitals:
       Occupied  (A) (A) (A) (A) (A) (A) (A) (A) (A) (A) (A) (A)
                 (A) (A) (A) (A) (A) (A) (A) (A) (A) (A) (A) (A)
                 (A) (A) (A) (A) (A) (A) (A) (A) (A) (A)
       Virtual   (A) (A) (A) (A) (A) (A) (A) (A) (A) (A) (A) (A)
                 (A) (A) (A) (A) (A) (A) (A) (A) (A) (A) (A) (A)
                 (A) (A) (A) (A) (A) (A) (A) (A) (A) (A) (A) (A)
                 (A) (A) (A) (A) (A) (A) (A) (A) (A) (A) (A) (A)
                 (A) (A) (A) (A) (A) (A) (A) (A) (A) (A) (A) (A)
                 (A) (A) (A) (A) (A) (A) (A) (A) (A) (A) (A) (A)
                 (A) (A) (A) (A) (A) (A) (A) (A) (A) (A) (A) (A)
                 (A) (A) (A) (A) (A) (A) (A) (A) (A) (A) (A) (A)
                 (A) (A) (A) (A) (A) (A) (A) (A) (A) (A) (A) (A)
                 (A) (A) (A) (A) (A) (A) (A) (A) (A) (A) (A) (A)
                 (A) (A) (A) (A) (A) (A) (A) (A) (A) (A) (A) (A)
                 (A) (A) (A) (A) (A) (A) (A) (A) (A) (A) (A) (A)
                 (A) (A) (A) (A) (A) (A) (A) (A) (A) (A) (A) (A)
                 (A) (A) (A) (A) (A) (A) (A) (A) (A) (A) (A) (A)
                 (A) (A) (A) (A) (A) (A) (A) (A) (A) (A) (A) (A)
 Beta  Orbitals:
       Occupied  (A) (A) (A) (A) (A) (A) (A) (A) (A) (A) (A) (A)
                 (A) (A) (A) (A) (A) (A) (A) (A) (A) (A) (A) (A)
                 (A) (A) (A) (A) (A) (A) (A) (A) (A)
       Virtual   (A) (A) (A) (A) (A) (A) (A) (A) (A) (A) (A) (A)
                 (A) (A) (A) (A) (A) (A) (A) (A) (A) (A) (A) (A)
                 (A) (A) (A) (A) (A) (A) (A) (A) (A) (A) (A) (A)
                 (A) (A) (A) (A) (A) (A) (A) (A) (A) (A) (A) (A)
                 (A) (A) (A) (A) (A) (A) (A) (A) (A) (A) (A) (A)
                 (A) (A) (A) (A) (A) (A) (A) (A) (A) (A) (A) (A)
                 (A) (A) (A) (A) (A) (A) (A) (A) (A) (A) (A) (A)
                 (A) (A) (A) (A) (A) (A) (A) (A) (A) (A) (A) (A)
                 (A) (A) (A) (A) (A) (A) (A) (A) (A) (A) (A) (A)
                 (A) (A) (A) (A) (A) (A) (A) (A) (A) (A) (A) (A)
                 (A) (A) (A) (A) (A) (A) (A) (A) (A) (A) (A) (A)
                 (A) (A) (A) (A) (A) (A) (A) (A) (A) (A) (A) (A)
                 (A) (A) (A) (A) (A) (A) (A) (A) (A) (A) (A) (A)
                 (A) (A) (A) (A) (A) (A) (A) (A) (A) (A) (A) (A)
                 (A) (A) (A) (A) (A) (A) (A) (A) (A) (A) (A) (A)
                 (A)
 The electronic state of the initial guess is 2-A.
 <S**2> of initial guess= 0.7500
 Leave Link  401 at Sun Sep  3 06:34:30 2006, MaxMem=    6291456 cpu:      26.5
 (Enter /usr/local/Gaussian/g03/l502.exe)
 UHF open shell SCF:
 Requested convergence on RMS density matrix=1.00D-08 within 128 cycles.
 Requested convergence on MAX density matrix=1.00D-06.
 Requested convergence on             energy=1.00D-06.
 No special actions if energy rises.
 Using DIIS extrapolation, IDIIS=  1040.
 Integral symmetry usage will be decided dynamically.
       111431 words used for storage of precomputed grid.
 IEnd=    303679 IEndB=    303679 NGot=   6291456 MDV=   6053924
 LenX=   6053924
 Fock matrices will be formed incrementally for  20 cycles.

 Cycle   1  Pass 1  IDiag  1:
 Petite list used in FoFDir.
 MinBra= 0 MaxBra= 2 Meth= 1.
 IRaf=       0 NMat=   1 IRICut=       1 DoRegI=T DoRafI=F ISym2E= 1 JSym2E=1.
 E= -791.495175235438    
 DIIS: error= 2.55D-02 at cycle   1 NSaved=   1.
 NSaved= 1 IEnMin= 1 EnMin= -791.495175235438     IErMin= 1 ErrMin= 2.55D-02
 ErrMax= 2.55D-02 EMaxC= 1.00D-01 BMatC= 8.48D-01 BMatP= 8.48D-01
 IDIUse=3 WtCom= 7.45D-01 WtEn= 2.55D-01
 Coeff-Com:  0.100D+01
 Coeff-En:   0.100D+01
 Coeff:      0.100D+01
 Gap=     0.144 Goal=   None    Shift=    0.000
 Gap=     0.114 Goal=   None    Shift=    0.000
 GapD=    0.114 DampG=1.000 DampE=0.500 DampFc=0.5000 IDamp=-1.
 Damping current iteration by 5.00D-01
 RMSDP=1.10D-02 MaxDP=7.41D-01              OVMax= 2.42D-01

 Cycle   2  Pass 1  IDiag  1:
 RMSU=  5.46D-03    CP:  1.01D+00
 E= -791.546949901744     Delta-E=       -0.051774666305 Rises=F Damp=T
 DIIS: error= 1.33D-02 at cycle   2 NSaved=   2.
 NSaved= 2 IEnMin= 2 EnMin= -791.546949901744     IErMin= 2 ErrMin= 1.33D-02
 ErrMax= 1.33D-02 EMaxC= 1.00D-01 BMatC= 1.30D-01 BMatP= 8.48D-01
 IDIUse=3 WtCom= 8.67D-01 WtEn= 1.33D-01
 Coeff-Com:  0.190D+00 0.810D+00
 Coeff-En:   0.330D+00 0.670D+00
 Coeff:      0.208D+00 0.792D+00
 Gap=     0.183 Goal=   None    Shift=    0.000
 Gap=     0.098 Goal=   None    Shift=    0.000
 RMSDP=5.17D-03 MaxDP=3.32D-01 DE=-5.18D-02 OVMax= 2.26D-01

 Cycle   3  Pass 1  IDiag  1:
 RMSU=  4.63D-03    CP:  1.03D+00  5.88D-01
 E= -791.638104145146     Delta-E=       -0.091154243402 Rises=F Damp=F
 DIIS: error= 2.05D-02 at cycle   3 NSaved=   3.
 NSaved= 3 IEnMin= 3 EnMin= -791.638104145146     IErMin= 2 ErrMin= 1.33D-02
 ErrMax= 2.05D-02 EMaxC= 1.00D-01 BMatC= 1.77D-01 BMatP= 1.30D-01
 IDIUse=2 WtCom= 0.00D+00 WtEn= 1.00D+00
 Coeff-En:   0.000D+00 0.000D+00 0.100D+01
 Coeff:      0.000D+00 0.000D+00 0.100D+01
 Gap=     0.148 Goal=   None    Shift=    0.000
 Gap=     0.093 Goal=   None    Shift=    0.000
 RMSDP=8.51D-03 MaxDP=4.31D-01 DE=-9.12D-02 OVMax= 3.10D-01

 Cycle   4  Pass 1  IDiag  1:
 RMSU=  5.19D-03    CP:  1.07D+00  1.54D+00  1.49D-01
 E= -791.292040276930     Delta-E=        0.346063868216 Rises=F Damp=F
 DIIS: error= 7.16D-02 at cycle   4 NSaved=   4.
 NSaved= 4 IEnMin= 3 EnMin= -791.638104145146     IErMin= 2 ErrMin= 1.33D-02
 ErrMax= 7.16D-02 EMaxC= 1.00D-01 BMatC= 1.89D+00 BMatP= 1.30D-01
 IDIUse=2 WtCom= 0.00D+00 WtEn= 1.00D+00
 Coeff-En:   0.000D+00 0.000D+00 0.846D+00 0.154D+00
 Coeff:      0.000D+00 0.000D+00 0.846D+00 0.154D+00
 Gap=     0.179 Goal=   None    Shift=    0.000
 Gap=     0.126 Goal=   None    Shift=    0.000
 RMSDP=5.15D-03 MaxDP=2.89D-01 DE= 3.46D-01 OVMax= 1.73D-01

 Cycle   5  Pass 1  IDiag  1:
 RMSU=  1.12D-03    CP:  1.04D+00  9.38D-01  5.21D-01  4.05D-01
 E= -791.642181342533     Delta-E=       -0.350141065604 Rises=F Damp=F
 DIIS: error= 1.98D-02 at cycle   5 NSaved=   5.
 NSaved= 5 IEnMin= 5 EnMin= -791.642181342533     IErMin= 2 ErrMin= 1.33D-02
 ErrMax= 1.98D-02 EMaxC= 1.00D-01 BMatC= 1.67D-01 BMatP= 1.30D-01
 IDIUse=2 WtCom= 0.00D+00 WtEn= 1.00D+00
 Coeff-En:   0.000D+00 0.000D+00 0.481D+00 0.000D+00 0.519D+00
 Coeff:      0.000D+00 0.000D+00 0.481D+00 0.000D+00 0.519D+00
 Gap=     0.170 Goal=   None    Shift=    0.000
 Gap=     0.093 Goal=   None    Shift=    0.000
 RMSDP=2.10D-03 MaxDP=1.24D-01 DE=-3.50D-01 OVMax= 6.26D-02

 Cycle   6  Pass 1  IDiag  1:
 RMSU=  6.15D-04    CP:  1.02D+00  7.81D-01  6.80D-01  1.17D-01  6.92D-01
 E= -791.678369890560     Delta-E=       -0.036188548027 Rises=F Damp=F
 DIIS: error= 1.77D-03 at cycle   6 NSaved=   6.
 NSaved= 6 IEnMin= 6 EnMin= -791.678369890560     IErMin= 6 ErrMin= 1.77D-03
 ErrMax= 1.77D-03 EMaxC= 1.00D-01 BMatC= 1.59D-03 BMatP= 1.30D-01
 IDIUse=3 WtCom= 9.82D-01 WtEn= 1.77D-02
 Coeff-Com: -0.458D-02 0.117D-01 0.175D+00-0.299D-01 0.298D+00 0.550D+00
 Coeff-En:   0.000D+00 0.000D+00 0.000D+00 0.000D+00 0.000D+00 0.100D+01
 Coeff:     -0.450D-02 0.115D-01 0.172D+00-0.293D-01 0.292D+00 0.558D+00
 Gap=     0.166 Goal=   None    Shift=    0.000
 Gap=     0.094 Goal=   None    Shift=    0.000
 RMSDP=3.00D-04 MaxDP=2.07D-02 DE=-3.62D-02 OVMax= 1.34D-02

 Cycle   7  Pass 1  IDiag  1:
 RMSU=  1.04D-04    CP:  1.02D+00  8.02D-01  6.89D-01  1.52D-01  7.15D-01
                    CP:  7.63D-01
 E= -791.678759718066     Delta-E=       -0.000389827506 Rises=F Damp=F
 DIIS: error= 6.88D-04 at cycle   7 NSaved=   7.
 NSaved= 7 IEnMin= 7 EnMin= -791.678759718066     IErMin= 7 ErrMin= 6.88D-04
 ErrMax= 6.88D-04 EMaxC= 1.00D-01 BMatC= 2.32D-04 BMatP= 1.59D-03
 IDIUse=3 WtCom= 9.93D-01 WtEn= 6.88D-03
 Coeff-Com: -0.395D-02 0.704D-02 0.651D-01-0.210D-01 0.131D+00 0.293D+00
 Coeff-Com:  0.529D+00
 Coeff-En:   0.000D+00 0.000D+00 0.000D+00 0.000D+00 0.000D+00 0.574D-01
 Coeff-En:   0.943D+00
 Coeff:     -0.392D-02 0.700D-02 0.646D-01-0.208D-01 0.131D+00 0.291D+00
 Coeff:      0.532D+00
 Gap=     0.167 Goal=   None    Shift=    0.000
 Gap=     0.094 Goal=   None    Shift=    0.000
 RMSDP=9.83D-05 MaxDP=5.38D-03 DE=-3.90D-04 OVMax= 6.52D-03

 Cycle   8  Pass 1  IDiag  1:
 RMSU=  6.50D-05    CP:  1.02D+00  8.01D-01  6.84D-01  1.44D-01  7.49D-01
                    CP:  8.02D-01  7.04D-01
 E= -791.678818679662     Delta-E=       -0.000058961596 Rises=F Damp=F
 DIIS: error= 2.17D-04 at cycle   8 NSaved=   8.
 NSaved= 8 IEnMin= 8 EnMin= -791.678818679662     IErMin= 8 ErrMin= 2.17D-04
 ErrMax= 2.17D-04 EMaxC= 1.00D-01 BMatC= 1.98D-05 BMatP= 2.32D-04
 IDIUse=3 WtCom= 9.98D-01 WtEn= 2.17D-03
 Coeff-Com:  0.346D-03-0.357D-03-0.144D-02-0.112D-02-0.815D-02-0.519D-02
 Coeff-Com:  0.154D+00 0.862D+00
 Coeff-En:   0.000D+00 0.000D+00 0.000D+00 0.000D+00 0.000D+00 0.000D+00
 Coeff-En:   0.000D+00 0.100D+01
 Coeff:      0.345D-03-0.356D-03-0.144D-02-0.112D-02-0.813D-02-0.518D-02
 Coeff:      0.153D+00 0.862D+00
 Gap=     0.167 Goal=   None    Shift=    0.000
 Gap=     0.094 Goal=   None    Shift=    0.000
 RMSDP=3.61D-05 MaxDP=1.88D-03 DE=-5.90D-05 OVMax= 3.17D-03

 Cycle   9  Pass 1  IDiag  1:
 RMSU=  2.58D-05    CP:  1.02D+00  7.98D-01  6.85D-01  1.44D-01  7.52D-01
                    CP:  7.96D-01  8.63D-01  1.09D+00
 E= -791.678828136178     Delta-E=       -0.000009456516 Rises=F Damp=F
 DIIS: error= 1.04D-04 at cycle   9 NSaved=   9.
 NSaved= 9 IEnMin= 9 EnMin= -791.678828136178     IErMin= 9 ErrMin= 1.04D-04
 ErrMax= 1.04D-04 EMaxC= 1.00D-01 BMatC= 7.73D-06 BMatP= 1.98D-05
 IDIUse=3 WtCom= 9.99D-01 WtEn= 1.04D-03
 Coeff-Com:  0.576D-03-0.246D-02-0.147D-01 0.325D-02-0.297D-01-0.435D-01
 Coeff-Com: -0.616D-02 0.532D+00 0.561D+00
 Coeff-En:   0.000D+00 0.000D+00 0.000D+00 0.000D+00 0.000D+00 0.000D+00
 Coeff-En:   0.000D+00 0.000D+00 0.100D+01
 Coeff:      0.576D-03-0.246D-02-0.147D-01 0.324D-02-0.296D-01-0.435D-01
 Coeff:     -0.615D-02 0.531D+00 0.561D+00
 Gap=     0.167 Goal=   None    Shift=    0.000
 Gap=     0.094 Goal=   None    Shift=    0.000
 RMSDP=2.21D-05 MaxDP=1.09D-03 DE=-9.46D-06 OVMax= 1.20D-03

 Cycle  10  Pass 1  IDiag  1:
 RMSU=  9.49D-06    CP:  1.02D+00  7.99D-01  6.85D-01  1.42D-01  7.53D-01
                    CP:  8.10D-01  8.88D-01  1.27D+00  9.73D-01
 E= -791.678831873103     Delta-E=       -0.000003736925 Rises=F Damp=F
 DIIS: error= 9.04D-05 at cycle  10 NSaved=  10.
 NSaved=10 IEnMin=10 EnMin= -791.678831873103     IErMin=10 ErrMin= 9.04D-05
 ErrMax= 9.04D-05 EMaxC= 1.00D-01 BMatC= 2.10D-06 BMatP= 7.73D-06
 IDIUse=1 WtCom= 1.00D+00 WtEn= 0.00D+00
 Coeff-Com: -0.443D-03 0.256D-03-0.511D-02 0.200D-02-0.517D-02 0.533D-02
 Coeff-Com: -0.602D-01-0.283D+00 0.224D-02 0.134D+01
 Coeff:     -0.443D-03 0.256D-03-0.511D-02 0.200D-02-0.517D-02 0.533D-02
 Coeff:     -0.602D-01-0.283D+00 0.224D-02 0.134D+01
 Gap=     0.167 Goal=   None    Shift=    0.000
 Gap=     0.095 Goal=   None    Shift=    0.000
 RMSDP=2.31D-05 MaxDP=1.28D-03 DE=-3.74D-06 OVMax= 1.17D-03

 Cycle  11  Pass 1  IDiag  1:
 RMSU=  1.17D-05    CP:  1.02D+00  8.01D-01  6.86D-01  1.43D-01  7.54D-01
                    CP:  8.16D-01  8.98D-01  1.39D+00  1.07D+00  1.91D+00
 E= -791.678834436547     Delta-E=       -0.000002563444 Rises=F Damp=F
 DIIS: error= 2.99D-05 at cycle  11 NSaved=  11.
 NSaved=11 IEnMin=11 EnMin= -791.678834436547     IErMin=11 ErrMin= 2.99D-05
 ErrMax= 2.99D-05 EMaxC= 1.00D-01 BMatC= 3.63D-07 BMatP= 2.10D-06
 IDIUse=1 WtCom= 1.00D+00 WtEn= 0.00D+00
 Coeff-Com: -0.107D-03 0.601D-03 0.124D-02-0.305D-03 0.448D-02 0.234D-02
 Coeff-Com: -0.125D-01-0.223D+00-0.588D-01 0.325D+00 0.960D+00
 Coeff:     -0.107D-03 0.601D-03 0.124D-02-0.305D-03 0.448D-02 0.234D-02
 Coeff:     -0.125D-01-0.223D+00-0.588D-01 0.325D+00 0.960D+00
 Gap=     0.167 Goal=   None    Shift=    0.000
 Gap=     0.095 Goal=   None    Shift=    0.000
 RMSDP=1.04D-05 MaxDP=3.75D-04 DE=-2.56D-06 OVMax= 6.61D-04

 Cycle  12  Pass 1  IDiag  1:
 RMSU=  5.46D-06    CP:  1.02D+00  8.01D-01  6.86D-01  1.43D-01  7.54D-01
                    CP:  8.15D-01  9.18D-01  1.38D+00  1.24D+00  2.50D+00
                    CP:  1.18D+00
 E= -791.678834926602     Delta-E=       -0.000000490055 Rises=F Damp=F
 DIIS: error= 2.66D-05 at cycle  12 NSaved=  12.
 NSaved=12 IEnMin=12 EnMin= -791.678834926602     IErMin=12 ErrMin= 2.66D-05
 ErrMax= 2.66D-05 EMaxC= 1.00D-01 BMatC= 1.56D-07 BMatP= 3.63D-07
 IDIUse=1 WtCom= 1.00D+00 WtEn= 0.00D+00
 Coeff-Com:  0.923D-04 0.410D-04 0.189D-02-0.547D-03 0.319D-02-0.332D-03
 Coeff-Com:  0.816D-02-0.567D-01 0.131D-01-0.126D+00 0.309D+00 0.848D+00
 Coeff:      0.923D-04 0.410D-04 0.189D-02-0.547D-03 0.319D-02-0.332D-03
 Coeff:      0.816D-02-0.567D-01 0.131D-01-0.126D+00 0.309D+00 0.848D+00
 Gap=     0.167 Goal=   None    Shift=    0.000
 Gap=     0.095 Goal=   None    Shift=    0.000
 RMSDP=6.44D-06 MaxDP=3.56D-04 DE=-4.90D-07 OVMax= 2.42D-04

 Cycle  13  Pass 1  IDiag  1:
 RMSU=  2.68D-06    CP:  1.02D+00  8.01D-01  6.86D-01  1.43D-01  7.52D-01
                    CP:  8.14D-01  9.14D-01  1.35D+00  1.30D+00  2.69D+00
                    CP:  1.39D+00  1.17D+00
 E= -791.678835027552     Delta-E=       -0.000000100950 Rises=F Damp=F
 DIIS: error= 1.07D-05 at cycle  13 NSaved=  13.
 NSaved=13 IEnMin=13 EnMin= -791.678835027552     IErMin=13 ErrMin= 1.07D-05
 ErrMax= 1.07D-05 EMaxC= 1.00D-01 BMatC= 3.34D-08 BMatP= 1.56D-07
 IDIUse=1 WtCom= 1.00D+00 WtEn= 0.00D+00
 Coeff-Com:  0.673D-04-0.159D-03 0.818D-03-0.182D-03 0.662D-03 0.751D-03
 Coeff-Com:  0.920D-02 0.171D-01 0.256D-01-0.131D+00-0.107D+00 0.360D+00
 Coeff-Com:  0.824D+00
 Coeff:      0.673D-04-0.159D-03 0.818D-03-0.182D-03 0.662D-03 0.751D-03
 Coeff:      0.920D-02 0.171D-01 0.256D-01-0.131D+00-0.107D+00 0.360D+00
 Coeff:      0.824D+00
 Gap=     0.167 Goal=   None    Shift=    0.000
 Gap=     0.095 Goal=   None    Shift=    0.000
 RMSDP=3.50D-06 MaxDP=1.62D-04 DE=-1.01D-07 OVMax= 1.46D-04

 Cycle  14  Pass 1  IDiag  1:
 RMSU=  7.55D-07    CP:  1.02D+00  8.00D-01  6.86D-01  1.43D-01  7.52D-01
                    CP:  8.12D-01  9.12D-01  1.34D+00  1.31D+00  2.81D+00
                    CP:  1.50D+00  1.36D+00  1.36D+00
 E= -791.678835056243     Delta-E=       -0.000000028691 Rises=F Damp=F
 DIIS: error= 6.22D-06 at cycle  14 NSaved=  14.
 NSaved=14 IEnMin=14 EnMin= -791.678835056243     IErMin=14 ErrMin= 6.22D-06
 ErrMax= 6.22D-06 EMaxC= 1.00D-01 BMatC= 7.03D-09 BMatP= 3.34D-08
 IDIUse=1 WtCom= 1.00D+00 WtEn= 0.00D+00
 Coeff-Com: -0.704D-05-0.565D-04-0.120D-03 0.536D-04-0.414D-03 0.114D-02
 Coeff-Com:  0.286D-02 0.177D-01 0.123D-02-0.167D-01-0.107D+00-0.970D-01
 Coeff-Com:  0.281D+00 0.917D+00
 Coeff:     -0.704D-05-0.565D-04-0.120D-03 0.536D-04-0.414D-03 0.114D-02
 Coeff:      0.286D-02 0.177D-01 0.123D-02-0.167D-01-0.107D+00-0.970D-01
 Coeff:      0.281D+00 0.917D+00
 Gap=     0.167 Goal=   None    Shift=    0.000
 Gap=     0.095 Goal=   None    Shift=    0.000
 RMSDP=1.80D-06 MaxDP=6.53D-05 DE=-2.87D-08 OVMax= 1.02D-04

 Cycle  15  Pass 1  IDiag  1:
 RMSU=  6.68D-07    CP:  1.02D+00  8.00D-01  6.86D-01  1.43D-01  7.51D-01
                    CP:  8.12D-01  9.10D-01  1.33D+00  1.33D+00  2.88D+00
                    CP:  1.55D+00  1.51D+00  1.45D+00  1.84D+00
 E= -791.678835066558     Delta-E=       -0.000000010315 Rises=F Damp=F
 DIIS: error= 3.74D-06 at cycle  15 NSaved=  15.
 NSaved=15 IEnMin=15 EnMin= -791.678835066558     IErMin=15 ErrMin= 3.74D-06
 ErrMax= 3.74D-06 EMaxC= 1.00D-01 BMatC= 2.32D-09 BMatP= 7.03D-09
 IDIUse=1 WtCom= 1.00D+00 WtEn= 0.00D+00
 Coeff-Com: -0.198D-04 0.711D-04-0.416D-03 0.818D-04-0.432D-03-0.938D-03
 Coeff-Com: -0.415D-02-0.788D-03-0.108D-01 0.463D-01 0.404D-01-0.127D+00
 Coeff-Com: -0.343D+00 0.863D-02 0.139D+01
 Coeff:     -0.198D-04 0.711D-04-0.416D-03 0.818D-04-0.432D-03-0.938D-03
 Coeff:     -0.415D-02-0.788D-03-0.108D-01 0.463D-01 0.404D-01-0.127D+00
 Coeff:     -0.343D+00 0.863D-02 0.139D+01
 Gap=     0.167 Goal=   None    Shift=    0.000
 Gap=     0.095 Goal=   None    Shift=    0.000
 RMSDP=1.39D-06 MaxDP=4.23D-05 DE=-1.03D-08 OVMax= 9.59D-05

 Cycle  16  Pass 1  IDiag  1:
 RMSU=  3.41D-07    CP:  1.02D+00  8.00D-01  6.86D-01  1.43D-01  7.51D-01
                    CP:  8.12D-01  9.09D-01  1.33D+00  1.33D+00  2.92D+00
                    CP:  1.61D+00  1.56D+00  1.65D+00  2.82D+00  1.87D+00
 E= -791.678835071687     Delta-E=       -0.000000005129 Rises=F Damp=F
 DIIS: error= 1.41D-06 at cycle  16 NSaved=  16.
 NSaved=16 IEnMin=16 EnMin= -791.678835071687     IErMin=16 ErrMin= 1.41D-06
 ErrMax= 1.41D-06 EMaxC= 1.00D-01 BMatC= 5.02D-10 BMatP= 2.32D-09
 IDIUse=1 WtCom= 1.00D+00 WtEn= 0.00D+00
 Coeff-Com: -0.635D-05 0.288D-04-0.276D-04-0.166D-05 0.864D-04-0.521D-03
 Coeff-Com: -0.265D-02-0.488D-02-0.337D-02 0.182D-01 0.320D-01 0.881D-02
 Coeff-Com: -0.140D+00-0.243D+00 0.139D+00 0.120D+01
 Coeff:     -0.635D-05 0.288D-04-0.276D-04-0.166D-05 0.864D-04-0.521D-03
 Coeff:     -0.265D-02-0.488D-02-0.337D-02 0.182D-01 0.320D-01 0.881D-02
 Coeff:     -0.140D+00-0.243D+00 0.139D+00 0.120D+01
 Gap=     0.167 Goal=   None    Shift=    0.000
 Gap=     0.095 Goal=   None    Shift=    0.000
 RMSDP=7.69D-07 MaxDP=2.48D-05 DE=-5.13D-09 OVMax= 4.65D-05

 Cycle  17  Pass 1  IDiag  1:
 RMSU=  3.43D-07    CP:  1.02D+00  8.00D-01  6.86D-01  1.43D-01  7.51D-01
                    CP:  8.12D-01  9.09D-01  1.33D+00  1.33D+00  2.93D+00
                    CP:  1.62D+00  1.59D+00  1.69D+00  3.00D+00  2.46D+00
                    CP:  1.29D+00
 E= -791.678835072556     Delta-E=       -0.000000000869 Rises=F Damp=F
 DIIS: error= 2.64D-07 at cycle  17 NSaved=  17.
 NSaved=17 IEnMin=17 EnMin= -791.678835072556     IErMin=17 ErrMin= 2.64D-07
 ErrMax= 2.64D-07 EMaxC= 1.00D-01 BMatC= 3.10D-11 BMatP= 5.02D-10
 IDIUse=1 WtCom= 1.00D+00 WtEn= 0.00D+00
 Coeff-Com: -0.381D-06 0.245D-05 0.154D-04-0.456D-05 0.373D-04-0.823D-04
 Coeff-Com: -0.441D-03-0.899D-03-0.107D-03 0.218D-02 0.322D-02 0.854D-02
 Coeff-Com: -0.120D-01-0.506D-01-0.641D-01 0.288D+00 0.826D+00
 Coeff:     -0.381D-06 0.245D-05 0.154D-04-0.456D-05 0.373D-04-0.823D-04
 Coeff:     -0.441D-03-0.899D-03-0.107D-03 0.218D-02 0.322D-02 0.854D-02
 Coeff:     -0.120D-01-0.506D-01-0.641D-01 0.288D+00 0.826D+00
 Gap=     0.167 Goal=   None    Shift=    0.000
 Gap=     0.095 Goal=   None    Shift=    0.000
 RMSDP=1.35D-07 MaxDP=6.88D-06 DE=-8.69D-10 OVMax= 5.51D-06

 Cycle  18  Pass 1  IDiag  1:
 RMSU=  5.43D-08    CP:  1.02D+00  8.00D-01  6.86D-01  1.43D-01  7.51D-01
                    CP:  8.12D-01  9.09D-01  1.33D+00  1.33D+00  2.93D+00
                    CP:  1.62D+00  1.59D+00  1.69D+00  3.00D+00  2.53D+00
                    CP:  1.42D+00  1.11D+00
 E= -791.678835072577     Delta-E=       -0.000000000021 Rises=F Damp=F
 DIIS: error= 1.55D-07 at cycle  18 NSaved=  18.
 NSaved=18 IEnMin=18 EnMin= -791.678835072577     IErMin=18 ErrMin= 1.55D-07
 ErrMax= 1.55D-07 EMaxC= 1.00D-01 BMatC= 1.33D-11 BMatP= 3.10D-11
 IDIUse=1 WtCom= 1.00D+00 WtEn= 0.00D+00
 Coeff-Com:  0.449D-06-0.151D-05 0.120D-04-0.235D-05 0.996D-05 0.214D-04
 Coeff-Com:  0.696D-04 0.132D-03 0.294D-03-0.922D-03-0.213D-02 0.357D-02
 Coeff-Com:  0.996D-02 0.137D-02-0.520D-01 0.154D-01 0.468D+00 0.556D+00
 Coeff:      0.449D-06-0.151D-05 0.120D-04-0.235D-05 0.996D-05 0.214D-04
 Coeff:      0.696D-04 0.132D-03 0.294D-03-0.922D-03-0.213D-02 0.357D-02
 Coeff:      0.996D-02 0.137D-02-0.520D-01 0.154D-01 0.468D+00 0.556D+00
 Gap=     0.167 Goal=   None    Shift=    0.000
 Gap=     0.095 Goal=   None    Shift=    0.000
 RMSDP=3.92D-08 MaxDP=1.61D-06 DE=-2.14D-11 OVMax= 1.27D-06

 Cycle  19  Pass 1  IDiag  1:
 RMSU=  2.31D-08    CP:  1.02D+00  8.00D-01  6.86D-01  1.43D-01  7.51D-01
                    CP:  8.12D-01  9.09D-01  1.33D+00  1.33D+00  2.93D+00
                    CP:  1.62D+00  1.59D+00  1.69D+00  3.00D+00  2.55D+00
                    CP:  1.43D+00  1.15D+00  5.60D-01
 E= -791.678835072583     Delta-E=       -0.000000000006 Rises=F Damp=F
 DIIS: error= 7.02D-08 at cycle  19 NSaved=  19.
 NSaved=19 IEnMin=19 EnMin= -791.678835072583     IErMin=19 ErrMin= 7.02D-08
 ErrMax= 7.02D-08 EMaxC= 1.00D-01 BMatC= 3.29D-12 BMatP= 1.33D-11
 IDIUse=1 WtCom= 1.00D+00 WtEn= 0.00D+00
 Coeff-Com:  0.297D-06-0.123D-05 0.262D-05 0.171D-07-0.587D-05 0.460D-04
 Coeff-Com:  0.182D-03 0.415D-03 0.152D-03-0.130D-02-0.229D-02-0.623D-03
 Coeff-Com:  0.101D-01 0.175D-01-0.883D-02-0.892D-01-0.134D-02 0.339D+00
 Coeff-Com:  0.736D+00
 Coeff:      0.297D-06-0.123D-05 0.262D-05 0.171D-07-0.587D-05 0.460D-04
 Coeff:      0.182D-03 0.415D-03 0.152D-03-0.130D-02-0.229D-02-0.623D-03
 Coeff:      0.101D-01 0.175D-01-0.883D-02-0.892D-01-0.134D-02 0.339D+00
 Coeff:      0.736D+00
 Gap=     0.167 Goal=   None    Shift=    0.000
 Gap=     0.095 Goal=   None    Shift=    0.000
 RMSDP=2.40D-08 MaxDP=1.19D-06 DE=-6.14D-12 OVMax= 9.96D-07

 Cycle  20  Pass 1  IDiag  1:
 Restarting incremental Fock formation.
 E= -791.678835072583     Delta-E=        0.000000000001 Rises=F Damp=F
 DIIS: error= 1.72D-08 at cycle  20 NSaved=  20.
 NSaved=20 IEnMin=19 EnMin= -791.678835072583     IErMin=20 ErrMin= 1.72D-08
 ErrMax= 1.72D-08 EMaxC= 1.00D-01 BMatC= 2.43D-13 BMatP= 3.29D-12
 IDIUse=1 WtCom= 1.00D+00 WtEn= 0.00D+00
 Coeff-Com: -0.149D-07-0.591D-08-0.126D-05 0.320D-06-0.258D-05 0.430D-05
 Coeff-Com:  0.838D-05 0.848D-04-0.322D-04-0.129D-03-0.108D-03-0.420D-03
 Coeff-Com:  0.711D-03 0.253D-02 0.545D-02-0.181D-01-0.672D-01-0.343D-01
 Coeff-Com:  0.103D+00 0.101D+01
 Coeff:     -0.149D-07-0.591D-08-0.126D-05 0.320D-06-0.258D-05 0.430D-05
 Coeff:      0.838D-05 0.848D-04-0.322D-04-0.129D-03-0.108D-03-0.420D-03
 Coeff:      0.711D-03 0.253D-02 0.545D-02-0.181D-01-0.672D-01-0.343D-01
 Coeff:      0.103D+00 0.101D+01
 Gap=     0.167 Goal=   None    Shift=    0.000
 Gap=     0.095 Goal=   None    Shift=    0.000
 RMSDP=1.84D-08 MaxDP=8.75D-07 DE= 6.82D-13 OVMax= 9.60D-07

 Cycle  21  Pass 1  IDiag  1:
 RMSU=  1.54D-08    CP:  1.00D+00
 E= -791.678835072584     Delta-E=       -0.000000000001 Rises=F Damp=F
 DIIS: error= 1.01D-08 at cycle  21 NSaved=  20.
 NSaved=20 IEnMin=20 EnMin= -791.678835072584     IErMin=20 ErrMin= 1.01D-08
 ErrMax= 1.01D-08 EMaxC= 1.00D-01 BMatC= 2.66D-14 BMatP= 2.43D-13
 IDIUse=1 WtCom= 1.00D+00 WtEn= 0.00D+00
 Coeff-Com: -0.258D-07 0.110D-06-0.505D-06 0.359D-06-0.632D-05-0.194D-04
 Coeff-Com: -0.394D-04-0.126D-04 0.127D-03 0.267D-03 0.676D-04-0.114D-02
 Coeff-Com: -0.219D-02 0.146D-02 0.104D-01-0.328D-02-0.456D-01-0.854D-01
 Coeff-Com:  0.101D+00 0.102D+01
 Coeff:     -0.258D-07 0.110D-06-0.505D-06 0.359D-06-0.632D-05-0.194D-04
 Coeff:     -0.394D-04-0.126D-04 0.127D-03 0.267D-03 0.676D-04-0.114D-02
 Coeff:     -0.219D-02 0.146D-02 0.104D-01-0.328D-02-0.456D-01-0.854D-01
 Coeff:      0.101D+00 0.102D+01
 Gap=     0.167 Goal=   None    Shift=    0.000
 Gap=     0.095 Goal=   None    Shift=    0.000
 RMSDP=7.20D-09 MaxDP=3.56D-07 DE=-1.14D-12 OVMax= 6.31D-07

 SCF Done:  E(UB+HF-LYP) =  -791.678835073     A.U. after   21 cycles
             Convg  =    0.7201D-08             -V/T =  2.0036
             S**2   =   0.7602
 KE= 7.888697109282D+02 PE=-2.623774956532D+03 EE= 6.658490804127D+02
 Annihilation of the first spin contaminant:
 S**2 before annihilation     0.7602,   after     0.7501
 Leave Link  502 at Sun Sep  3 10:08:02 2006, MaxMem=    6291456 cpu:    3600.2
 (Enter /usr/local/Gaussian/g03/l601.exe)
 Copying SCF densities to generalized density rwf, ISCF=1 IROHF=0.

 **********************************************************************

            Population analysis using the SCF density.

 **********************************************************************

 Orbital symmetries:
 Alpha Orbitals:
       Occupied  (A) (A) (A) (A) (A) (A) (A) (A) (A) (A) (A) (A)
                 (A) (A) (A) (A) (A) (A) (A) (A) (A) (A) (A) (A)
                 (A) (A) (A) (A) (A) (A) (A) (A) (A) (A)
       Virtual   (A) (A) (A) (A) (A) (A) (A) (A) (A) (A) (A) (A)
                 (A) (A) (A) (A) (A) (A) (A) (A) (A) (A) (A) (A)
                 (A) (A) (A) (A) (A) (A) (A) (A) (A) (A) (A) (A)
                 (A) (A) (A) (A) (A) (A) (A) (A) (A) (A) (A) (A)
                 (A) (A) (A) (A) (A) (A) (A) (A) (A) (A) (A) (A)
                 (A) (A) (A) (A) (A) (A) (A) (A) (A) (A) (A) (A)
                 (A) (A) (A) (A) (A) (A) (A) (A) (A) (A) (A) (A)
                 (A) (A) (A) (A) (A) (A) (A) (A) (A) (A) (A) (A)
                 (A) (A) (A) (A) (A) (A) (A) (A) (A) (A) (A) (A)
                 (A) (A) (A) (A) (A) (A) (A) (A) (A) (A) (A) (A)
                 (A) (A) (A) (A) (A) (A) (A) (A) (A) (A) (A) (A)
                 (A) (A) (A) (A) (A) (A) (A) (A) (A) (A) (A) (A)
                 (A) (A) (A) (A) (A) (A) (A) (A) (A) (A) (A) (A)
                 (A) (A) (A) (A) (A) (A) (A) (A) (A) (A) (A) (A)
                 (A) (A) (A) (A) (A) (A) (A) (A) (A) (A) (A) (A)
 Beta  Orbitals:
       Occupied  (A) (A) (A) (A) (A) (A) (A) (A) (A) (A) (A) (A)
                 (A) (A) (A) (A) (A) (A) (A) (A) (A) (A) (A) (A)
                 (A) (A) (A) (A) (A) (A) (A) (A) (A)
       Virtual   (A) (A) (A) (A) (A) (A) (A) (A) (A) (A) (A) (A)
                 (A) (A) (A) (A) (A) (A) (A) (A) (A) (A) (A) (A)
                 (A) (A) (A) (A) (A) (A) (A) (A) (A) (A) (A) (A)
                 (A) (A) (A) (A) (A) (A) (A) (A) (A) (A) (A) (A)
                 (A) (A) (A) (A) (A) (A) (A) (A) (A) (A) (A) (A)
                 (A) (A) (A) (A) (A) (A) (A) (A) (A) (A) (A) (A)
                 (A) (A) (A) (A) (A) (A) (A) (A) (A) (A) (A) (A)
                 (A) (A) (A) (A) (A) (A) (A) (A) (A) (A) (A) (A)
                 (A) (A) (A) (A) (A) (A) (A) (A) (A) (A) (A) (A)
                 (A) (A) (A) (A) (A) (A) (A) (A) (A) (A) (A) (A)
                 (A) (A) (A) (A) (A) (A) (A) (A) (A) (A) (A) (A)
                 (A) (A) (A) (A) (A) (A) (A) (A) (A) (A) (A) (A)
                 (A) (A) (A) (A) (A) (A) (A) (A) (A) (A) (A) (A)
                 (A) (A) (A) (A) (A) (A) (A) (A) (A) (A) (A) (A)
                 (A) (A) (A) (A) (A) (A) (A) (A) (A) (A) (A) (A)
                 (A)
 The electronic state is 2-A.
 Alpha  occ. eigenvalues -- -101.54499 -24.65059 -10.32514 -10.24671 -10.24208
 Alpha  occ. eigenvalues --  -10.24204 -10.24035 -10.24034  -9.45678  -7.22775
 Alpha  occ. eigenvalues --   -7.21058  -7.21051  -1.10152  -0.92593  -0.81553
 Alpha  occ. eigenvalues --   -0.81524  -0.79078  -0.66726  -0.65775  -0.57360
 Alpha  occ. eigenvalues --   -0.51931  -0.50695  -0.48621  -0.45869  -0.44402
 Alpha  occ. eigenvalues --   -0.40908  -0.40107  -0.38256  -0.36787  -0.35708
 Alpha  occ. eigenvalues --   -0.32903  -0.31397  -0.30594  -0.29148
 Alpha virt. eigenvalues --   -0.12411  -0.07282  -0.06635  -0.01064   0.00741
 Alpha virt. eigenvalues --    0.01796   0.03661   0.03763   0.04213   0.05260
 Alpha virt. eigenvalues --    0.06910   0.07234   0.07998   0.08535   0.09034
 Alpha virt. eigenvalues --    0.10464   0.10713   0.11295   0.12294   0.12647
 Alpha virt. eigenvalues --    0.13255   0.13861   0.15014   0.15191   0.16480
 Alpha virt. eigenvalues --    0.17220   0.17890   0.17995   0.18785   0.19193
 Alpha virt. eigenvalues --    0.19540   0.20295   0.21349   0.22464   0.23348
 Alpha virt. eigenvalues --    0.25549   0.26380   0.26921   0.27729   0.29495
 Alpha virt. eigenvalues --    0.29529   0.32195   0.34102   0.39011   0.39860
 Alpha virt. eigenvalues --    0.43716   0.44111   0.44126   0.46840   0.46867
 Alpha virt. eigenvalues --    0.47096   0.50173   0.50354   0.51211   0.51709
 Alpha virt. eigenvalues --    0.54038   0.54254   0.56053   0.58577   0.58937
 Alpha virt. eigenvalues --    0.61225   0.62296   0.65483   0.66726   0.66984
 Alpha virt. eigenvalues --    0.69001   0.69538   0.70861   0.75640   0.77555
 Alpha virt. eigenvalues --    0.78358   0.80631   0.80730   0.80751   0.85585
 Alpha virt. eigenvalues --    0.85982   0.86403   0.89412   0.89510   0.90416
 Alpha virt. eigenvalues --    0.91703   0.94052   0.95110   1.00441   1.01701
 Alpha virt. eigenvalues --    1.02871   1.06515   1.08413   1.12765   1.18454
 Alpha virt. eigenvalues --    1.22313   1.28229   1.39293   1.41325   1.41523
 Alpha virt. eigenvalues --    1.44613   1.45580   1.50725   1.51878   1.52548
 Alpha virt. eigenvalues --    1.56198   1.58181   1.60250   1.60828   1.65036
 Alpha virt. eigenvalues --    1.69442   1.70845   1.72533   1.75075   1.77307
 Alpha virt. eigenvalues --    1.85028   1.86105   1.87556   1.87794   1.91334
 Alpha virt. eigenvalues --    1.92110   1.93061   1.97275   1.98434   2.03577
 Alpha virt. eigenvalues --    2.07515   2.21224   2.24661   2.27395   2.27857
 Alpha virt. eigenvalues --    2.29958   2.32638   2.35097   2.37604   2.40904
 Alpha virt. eigenvalues --    2.45413   2.56959   2.58728   2.58896   2.65163
 Alpha virt. eigenvalues --    2.67241   2.69011   2.70724   2.72345   2.72510
 Alpha virt. eigenvalues --    2.73860   2.78292   2.79929   2.84334   2.87999
 Alpha virt. eigenvalues --    2.88226   3.01639   3.03209   3.03627   3.26217
 Alpha virt. eigenvalues --    3.33128   3.43723   3.46332   3.55352   3.65596
 Alpha virt. eigenvalues --    3.83347   3.83595   3.84259   3.90324   3.93139
 Alpha virt. eigenvalues --    3.97670   4.02255   4.06828   4.08814   4.76816
 Alpha virt. eigenvalues --    6.34194   6.45471   6.46888   9.67568  23.46812
 Alpha virt. eigenvalues --   23.85236  23.87379  23.97220  24.05557  24.12546
 Alpha virt. eigenvalues --   25.85084  25.86113  26.05454  66.78695 215.65273
  Beta  occ. eigenvalues -- -101.53979 -24.65074 -10.32248 -10.24557 -10.24140
  Beta  occ. eigenvalues --  -10.24138 -10.24010 -10.24008  -9.45177  -7.21121
  Beta  occ. eigenvalues --   -7.20748  -7.20743  -1.10195  -0.92254  -0.81393
  Beta  occ. eigenvalues --   -0.80558  -0.75817  -0.66500  -0.65469  -0.57243
  Beta  occ. eigenvalues --   -0.51768  -0.50539  -0.48585  -0.45707  -0.43184
  Beta  occ. eigenvalues --   -0.40783  -0.40160  -0.37246  -0.36803  -0.32248
  Beta  occ. eigenvalues --   -0.32197  -0.30217  -0.29703
  Beta virt. eigenvalues --   -0.20244  -0.12034  -0.06098  -0.06053  -0.01013
  Beta virt. eigenvalues --    0.00761   0.01809   0.03771   0.03775   0.04301
  Beta virt. eigenvalues --    0.05319   0.07239   0.07254   0.08044   0.08777
  Beta virt. eigenvalues --    0.09041   0.10674   0.10675   0.11314   0.12307
  Beta virt. eigenvalues --    0.12787   0.13293   0.13875   0.15101   0.15248
  Beta virt. eigenvalues --    0.16639   0.17230   0.18022   0.18086   0.18838
  Beta virt. eigenvalues --    0.19255   0.19618   0.20296   0.21572   0.22569
  Beta virt. eigenvalues --    0.23477   0.25556   0.26566   0.27000   0.27886
  Beta virt. eigenvalues --    0.29543   0.29664   0.32260   0.34128   0.39073
  Beta virt. eigenvalues --    0.39885   0.43803   0.44131   0.45495   0.47119
  Beta virt. eigenvalues --    0.47256   0.47706   0.50416   0.50797   0.51289
  Beta virt. eigenvalues --    0.51870   0.54306   0.54863   0.55927   0.59195
  Beta virt. eigenvalues --    0.59824   0.61475   0.63026   0.65550   0.66824
  Beta virt. eigenvalues --    0.67371   0.69051   0.70102   0.71119   0.75902
  Beta virt. eigenvalues --    0.77992   0.78659   0.80648   0.80911   0.81368
  Beta virt. eigenvalues --    0.86129   0.86266   0.88909   0.90225   0.90369
  Beta virt. eigenvalues --    0.91214   0.92776   0.95573   0.96492   1.01110
  Beta virt. eigenvalues --    1.03123   1.03200   1.07079   1.08938   1.13441
  Beta virt. eigenvalues --    1.19496   1.22896   1.28730   1.39379   1.41405
  Beta virt. eigenvalues --    1.41731   1.44670   1.45860   1.50723   1.51897
  Beta virt. eigenvalues --    1.52813   1.56549   1.58474   1.60302   1.61177
  Beta virt. eigenvalues --    1.65331   1.69355   1.71122   1.72623   1.75274
  Beta virt. eigenvalues --    1.77434   1.85416   1.86296   1.87787   1.88102
  Beta virt. eigenvalues --    1.91475   1.92448   1.93302   1.97580   1.98494
  Beta virt. eigenvalues --    2.03774   2.07660   2.21728   2.24893   2.27853
  Beta virt. eigenvalues --    2.28542   2.30437   2.34162   2.35120   2.38996
  Beta virt. eigenvalues --    2.41063   2.45596   2.57040   2.58951   2.59307
  Beta virt. eigenvalues --    2.65233   2.67257   2.69055   2.70743   2.72505
  Beta virt. eigenvalues --    2.73021   2.74117   2.78304   2.80565   2.84726
  Beta virt. eigenvalues --    2.88271   2.88335   3.02144   3.03456   3.03761
  Beta virt. eigenvalues --    3.26394   3.33244   3.43803   3.46521   3.55449
  Beta virt. eigenvalues --    3.65633   3.83291   3.83649   3.84317   3.90210
  Beta virt. eigenvalues --    3.93242   3.97854   4.02232   4.06959   4.09062
  Beta virt. eigenvalues --    4.77120   6.34264   6.45457   6.46728   9.68545
  Beta virt. eigenvalues --   23.46950  23.85478  23.87454  23.97321  24.05602
  Beta virt. eigenvalues --   24.12619  25.85528  25.86548  26.07642  66.78679
  Beta virt. eigenvalues --  215.65751
          Condensed to atoms (all electrons):
              1          2          3          4          5          6
     1  C    8.032676  -1.553197   0.867185  -1.003616   0.867213  -1.553147
     2  C   -1.553197   7.399927  -1.732135   1.281111  -1.262961   1.674928
     3  C    0.867185  -1.732135   9.950493  -1.577225  -0.514563  -1.262939
     4  C   -1.003616   1.281111  -1.577225   7.309316  -1.577384   1.281109
     5  C    0.867213  -1.262961  -0.514563  -1.577384   9.950617  -1.732122
     6  C   -1.553147   1.674928  -1.262939   1.281109  -1.732122   7.399836
     7  H   -0.004387  -0.006200   0.003737  -0.006276  -0.015141   0.390453
     8  H    0.004742  -0.000641  -0.001625  -0.014407   0.395354  -0.023513
     9  F   -0.018915   0.031414  -0.207544   0.530420  -0.207542   0.031409
    10  H    0.004746  -0.023523   0.395362  -0.014409  -0.001624  -0.000641
    11  H   -0.004386   0.390450  -0.015142  -0.006275   0.003736  -0.006200
    12  H    0.421997  -0.036520   0.008922  -0.002741   0.008924  -0.036528
    13  Cl  -0.287904   0.081766   0.062623  -0.021088   0.062649   0.081746
              7          8          9         10         11         12
     1  C   -0.004387   0.004742  -0.018915   0.004746  -0.004386   0.421997
     2  C   -0.006200  -0.000641   0.031414  -0.023523   0.390450  -0.036520
     3  C    0.003737  -0.001625  -0.207544   0.395362  -0.015142   0.008922
     4  C   -0.006276  -0.014407   0.530420  -0.014409  -0.006275  -0.002741
     5  C   -0.015141   0.395354  -0.207542  -0.001624   0.003736   0.008924
     6  C    0.390453  -0.023513   0.031409  -0.000641  -0.006200  -0.036528
     7  H    0.489092  -0.007943  -0.000036   0.000025  -0.000168  -0.006683
     8  H   -0.007943   0.476680  -0.001111  -0.000169   0.000025  -0.000173
     9  F   -0.000036  -0.001111   9.145322  -0.001111  -0.000036   0.000021
    10  H    0.000025  -0.000169  -0.001111   0.476681  -0.007944  -0.000173
    11  H   -0.000168   0.000025  -0.000036  -0.007944   0.489100  -0.006683
    12  H   -0.006683  -0.000173   0.000021  -0.000173  -0.006683   0.464751
    13  Cl  -0.001208  -0.001047   0.000118  -0.001047  -0.001209  -0.022400
             13
     1  C   -0.287904
     2  C    0.081766
     3  C    0.062623
     4  C   -0.021088
     5  C    0.062649
     6  C    0.081746
     7  H   -0.001208
     8  H   -0.001047
     9  F    0.000118
    10  H   -0.001047
    11  H   -0.001209
    12  H   -0.022400
    13  Cl  17.234349
 Mulliken atomic charges:
              1
     1  C    0.226993
     2  C   -0.244418
     3  C    0.022852
     4  C   -0.178536
     5  C    0.022844
     6  C   -0.244391
     7  H    0.164737
     8  H    0.173829
     9  F   -0.302409
    10  H    0.173828
    11  H    0.164733
    12  H    0.207287
    13  Cl  -0.187348
 Sum of Mulliken charges=   0.00000
 Atomic charges with hydrogens summed into heavy atoms:
              1
     1  C    0.434280
     2  C   -0.079685
     3  C    0.196680
     4  C   -0.178536
     5  C    0.196672
     6  C   -0.079654
     7  H    0.000000
     8  H    0.000000
     9  F   -0.302409
    10  H    0.000000
    11  H    0.000000
    12  H    0.000000
    13  Cl  -0.187348
 Sum of Mulliken charges=   0.00000
          Atomic-Atomic Spin Densities.
              1          2          3          4          5          6
     1  C    0.117055  -0.224123   0.222735  -0.147537   0.222720  -0.224158
     2  C   -0.224123   0.434912  -0.206263   0.117813  -0.153075   0.240642
     3  C    0.222735  -0.206263   0.036540  -0.078468   0.088750  -0.153091
     4  C   -0.147537   0.117813  -0.078468   0.255898  -0.078470   0.117815
     5  C    0.222720  -0.153075   0.088750  -0.078470   0.036500  -0.206235
     6  C   -0.224158   0.240642  -0.153091   0.117815  -0.206235   0.434972
     7  H    0.006566  -0.001554  -0.000100  -0.000723   0.001706  -0.004946
     8  H    0.000630  -0.000161   0.000055   0.000012   0.000108  -0.000340
     9  F   -0.000140  -0.000192   0.000360  -0.004895   0.000360  -0.000191
    10  H    0.000630  -0.000340   0.000109   0.000012   0.000056  -0.000161
    11  H    0.006566  -0.004945   0.001705  -0.000722  -0.000100  -0.001553
    12  H    0.011592   0.002318  -0.004074   0.001424  -0.004074   0.002320
    13  Cl   0.044071  -0.079923   0.023372  -0.012233   0.023372  -0.079938
              7          8          9         10         11         12
     1  C    0.006566   0.000630  -0.000140   0.000630   0.006566   0.011592
     2  C   -0.001554  -0.000161  -0.000192  -0.000340  -0.004945   0.002318
     3  C   -0.000100   0.000055   0.000360   0.000109   0.001705  -0.004074
     4  C   -0.000723   0.000012  -0.004895   0.000012  -0.000722   0.001424
     5  C    0.001706   0.000108   0.000360   0.000056  -0.000100  -0.004074
     6  C   -0.004946  -0.000340  -0.000191  -0.000161  -0.001553   0.002320
     7  H   -0.008186   0.000075   0.000001  -0.000002   0.000005  -0.000323
     8  H    0.000075   0.002941  -0.000006  -0.000001  -0.000002   0.000000
     9  F    0.000001  -0.000006  -0.004748  -0.000006   0.000001   0.000000
    10  H   -0.000002  -0.000001  -0.000006   0.002940   0.000075   0.000000
    11  H    0.000005  -0.000002   0.000001   0.000075  -0.008185  -0.000323
    12  H   -0.000323   0.000000   0.000000   0.000000  -0.000323   0.008504
    13  Cl   0.000545  -0.000092  -0.000012  -0.000092   0.000545  -0.012172
             13
     1  C    0.044071
     2  C   -0.079923
     3  C    0.023372
     4  C   -0.012233
     5  C    0.023372
     6  C   -0.079938
     7  H    0.000545
     8  H   -0.000092
     9  F   -0.000012
    10  H   -0.000092
    11  H    0.000545
    12  H   -0.012172
    13  Cl   0.784228
 Mulliken atomic spin densities:
              1
     1  C    0.036608
     2  C    0.125110
     3  C   -0.068369
     4  C    0.169925
     5  C   -0.068383
     6  C    0.125137
     7  H   -0.006933
     8  H    0.003220
     9  F   -0.009465
    10  H    0.003220
    11  H   -0.006932
    12  H    0.005191
    13  Cl   0.691671
 Sum of Mulliken spin densities=   1.00000
 Electronic spatial extent (au):  <R**2>=  1368.6106
 Charge=     0.0000 electrons
 Dipole moment (field-independent basis, Debye):
    X=    -1.3929    Y=     0.0009    Z=     3.6566  Tot=     3.9129
 Quadrupole moment (field-independent basis, Debye-Ang):
   XX=   -72.4730   YY=   -44.4684   ZZ=   -55.1573
   XY=     0.0005   XZ=    -0.5741   YZ=    -0.0021
 Traceless Quadrupole moment (field-independent basis, Debye-Ang):
   XX=   -15.1068   YY=    12.8978   ZZ=     2.2090
   XY=     0.0005   XZ=    -0.5741   YZ=    -0.0021
 Octapole moment (field-independent basis, Debye-Ang**2):
  XXX=   -26.8456  YYY=     0.0013  ZZZ=    -7.0254  XYY=     9.8430
  XXY=     0.0054  XXZ=    17.0642  XZZ=    -5.9940  YZZ=    -0.0022
  YYZ=     2.1289  XYZ=    -0.0037
 Hexadecapole moment (field-independent basis, Debye-Ang**3):
 XXXX= -1367.3786 YYYY=  -262.1188 ZZZZ=  -254.3510 XXXY=     0.0103
 XXXZ=    26.7246 YYYX=    -0.0087 YYYZ=    -0.0087 ZZZX=   -14.9046
 ZZZY=    -0.0002 XXYY=  -232.7049 XXZZ=  -236.5073 YYZZ=   -93.9386
 XXYZ=    -0.0038 YYXZ=   -13.0573 ZZXY=     0.0020
 N-N= 3.773773301181D+02 E-N=-2.623774956593D+03  KE= 7.888697109282D+02
                          Isotropic Fermi Contact Couplings
        Atom                 a.u.       MegaHertz       Gauss      10(-4) cm-1
     1  C(13)              0.02305      25.91179       9.24597       8.64324
     2  C(13)              0.00737       8.28727       2.95710       2.76434
     3  C(13)             -0.00928     -10.43005      -3.72170      -3.47909
     4  C(13)              0.02042      22.95458       8.19077       7.65682
     5  C(13)             -0.00928     -10.43191      -3.72236      -3.47971
     6  C(13)              0.00738       8.29152       2.95862       2.76575
     7  H(1)              -0.00191      -8.53305      -3.04481      -2.84632
     8  H(1)               0.00083       3.70602       1.32240       1.23620
     9  F(19)              0.00453      19.07695       6.80713       6.36339
    10  H(1)               0.00083       3.70517       1.32210       1.23591
    11  H(1)              -0.00191      -8.53134      -3.04419      -2.84575
    12  H(1)               0.00327      14.60452       5.21126       4.87154
    13  Cl(35)             0.04740      20.78455       7.41645       6.93298
 --------------------------------------------------------
       Center         ----  Spin Dipole Couplings  ----
                      3XX-RR        3YY-RR        3ZZ-RR
 --------------------------------------------------------
     1   Atom        0.018590     -0.044891      0.026301
     2   Atom       -0.030336     -0.072692      0.103028
     3   Atom        0.018174      0.029825     -0.047999
     4   Atom       -0.035916     -0.108762      0.144678
     5   Atom        0.018180      0.029831     -0.048012
     6   Atom       -0.030339     -0.072716      0.103055
     7   Atom       -0.006128      0.009241     -0.003113
     8   Atom        0.001929      0.000449     -0.002378
     9   Atom       -0.067678      0.013668      0.054010
    10   Atom        0.001927      0.000452     -0.002379
    11   Atom       -0.006129      0.009247     -0.003118
    12   Atom       -0.003167     -0.010495      0.013662
    13   Atom        1.150276     -2.204460      1.054184
 --------------------------------------------------------
                        XY            XZ            YZ
 --------------------------------------------------------
     1   Atom        0.000017      0.074784      0.000018
     2   Atom        0.005585      0.095990      0.006661
     3   Atom       -0.000530     -0.037899      0.000954
     4   Atom        0.000020      0.107141      0.000049
     5   Atom        0.000515     -0.037907     -0.000983
     6   Atom       -0.005552      0.096019     -0.006602
     7   Atom        0.004584      0.003811     -0.006280
     8   Atom        0.000815     -0.001157     -0.001113
     9   Atom        0.000021      0.090794      0.000005
    10   Atom       -0.000815     -0.001156      0.001111
    11   Atom       -0.004580      0.003813      0.006273
    12   Atom       -0.000002     -0.006857      0.000007
    13   Atom        0.000724      3.318858      0.000712
 --------------------------------------------------------


 ---------------------------------------------------------------------------------
              Anisotropic Spin Dipole Couplings in Principal Axis System
 ---------------------------------------------------------------------------------

       Atom             a.u.   MegaHertz   Gauss  10(-4) cm-1        Axes

              Baa    -0.0524    -7.037    -2.511    -2.347  0.7251  0.0000 -0.6887
     1 C(13)  Bbb    -0.0449    -6.024    -2.149    -2.009 -0.0002  1.0000 -0.0001
              Bcc     0.0973    13.061     4.660     4.357  0.6887  0.0002  0.7251
 
              Baa    -0.0810   -10.865    -3.877    -3.624  0.8667 -0.2276 -0.4439
     2 C(13)  Bbb    -0.0726    -9.739    -3.475    -3.249  0.1849  0.9730 -0.1380
              Bcc     0.1535    20.604     7.352     6.873  0.4633  0.0375  0.8854
 
              Baa    -0.0652    -8.753    -3.123    -2.920  0.4137 -0.0068  0.9104
     3 C(13)  Bbb     0.0297     3.985     1.422     1.329  0.1412  0.9884 -0.0567
              Bcc     0.0355     4.768     1.701     1.590  0.8994 -0.1520 -0.4098
 
              Baa    -0.1088   -14.595    -5.208    -4.868  0.0000  1.0000 -0.0002
     4 C(13)  Bbb    -0.0857   -11.505    -4.105    -3.838  0.9068 -0.0001 -0.4216
              Bcc     0.1945    26.100     9.313     8.706  0.4216  0.0002  0.9068
 
              Baa    -0.0652    -8.755    -3.124    -2.920  0.4136  0.0072  0.9104
     5 C(13)  Bbb     0.0297     3.986     1.422     1.329 -0.1411  0.9884  0.0563
              Bcc     0.0355     4.769     1.702     1.591  0.8994  0.1517 -0.4099
 
              Baa    -0.0810   -10.868    -3.878    -3.625  0.8667  0.2274 -0.4440
     6 C(13)  Bbb    -0.0726    -9.742    -3.476    -3.249 -0.1848  0.9731  0.1376
              Bcc     0.1536    20.609     7.354     6.875  0.4634 -0.0372  0.8854
 
              Baa    -0.0114    -6.082    -2.170    -2.029  0.7277 -0.3425 -0.5943
     7 H(1)   Bbb    -0.0009    -0.493    -0.176    -0.164  0.6668  0.1502  0.7299
              Bcc     0.0123     6.574     2.346     2.193  0.1607  0.9274 -0.3377
 
              Baa    -0.0029    -1.556    -0.555    -0.519  0.1807  0.2690  0.9460
     8 H(1)   Bbb     0.0002     0.091     0.033     0.031 -0.4951  0.8560 -0.1488
              Bcc     0.0027     1.464     0.522     0.488  0.8499  0.4414 -0.2879
 
              Baa    -0.1161   -58.323   -20.811   -19.455  0.8822 -0.0001 -0.4708
     9 F(19)  Bbb     0.0137     6.865     2.449     2.290  0.0000  1.0000 -0.0002
              Bcc     0.1025    51.459    18.362    17.165  0.4708  0.0002  0.8822
 
              Baa    -0.0029    -1.556    -0.555    -0.519  0.1807 -0.2685  0.9462
    10 H(1)   Bbb     0.0002     0.092     0.033     0.031  0.4954  0.8559  0.1483
              Bcc     0.0027     1.464     0.522     0.488  0.8497 -0.4420 -0.2877
 
              Baa    -0.0114    -6.080    -2.170    -2.028  0.7277  0.3421 -0.5944
    11 H(1)   Bbb    -0.0009    -0.493    -0.176    -0.164  0.6668 -0.1500  0.7300
              Bcc     0.0123     6.573     2.346     2.193 -0.1606  0.9276  0.3372
 
              Baa    -0.0105    -5.600    -1.998    -1.868  0.0000  1.0000 -0.0003
    12 H(1)   Bbb    -0.0056    -2.992    -1.067    -0.998  0.9421  0.0001  0.3353
              Bcc     0.0161     8.591     3.066     2.866 -0.3353  0.0003  0.9421
 
              Baa    -2.2170  -116.031   -41.403   -38.704 -0.7020  0.0001  0.7122
    13 Cl(35) Bbb    -2.2045  -115.376   -41.169   -38.485  0.0000  1.0000 -0.0002
              Bcc     4.4214   231.408    82.572    77.189  0.7122  0.0002  0.7020
 

 ---------------------------------------------------------------------------------

 No NMR shielding tensors so no spin-rotation constants.
 Leave Link  601 at Sun Sep  3 10:08:11 2006, MaxMem=    6291456 cpu:       2.3
 (Enter /usr/local/Gaussian/g03/l701.exe)
 Compute integral first derivatives.
 ... and contract with generalized density number  0.
 Leave Link  701 at Sun Sep  3 10:08:16 2006, MaxMem=    6291456 cpu:       1.1
 (Enter /usr/local/Gaussian/g03/l702.exe)
 L702 exits ... SP integral derivatives will be done elsewhere.
 Leave Link  702 at Sun Sep  3 10:08:17 2006, MaxMem=    6291456 cpu:       0.0
 (Enter /usr/local/Gaussian/g03/l703.exe)
 Compute integral first derivatives, UseDBF=F.
 Integral derivatives from FoFDir, PRISM(SPDF).
 Symmetry not used in FoFDir.
 MinBra= 0 MaxBra= 2 Meth= 1.
 IRaf=       0 NMat=   1 IRICut=       1 DoRegI=T DoRafI=F ISym2E= 0 JSym2E=0.
 Leave Link  703 at Sun Sep  3 10:38:05 2006, MaxMem=    6291456 cpu:     503.1
 (Enter /usr/local/Gaussian/g03/l716.exe)
 Dipole        =-5.47990593D-01 3.72915753D-04 1.43860913D+00
 ***** Axes restored to original set *****
 -------------------------------------------------------------------
 Center     Atomic                   Forces (Hartrees/Bohr)
 Number     Number              X              Y              Z
 -------------------------------------------------------------------
    1          6          -0.000140384   -0.000949868   -0.000070366
    2          6          -0.003061036   -0.000002685   -0.008356051
    3          6           0.031238009    0.000246416    0.020516756
    4          6           0.025280805    0.000254246    0.014745061
    5          6           0.033223124    0.000199082    0.017095213
    6          6          -0.008771820    0.000135602    0.001449793
    7          1           0.001790939   -0.000017000    0.000124902
    8          1           0.000910616   -0.000008386   -0.000187702
    9          9          -0.081587469   -0.000289410   -0.047602583
   10          1           0.000284955    0.000007265    0.000884838
   11          1           0.000989165    0.000002653    0.001497121
   12          1          -0.000193636    0.000167381   -0.000115181
   13         17           0.000036732    0.000254704    0.000018199
 -------------------------------------------------------------------
 Cartesian Forces:  Max     0.081587469 RMS     0.018073625
 Leave Link  716 at Sun Sep  3 10:38:07 2006, MaxMem=    6291456 cpu:       0.0
 (Enter /usr/local/Gaussian/g03/l103.exe)

 GradGradGradGradGradGradGradGradGradGradGradGradGradGradGradGradGradGrad
 Berny optimization.
 Internal  Forces:  Max     0.094459059 RMS     0.012451647
 Search for a local minimum.
 Step number   1 out of a maximum of  87
 All quantities printed in internal units (Hartrees-Bohrs-Radians)
 Second derivative matrix not updated -- first step.
     Eigenvalues ---    0.02037   0.02124   0.02136   0.02189   0.02229
     Eigenvalues ---    0.02264   0.02277   0.02904   0.03148   0.03253
     Eigenvalues ---    0.03570   0.06716   0.09401   0.11078   0.11531
     Eigenvalues ---    0.12597   0.15750   0.16000   0.16000   0.18047
     Eigenvalues ---    0.22890   0.25000   0.32455   0.34449   0.35688
     Eigenvalues ---    0.35688   0.35795   0.35795   0.38837   0.43041
     Eigenvalues ---    0.44135   0.46973   0.489391000.000001000.00000
     Eigenvalues --- 1000.000001000.000001000.000001000.000001000.00000
     Eigenvalues --- 1000.000001000.000001000.000001000.000001000.00000
     Eigenvalues --- 1000.000001000.000001000.000001000.000001000.00000
     Eigenvalues --- 1000.000001000.000001000.000001000.000001000.00000
     Eigenvalues --- 1000.000001000.000001000.000001000.000001000.00000
     Eigenvalues --- 1000.000001000.000001000.000001000.000001000.00000
     Eigenvalues --- 1000.000001000.000001000.000001000.000001000.00000
     Eigenvalues --- 1000.000001000.000001000.000001000.000001000.00000
     Eigenvalues --- 1000.000001000.00000
 RFO step:  Lambda=-6.07002283D-02.
 Linear search not attempted -- first point.
 Maximum step size (   0.300) exceeded in Quadratic search.
    -- Step size scaled by   0.522
 Iteration  1 RMS(Cart)=  0.03022027 RMS(Int)=  0.01001167
 Iteration  2 RMS(Cart)=  0.00962860 RMS(Int)=  0.00006815
 Iteration  3 RMS(Cart)=  0.00000188 RMS(Int)=  0.00006813
 Iteration  4 RMS(Cart)=  0.00000000 RMS(Int)=  0.00006813
 Variable       Old X    -DE/DX   Delta X   Delta X   Delta X     New X
                                 (Linear)    (Quad)   (Total)
    R1        2.66094   0.00228   0.00000   0.00387   0.00371   2.66465
    R2        2.66094   0.00228   0.00000   0.00387   0.00371   2.66465
    R3        2.04227   0.00043   0.00000   0.00029   0.00031   2.04258
    R4        4.88417  -0.00022   0.00000   0.00104   0.00106   4.88524
    R5        2.60950   0.00544   0.00000   0.00517   0.00517   2.61467
    R6        2.04572  -0.00012   0.00000  -0.00015  -0.00015   2.04557
    R7        5.87021   0.00028   0.00000   0.00067   0.00065   5.87086
    R8        2.63893  -0.02073   0.00000  -0.02180  -0.02164   2.61729
    R9        2.04404   0.00089   0.00000   0.00111   0.00111   2.04514
   R10        2.63893  -0.02074   0.00000  -0.02180  -0.02164   2.61729
   R11        3.58650  -0.09446   0.00000  -0.28779  -0.28779   3.29871
   R12        2.60953   0.00543   0.00000   0.00516   0.00516   2.61469
   R13        2.04404   0.00089   0.00000   0.00111   0.00111   2.04514
   R14        2.04572  -0.00012   0.00000  -0.00015  -0.00015   2.04557
   R15        5.86992   0.00028   0.00000   0.00068   0.00066   5.87057
   R16        5.03351   0.00038   0.00000   0.00022   0.00025   5.03376
    A1        2.08497   0.00055   0.00000   0.00470   0.00447   2.08944
    A2        2.09366  -0.00024   0.00000  -0.00220  -0.00209   2.09157
    A3        2.09365  -0.00024   0.00000  -0.00219  -0.00209   2.09157
    A4        2.10154  -0.00059   0.00000   0.00017   0.00011   2.10166
    A5        2.08691   0.00120   0.00000   0.00343   0.00341   2.09032
    A6        2.09465  -0.00061   0.00000  -0.00360  -0.00353   2.09112
    A7        2.02213  -0.00052   0.00000   0.00022   0.00015   2.02228
    A8        1.68962   0.00097   0.00000   0.00147   0.00148   1.69110
    A9        2.07689  -0.01496   0.00000  -0.02747  -0.02741   2.04948
   A10        2.10914   0.00776   0.00000   0.01441   0.01438   2.12352
   A11        2.09715   0.00720   0.00000   0.01306   0.01303   2.11018
   A12        2.12428   0.03055   0.00000   0.04993   0.05013   2.17442
   A13        2.07944  -0.01527   0.00000  -0.02496  -0.02507   2.05438
   A14        2.07946  -0.01528   0.00000  -0.02496  -0.02507   2.05439
   A15        2.07687  -0.01496   0.00000  -0.02746  -0.02740   2.04947
   A16        2.09717   0.00719   0.00000   0.01306   0.01303   2.11019
   A17        2.10914   0.00776   0.00000   0.01441   0.01437   2.12352
   A18        2.10155  -0.00059   0.00000   0.00017   0.00011   2.10166
   A19        2.08690   0.00120   0.00000   0.00343   0.00341   2.09031
   A20        2.09465  -0.00061   0.00000  -0.00360  -0.00353   2.09112
   A21        2.02216  -0.00052   0.00000   0.00022   0.00015   2.02231
   A22        1.68951   0.00097   0.00000   0.00147   0.00149   1.69099
   A23        0.80453   0.00082   0.00000   0.00231   0.00220   0.80673
   A24        0.75304   0.00039   0.00000   0.00016   0.00016   0.75320
   A25        0.75308   0.00039   0.00000   0.00016   0.00016   0.75324
    D1        0.02442  -0.00015   0.00000  -0.00105  -0.00103   0.02340
    D2       -3.13135  -0.00019   0.00000  -0.00121  -0.00119  -3.13254
    D3        3.00783   0.00032   0.00000   0.00097   0.00098   3.00881
    D4       -0.14794   0.00028   0.00000   0.00081   0.00082  -0.14713
    D5       -0.02442   0.00015   0.00000   0.00105   0.00102  -0.02339
    D6        3.13136   0.00019   0.00000   0.00121   0.00119   3.13254
    D7       -3.00783  -0.00032   0.00000  -0.00097  -0.00098  -3.00881
    D8        0.14795  -0.00028   0.00000  -0.00081  -0.00082   0.14713
    D9       -0.01167  -0.00002   0.00000   0.00027   0.00026  -0.01141
   D10        3.12909  -0.00002   0.00000   0.00060   0.00059   3.12968
   D11       -3.13902  -0.00001   0.00000   0.00037   0.00037  -3.13865
   D12        0.00174  -0.00001   0.00000   0.00070   0.00070   0.00244
   D13       -1.12136   0.00041   0.00000  -0.00030  -0.00027  -1.12163
   D14        2.01940   0.00041   0.00000   0.00004   0.00006   2.01946
   D15        1.36621  -0.00035   0.00000   0.00230   0.00216   1.36837
   D16        2.46589  -0.00054   0.00000   0.00083   0.00077   2.46666
   D17       -2.68037  -0.00070   0.00000  -0.00097  -0.00105  -2.68142
   D18       -1.58069  -0.00088   0.00000  -0.00244  -0.00244  -1.58314
   D19       -0.00132   0.00018   0.00000   0.00058   0.00058  -0.00074
   D20        3.14135   0.00021   0.00000   0.00149   0.00149  -3.14034
   D21        3.14110   0.00018   0.00000   0.00025   0.00025   3.14136
   D22        0.00058   0.00021   0.00000   0.00116   0.00116   0.00175
   D23        0.00132  -0.00019   0.00000  -0.00058  -0.00058   0.00074
   D24       -3.14111  -0.00018   0.00000  -0.00025  -0.00025  -3.14137
   D25       -3.14134  -0.00021   0.00000  -0.00149  -0.00149   3.14035
   D26       -0.00060  -0.00021   0.00000  -0.00116  -0.00116  -0.00176
   D27        0.01166   0.00002   0.00000  -0.00027  -0.00026   0.01140
   D28        3.13901   0.00001   0.00000  -0.00037  -0.00037   3.13864
   D29        1.12148  -0.00041   0.00000   0.00030   0.00027   1.12175
   D30       -3.12908   0.00002   0.00000  -0.00060  -0.00059  -3.12967
   D31       -0.00173   0.00001   0.00000  -0.00070  -0.00070  -0.00243
   D32       -2.01927  -0.00041   0.00000  -0.00004  -0.00006  -2.01933
   D33       -1.36627   0.00035   0.00000  -0.00230  -0.00216  -1.36843
   D34       -2.46588   0.00054   0.00000  -0.00084  -0.00077  -2.46665
   D35        2.68037   0.00070   0.00000   0.00097   0.00105   2.68142
   D36        1.58076   0.00088   0.00000   0.00244   0.00245   1.58320
         Item               Value     Threshold  Converged?
 Maximum Force            0.094459     0.000450     NO 
 RMS     Force            0.012452     0.000300     NO 
 Maximum Displacement     0.280365     0.001800     NO 
 RMS     Displacement     0.039522     0.001200     NO 
 Predicted change in Energy=-2.616086D-02
 GradGradGradGradGradGradGradGradGradGradGradGradGradGradGradGradGradGrad

 Leave Link  103 at Sun Sep  3 10:38:12 2006, MaxMem=    6291456 cpu:       0.4
 (Enter /usr/local/Gaussian/g03/l202.exe)
                          Input orientation:                          
 ---------------------------------------------------------------------
 Center     Atomic     Atomic              Coordinates (Angstroms)
 Number     Number      Type              X           Y           Z
[...]
 Second derivative matrix not updated -- analytic derivatives used.
     Eigenvalues ---    0.00287   0.00512   0.00836   0.01220   0.01386
     Eigenvalues ---    0.01440   0.01659   0.01806   0.02035   0.02115
     Eigenvalues ---    0.02218   0.03288   0.04952   0.06554   0.08398
     Eigenvalues ---    0.10414   0.11190   0.13248   0.14002   0.18492
     Eigenvalues ---    0.21241   0.27712   0.28591   0.32357   0.35779
     Eigenvalues ---    0.36163   0.36195   0.36229   0.37801   0.38548
     Eigenvalues ---    0.40928   0.45973   0.508971000.000001000.00000
     Eigenvalues --- 1000.000001000.000001000.000001000.000001000.00000
     Eigenvalues --- 1000.000001000.000001000.000001000.000001000.00000
     Eigenvalues --- 1000.000001000.000001000.000001000.000001000.00000
     Eigenvalues --- 1000.000001000.000001000.000001000.000001000.00000
     Eigenvalues --- 1000.000001000.000001000.000001000.000001000.00000
     Eigenvalues --- 1000.000001000.000001000.000001000.000001000.00000
     Eigenvalues --- 1000.000001000.000001000.000001000.000001000.00000
     Eigenvalues --- 1000.000001000.000001000.000001000.000001000.00000
     Eigenvalues --- 1000.000001000.00000
 Angle between quadratic step and forces=  52.36 degrees.
 Linear search not attempted -- first point.
 Iteration  1 RMS(Cart)=  0.00139624 RMS(Int)=  0.00000241
 Iteration  2 RMS(Cart)=  0.00000174 RMS(Int)=  0.00000081
 Iteration  3 RMS(Cart)=  0.00000000 RMS(Int)=  0.00000081
 Variable       Old X    -DE/DX   Delta X   Delta X   Delta X     New X
                                 (Linear)    (Quad)   (Total)
    R1        2.66913   0.00000   0.00000   0.00014   0.00014   2.66926
    R2        2.66913   0.00000   0.00000   0.00014   0.00014   2.66926
    R3        2.04219   0.00001   0.00000  -0.00002  -0.00002   2.04217
    R4        4.86932  -0.00003   0.00000  -0.00630  -0.00630   4.86302
    R5        2.61424   0.00003   0.00000   0.00000   0.00000   2.61424
    R6        2.04577   0.00001   0.00000   0.00001   0.00001   2.04577
    R7        5.86167  -0.00001   0.00000  -0.00278  -0.00278   5.85888
    R8        2.63250   0.00002   0.00000   0.00009   0.00009   2.63259
    R9        2.04551  -0.00002   0.00000  -0.00007  -0.00007   2.04544
   R10        2.63250   0.00002   0.00000   0.00009   0.00009   2.63259
   R11        2.54130  -0.00001   0.00000  -0.00001  -0.00001   2.54129
   R12        2.61425   0.00003   0.00000   0.00000   0.00000   2.61424
   R13        2.04551  -0.00002   0.00000  -0.00007  -0.00007   2.04544
   R14        2.04576   0.00001   0.00000   0.00001   0.00001   2.04577
   R15        5.86150  -0.00001   0.00000  -0.00260  -0.00260   5.85890
   R16        5.03159  -0.00004   0.00000  -0.00752  -0.00752   5.02407
    A1        2.08745   0.00002   0.00000   0.00006   0.00006   2.08751
    A2        2.09189  -0.00001   0.00000  -0.00018  -0.00018   2.09171
    A3        2.09189  -0.00001   0.00000  -0.00018  -0.00018   2.09171
    A4        2.10088  -0.00001   0.00000  -0.00001  -0.00001   2.10086
    A5        2.08568  -0.00002   0.00000  -0.00037  -0.00038   2.08531
    A6        2.09651   0.00002   0.00000   0.00039   0.00039   2.09690
    A7        2.02054   0.00003   0.00000   0.00260   0.00260   2.02314
    A8        1.69049  -0.00003   0.00000  -0.00146  -0.00146   1.68903
    A9        2.06367  -0.00002   0.00000  -0.00010  -0.00010   2.06357
   A10        2.13171  -0.00001   0.00000  -0.00008  -0.00008   2.13163
   A11        2.08780   0.00003   0.00000   0.00018   0.00018   2.08798
   A12        2.14949   0.00002   0.00000   0.00017   0.00017   2.14966
   A13        2.06685  -0.00001   0.00000  -0.00009  -0.00009   2.06676
   A14        2.06685  -0.00001   0.00000  -0.00009  -0.00009   2.06676
   A15        2.06367  -0.00002   0.00000  -0.00010  -0.00010   2.06357
   A16        2.08780   0.00003   0.00000   0.00018   0.00018   2.08798
   A17        2.13171  -0.00001   0.00000  -0.00008  -0.00008   2.13163
   A18        2.10088  -0.00001   0.00000  -0.00002  -0.00002   2.10086
   A19        2.08568  -0.00002   0.00000  -0.00037  -0.00037   2.08531
   A20        2.09651   0.00002   0.00000   0.00039   0.00039   2.09690
   A21        2.02055   0.00003   0.00000   0.00259   0.00259   2.02314
   A22        1.69042  -0.00003   0.00000  -0.00138  -0.00138   1.68904
   A23        0.80900   0.00001   0.00000   0.00045   0.00045   0.80945
   A24        0.75511   0.00000   0.00000   0.00057   0.00057   0.75568
   A25        0.75513   0.00000   0.00000   0.00055   0.00055   0.75568
    D1        0.02797  -0.00001   0.00000  -0.00036  -0.00036   0.02761
    D2       -3.12998  -0.00001   0.00000  -0.00045  -0.00045  -3.13042
    D3        3.00381  -0.00002   0.00000  -0.00240  -0.00240   3.00141
    D4       -0.15414  -0.00002   0.00000  -0.00248  -0.00248  -0.15663
    D5       -0.02797   0.00001   0.00000   0.00036   0.00036  -0.02761
    D6        3.12999   0.00001   0.00000   0.00044   0.00043   3.13042
    D7       -3.00381   0.00002   0.00000   0.00240   0.00240  -3.00141
    D8        0.15415   0.00002   0.00000   0.00247   0.00247   0.15663
    D9       -0.01332   0.00000   0.00000   0.00011   0.00011  -0.01321
   D10        3.12595   0.00000   0.00000  -0.00005  -0.00005   3.12590
   D11       -3.13845   0.00000   0.00000   0.00021   0.00021  -3.13825
   D12        0.00082   0.00000   0.00000   0.00004   0.00004   0.00086
   D13       -1.11943   0.00000   0.00000   0.00074   0.00074  -1.11869
   D14        2.01984   0.00000   0.00000   0.00058   0.00058   2.02042
   D15        1.36654  -0.00001   0.00000  -0.00150  -0.00150   1.36504
   D16        2.46515  -0.00001   0.00000  -0.00127  -0.00127   2.46388
   D17       -2.67798   0.00002   0.00000  -0.00066  -0.00066  -2.67864
   D18       -1.57937   0.00001   0.00000  -0.00043  -0.00043  -1.57980
   D19       -0.00157   0.00001   0.00000   0.00015   0.00015  -0.00143
   D20       -3.14076  -0.00001   0.00000  -0.00027  -0.00027  -3.14104
   D21       -3.14091   0.00001   0.00000   0.00031   0.00031  -3.14060
   D22        0.00309  -0.00001   0.00000  -0.00012  -0.00012   0.00297
   D23        0.00157  -0.00001   0.00000  -0.00015  -0.00015   0.00143
   D24        3.14090  -0.00001   0.00000  -0.00030  -0.00030   3.14060
   D25        3.14076   0.00001   0.00000   0.00027   0.00027   3.14104
   D26       -0.00310   0.00001   0.00000   0.00012   0.00012  -0.00297
   D27        0.01332   0.00000   0.00000  -0.00011  -0.00011   0.01321
   D28        3.13844   0.00000   0.00000  -0.00019  -0.00019   3.13825
   D29        1.11951   0.00000   0.00000  -0.00082  -0.00082   1.11869
   D30       -3.12595   0.00000   0.00000   0.00004   0.00004  -3.12590
   D31       -0.00083   0.00000   0.00000  -0.00004  -0.00004  -0.00086
   D32       -2.01976   0.00000   0.00000  -0.00066  -0.00066  -2.02042
   D33       -1.36657   0.00001   0.00000   0.00153   0.00153  -1.36504
   D34       -2.46514   0.00001   0.00000   0.00126   0.00126  -2.46388
   D35        2.67799  -0.00002   0.00000   0.00066   0.00066   2.67864
   D36        1.57941  -0.00001   0.00000   0.00039   0.00039   1.57980
         Item               Value     Threshold  Converged?
 Maximum Force            0.000044     0.000450     YES
 RMS     Force            0.000016     0.000300     YES
 Maximum Displacement     0.006501     0.001800     NO 
 RMS     Displacement     0.001396     0.001200     NO 
 Predicted change in Energy=-5.562412D-07
 GradGradGradGradGradGradGradGradGradGradGradGradGradGradGradGradGradGrad

 Leave Link  103 at Tue Sep  5 04:40:13 2006, MaxMem=    6291456 cpu:       0.2
 (Enter /usr/local/Gaussian/g03/l9999.exe)
 1\1\GINC-PUBLIX\Freq\UB3LYP\6-311+G(d,p)\C6H5Cl1F1(2)\NOBODY\05-Sep-20
 06\0\\#P GEOM=ALLCHECK GUESS=READ SCRF=CHECK GENCHK UB3LYP/6-311+G(D,P
 ) FREQ\\fluorobz/cl complex basis\\0,2\C,-1.045252926,-0.6244993215,-0
 .6009494386\C,-1.0470147932,-0.6244797817,0.8114903902\C,0.1456537328,
 -0.6202849725,1.512429896\C,1.3357377807,-0.6324720877,0.7884354144\C,
 1.3804389104,-0.6504674949,-0.6037887265\C,0.1833338254,-0.6545534244,
 -1.2971269149\H,0.1825306613,-0.6654522108,-2.3796438954\H,2.338087054
 7,-0.6586208488,-1.1082837633\F,2.4972819,-0.6294252855,1.466138645\H,
 0.1776845501,-0.6058188186,2.5942971101\H,-1.9898159995,-0.6123631615,
 1.3434131004\H,-1.972490857,-0.756492303,-1.1400970332\Cl,-1.584053628
 9,1.8708304358,-0.951051591\\Version=Sun64-SVR4-Unix-G03RevB.04\State=
 2-A\HF=-791.7632509\S2=0.758475\S2-1=0.\S2A=0.750053\RMSD=2.064e-09\RM
 SF=3.241e-05\Dipole=0.2268029,-1.3012134,0.1509536\DipoleDeriv=-0.1393
 18,0.3267925,-0.0256493,0.1550027,-0.2531745,0.0925868,-0.0231632,0.19
 27963,-0.1196371,0.3083509,-0.2044336,0.0860311,-0.0571543,-0.1300193,
 0.0124885,0.3001598,-0.5659999,0.2375484,-0.6361052,0.4071636,-0.20363
 36,-0.0135743,-0.0787362,0.0041964,0.1213729,-0.0453725,0.0481989,1.50
 48536,-0.3255934,0.6187274,0.0134722,0.1296433,0.0124671,0.6138467,-0.
 1853323,0.8132787,-0.1508106,0.1584957,-0.1554584,-0.0121768,-0.072980
 7,-0.0197099,-0.4719767,0.3749195,-0.4428796,0.4124963,-0.5949172,0.24
 90289,-0.0234867,-0.1213464,-0.0535846,0.0245809,0.1055658,0.1247474,0
 .0755851,0.0079593,0.002113,0.0152851,0.1101992,0.0159011,0.0125855,-0
 .0267283,-0.0147767,0.0024442,0.0142798,0.0266057,-0.000261,0.1572803,
 0.0045938,0.0392953,0.0003471,0.0693248,-1.2652767,0.3017522,-0.620878
 8,-0.0010023,-0.1350875,-0.0016338,-0.616542,0.1750166,-0.5708473,0.08
 151,0.0081547,-0.005525,0.0044287,0.1572696,-0.0059714,-0.0179524,0.00
 89304,-0.0097298,0.0134425,-0.0171281,0.0481816,0.0233534,0.1106566,0.
 0035419,0.0370281,0.018271,0.0469062,0.0470793,-0.0382855,-0.0156436,-
 0.0462975,0.1696262,-0.028367,-0.0155316,-0.0236894,0.0661023,-0.25425
 14,-0.0442401,-0.0038989,-0.0575893,-0.0433307,-0.0365089,-0.0037033,-
 0.0287242,-0.2482362\Polar=107.2304365,-31.8586385,98.8266996,14.25554
 62,-18.8088619,92.1671445\PG=C01 [X(C6H5Cl1F1)]\NImag=0\\0.68861478,0.
 04550492,0.11352728,0.04804554,0.03356436,0.63271527,-0.12122816,-0.00
 678288,0.02492200,0.73839171,-0.00679379,-0.05483130,0.00098935,0.0001
 9155,0.13507103,-0.01573073,-0.01575889,-0.30157696,-0.02557678,0.0059
 8447,0.64709591,0.01847749,0.00777312,-0.05442965,-0.29423324,-0.00468
 226,-0.07034053,0.65689282,0.00098348,0.00608445,-0.00049295,-0.000749
 55,-0.05692445,-0.00052924,-0.00343726,0.12103365,-0.03161641,-0.00088
 045,-0.02462228,-0.13170984,-0.00043000,-0.18984998,0.02251633,0.00797
 947,0.75807461,-0.00989266,-0.00331533,0.02123710,-0.06530015,0.002817
 34,-0.03025236,-0.23052604,0.00368690,0.13527865,0.64843034,0.00056235
 ,-0.00640616,-0.00023954,0.00013137,-0.00019112,0.00068508,0.00109907,
 -0.06433231,-0.00192995,-0.00177349,0.15227952,0.02118213,-0.00250335,
 -0.03381305,0.02560608,-0.00299808,0.06250705,0.05107789,-0.00306792,-
 0.19646391,-0.01531136,0.00641668,0.66569419,-0.05099854,0.00393164,0.
 00761947,-0.01362950,0.00051201,-0.02168857,0.03356427,0.00088315,0.02
 693440,-0.12489032,0.00122154,0.07559465,0.75289032,0.00044356,0.00623
 321,0.00182566,-0.00033336,-0.00090203,-0.00113277,0.00143671,0.007651
 49,-0.00008675,-0.00028809,-0.06430066,-0.00127980,-0.00326548,0.12096
 738,-0.01504548,0.00821133,0.04470436,-0.02405245,0.00110375,-0.041094
 39,0.06814611,-0.00014529,-0.02019882,-0.00862297,-0.00304744,-0.30213
 351,-0.03176458,0.00499067,0.66214072,-0.25417062,-0.01331958,0.059522
 62,0.02550472,0.00185236,0.05646335,-0.05403071,-0.00046593,0.00116522
 ,0.02954932,-0.00149152,-0.08381715,-0.30169803,0.00080146,-0.06619337
 ,0.64734515,0.00211969,-0.05480734,-0.00956470,-0.00079700,0.00605831,
 0.00147657,0.00184640,-0.00090734,-0.00010718,-0.00218861,-0.00008582,
 0.00428319,-0.00235345,-0.05701495,-0.00571241,-0.00050408,0.13515854,
 0.09995227,-0.00181780,-0.16865623,0.03176278,-0.00246229,-0.02436438,
 -0.00124337,0.00028705,-0.00068979,-0.02798423,-0.00056178,-0.03244841
 ,-0.12746328,-0.00147696,-0.18229013,0.02590594,0.00973102,0.73805203,
 0.00410253,0.00048903,0.02843729,-0.00485237,0.00031281,0.00239442,-0.
 00073792,-0.00001116,-0.00022692,-0.00393981,-0.00002049,-0.00119766,0
 .00386444,-0.00038150,-0.02857503,-0.05845107,0.00019184,-0.00035237,0
 .05849628,0.00055130,0.00260618,-0.00145887,0.00039579,0.00524808,0.00
 010921,-0.00032062,-0.00134871,0.00008229,0.00010278,0.00847632,-0.000
 69499,0.00044870,0.00550079,0.00027049,-0.00158432,-0.03804017,-0.0020
 5351,-0.00008357,0.02504047,-0.00215151,-0.00010670,-0.01003163,0.0028
 3970,-0.00019169,0.00038951,-0.00016522,0.00002332,0.00059575,-0.00204
 873,0.00003261,0.00084189,0.00222325,-0.00002939,-0.00994458,-0.000565
 78,-0.00351382,-0.34307033,0.00030953,0.00341374,0.36106579,-0.0024403
 6,-0.00028697,-0.00371339,0.00018311,0.00001230,-0.00046620,0.00111003
 ,0.00000057,-0.00073123,0.00141430,0.00002498,-0.00232751,-0.27818686,
 0.00196589,0.12019958,-0.01710835,0.00053500,0.01395513,0.00100475,0.0
 0003048,-0.00004436,0.29324106,0.00053611,0.00773967,0.00010910,-0.000
 09983,-0.00111680,-0.00009049,0.00017096,0.00485921,-0.00023208,0.0002
 9066,0.00421154,0.00000069,0.00169431,-0.03452267,-0.00135977,-0.00035
 423,0.00312185,0.00034488,-0.00004322,-0.00459093,-0.00003750,-0.00215
 553,0.02419390,-0.00341730,-0.00016388,-0.00144696,-0.00106397,0.00008
 529,-0.00056208,-0.00123675,-0.00013271,-0.00556319,0.03016882,-0.0001
 3619,-0.00971346,0.11842609,-0.00144165,-0.12291579,-0.01551723,0.0003
 3593,0.01286441,0.00050514,0.00008595,0.00076072,-0.12797823,0.0014471
 6,0.12347767,-0.00255383,0.00168168,-0.00307513,0.00151391,-0.00033236
 ,0.01240023,-0.05840293,-0.00075675,-0.03122415,-0.24641248,-0.0004408
 7,-0.09942503,-0.01297953,-0.00064981,-0.01777686,0.00461111,-0.000194
 12,0.00024289,-0.00067003,0.00007289,-0.00008972,0.00124919,0.00012118
 ,-0.00049456,0.31225355,-0.00035356,-0.00099138,-0.00015396,-0.0000184
 4,0.00684244,-0.00022799,0.00056933,0.00840089,0.00006912,-0.00068179,
 -0.04278356,-0.00087193,-0.00060523,0.00839997,-0.00014951,0.00004669,
 0.00683580,-0.00017214,0.00002332,-0.00052670,-0.00000639,-0.00001645,
 -0.00381804,0.00003595,0.00094823,0.02267631,-0.00304605,0.00103361,0.
 00088305,0.00199097,-0.00007274,-0.00252888,0.00788647,-0.00018872,0.0
 1473190,-0.09942170,-0.00073135,-0.13400433,-0.05690693,-0.00069152,-0
 .03069101,0.01064442,-0.00065107,-0.00561876,-0.00210716,0.00005570,-0
 .00074807,0.00051470,0.00011967,0.00297971,0.14144564,0.00122595,0.152
 33042,-0.00473959,-0.00017385,-0.00210733,0.00494374,-0.00006233,-0.02
 798849,-0.05829601,-0.00011699,-0.00586407,0.00490985,0.00048488,0.028
 18987,-0.00479143,0.00004931,0.00210138,-0.00103780,0.00007132,-0.0003
 7620,0.00009865,-0.00001494,-0.00001166,0.00014598,0.00002873,0.001306
 18,0.00257055,-0.00008249,-0.00123870,0.05493919,0.00046221,0.00774025
 ,0.00029271,0.00013507,0.00311153,-0.00039217,-0.00014172,-0.03455836,
 -0.00434168,0.00004354,0.00420424,-0.00046807,0.00005744,0.00486419,0.
 00014067,-0.00012412,-0.00111692,0.00000007,-0.00002259,-0.00061209,0.
 00000017,-0.00000809,0.00029936,0.00000344,0.00007951,-0.00381611,0.00
 017851,-0.00004001,0.02423280,-0.00242419,-0.00028570,0.00085184,0.001
 49374,0.00002028,-0.00917707,-0.00408633,-0.00408720,-0.34277066,-0.00
 430407,-0.00022833,-0.01320180,0.00260436,-0.00006286,0.00033314,0.000
 22598,0.00000373,0.00065891,0.00000055,0.00000015,-0.00005375,-0.00018
 695,-0.00002315,-0.00048670,-0.00023368,0.00008739,0.00165656,0.006716
 28,0.00451014,0.36174024,0.00464228,0.00007035,-0.00244979,-0.27455774
 ,0.00255673,0.12155226,-0.01788325,0.00038581,0.01451918,-0.00171214,0
 .00007434,-0.00330774,0.00010361,-0.00001694,-0.00064533,0.00136632,0.
 00002096,-0.00067070,0.00012438,-0.00001604,-0.00019602,-0.00002191,-0
 .00001709,0.00005653,-0.00166909,0.00003024,0.00047568,0.00101681,-0.0
 0012455,-0.00004898,0.28807772,-0.00042546,0.00264009,0.00094696,0.002
 95865,-0.03808015,-0.00376860,0.00039987,0.00549615,0.00021154,-0.0004
 8005,0.00848710,0.00026227,-0.00011910,-0.00135402,-0.00028795,0.00031
 428,0.00525363,0.00006328,-0.00001401,0.00053087,-0.00001150,-0.000013
 10,-0.00061224,0.00000067,0.00006573,-0.00052607,0.00004669,0.00003082
 ,-0.00458906,0.00009845,-0.00308748,0.02505025,0.02814518,-0.00015228,
 -0.01060496,0.12178544,-0.00150727,-0.12692329,-0.01629123,0.00001885,
 0.01180734,-0.00245053,-0.00021351,-0.00139635,-0.00070110,0.00001111,
 -0.00024041,-0.00112142,0.00014473,-0.00583460,0.00137303,-0.00004639,
 -0.00054006,0.00006857,-0.00000615,0.00006692,-0.00154293,0.00005914,0
 .00025036,0.00049725,0.00008818,0.00074668,-0.12944264,0.00211915,0.13
 147414,-0.27030005,-0.03385151,-0.12335670,0.00460606,0.00147889,0.001
 51044,0.00205035,-0.00074886,0.00085359,-0.00048723,0.00008633,0.00111
 788,-0.00267466,-0.00054879,0.00382162,-0.01833458,-0.00254663,-0.0146
 4258,0.00088251,0.00054983,0.00008624,-0.00075083,0.00010359,-0.000766
 02,0.00041241,0.00010987,-0.00001579,0.00016781,-0.00020900,0.00022719
 ,0.00052311,0.00045725,-0.00028015,0.28381027,-0.03553190,-0.03325444,
 -0.02108649,0.00125999,0.00267038,0.00283040,-0.00094146,0.00500717,0.
 00008511,0.00047044,-0.00003476,0.00024092,-0.00021919,0.00498734,-0.0
 0102782,0.00365343,0.00272371,0.00008521,-0.00011101,-0.00282833,0.000
 12202,0.00005695,0.00012008,-0.00002591,-0.00033041,-0.00069934,-0.000
 17659,-0.00002244,0.00012906,0.00004738,0.00001634,-0.00282902,-0.0000
 7213,0.03292472,0.03363578,-0.12333274,-0.02010556,-0.12973554,-0.0276
 6638,-0.00370244,-0.01089339,0.00115605,-0.00040982,-0.00530432,0.0011
 1230,0.00001654,-0.00175619,0.00351728,-0.00061257,-0.00055967,0.01444
 881,0.00312800,0.01199352,-0.00047522,0.00026897,0.00061972,0.00074275
 ,-0.00030345,0.00047800,-0.00000951,0.00008032,0.00043008,-0.00128357,
 0.00024329,-0.00044967,0.00029702,0.00042376,0.00097976,0.13144161,0.0
 1955471,0.13415177,0.00048672,-0.00172062,-0.00065202,-0.00134208,0.00
 213675,-0.00227704,0.00201514,0.00034659,0.00010526,-0.00114297,0.0000
 4152,0.00261796,-0.00057377,0.00078705,-0.00159261,-0.00354547,0.00379
 867,0.00091371,0.00007764,-0.00013227,-0.00018574,0.00015990,-0.000275
 64,0.00001129,0.00007716,0.00003028,-0.00022155,0.00007226,-0.00010771
 ,0.00001610,-0.00001009,-0.00008740,-0.00003948,0.00009482,-0.00122545
 ,0.00005159,0.00363073,-0.00805890,0.00371950,-0.00473162,0.00370863,-
 0.00695592,0.01081442,-0.00377215,-0.00046184,-0.00041945,0.00131571,0
 .00047568,0.00068039,-0.00218634,-0.00051002,-0.00298672,0.01117555,-0
 .00717930,-0.00196705,-0.00032946,0.00054422,0.00030513,-0.00014604,0.
 00011506,-0.00009407,-0.00026490,0.00000579,-0.00014812,-0.00015200,0.
 00011110,-0.00008027,0.00010734,0.00053249,-0.00044343,0.00219431,-0.0
 0962762,0.00141825,-0.00359176,0.01923085,-0.00056071,-0.00103468,0.00
 133308,-0.00033131,0.00318137,-0.00302206,-0.00298977,0.00074515,0.000
 25335,0.00259906,-0.00006283,-0.00411212,0.00160497,-0.00001317,0.0028
 9009,-0.00116139,0.00044600,-0.00059624,-0.00008560,-0.00003273,0.0001
 1504,-0.00003287,0.00003109,0.00006075,-0.00021720,0.00002407,0.000328
 97,0.00005908,-0.00025527,0.00015228,-0.00013947,-0.00010472,0.0002144
 6,0.00000268,-0.00057681,0.00004593,0.00125253,-0.00234746,0.00233645\
 \-0.00000936,-0.00008243,-0.00000424,0.00001163,-0.00003053,-0.0000199
 3,-0.00004862,0.00002896,-0.00006753,0.00002774,0.00004188,0.00001540,
 -0.00008217,0.00002965,-0.00000962,-0.00001192,-0.00003004,0.00002090,
 0.00003891,-0.00002220,0.00000596,0.00003013,0.00000480,0.00000665,0.0
 0000553,-0.00000199,0.00000326,0.00002072,0.00000491,0.00002286,0.0000
 2422,-0.00002227,0.00003171,-0.00000149,-0.00000258,-0.00000078,-0.000
 00532,0.00008184,-0.00000463\\\@


 A COMPUTER IS LIKE A HORSE, IT WILL SENSE WEAKNESS.
     -- GREG WETTSTEIN
 Job cpu time:  0 days  6 hours 21 minutes 17.5 seconds.
 File lengths (MBytes):  RWF=    149 Int=      0 D2E=      0 Chk=     13 Scr=      1
 Normal termination of Gaussian 03 at Tue Sep  5 04:40:15 2006.
