 Entering Gaussian System, Link 0=g03
 Initial command:
 /apps/apps64/g03/l1.exe /tmp/Gau-31151.inp -scrdir=/tmp/
 Entering Link 1 = /apps/apps64/g03/l1.exe PID=     31152.
  
 Copyright (c) 1988,1990,1992,1993,1995,1998,2003,2004, Gaussian, Inc.
                  All Rights Reserved.
  
 This is the Gaussian(R) 03 program.  It is based on the
 the Gaussian(R) 98 system (copyright 1998, Gaussian, Inc.),
 the Gaussian(R) 94 system (copyright 1995, Gaussian, Inc.),
 the Gaussian 92(TM) system (copyright 1992, Gaussian, Inc.),
 the Gaussian 90(TM) system (copyright 1990, Gaussian, Inc.),
 the Gaussian 88(TM) system (copyright 1988, Gaussian, Inc.),
 the Gaussian 86(TM) system (copyright 1986, Carnegie Mellon
 University), and the Gaussian 82(TM) system (copyright 1983,
 Carnegie Mellon University). Gaussian is a federally registered
 trademark of Gaussian, Inc.
  
 This software contains proprietary and confidential information,
 including trade secrets, belonging to Gaussian, Inc.
  
 This software is provided under written license and may be
 used, copied, transmitted, or stored only in accord with that
 written license.
  
 The following legend is applicable only to US Government
 contracts under FAR:
  
                    RESTRICTED RIGHTS LEGEND
  
 Use, reproduction and disclosure by the US Government is
 subject to restrictions as set forth in subparagraphs (a)
 and (c) of the Commercial Computer Software - Restricted
 Rights clause in FAR 52.227-19.
  
 Gaussian, Inc.
 340 Quinnipiac St., Bldg. 40, Wallingford CT 06492
  
  
 ---------------------------------------------------------------
 Warning -- This program may not be used in any manner that
 competes with the business of Gaussian, Inc. or will provide
 assistance to any competitor of Gaussian, Inc.  The licensee
 of this program is prohibited from giving any competitor of
 Gaussian, Inc. access to this program.  By using this program,
 the user acknowledges that Gaussian, Inc. is engaged in the
 business of creating and licensing software in the field of
 computational chemistry and represents and warrants to the
 licensee that it is not a competitor of Gaussian, Inc. and that
 it will not use this program in any manner prohibited above.
 ---------------------------------------------------------------
  

 Cite this work as:
 Gaussian 03, Revision D.02,
 M. J. Frisch, G. W. Trucks, H. B. Schlegel, G. E. Scuseria, 
 M. A. Robb, J. R. Cheeseman, J. A. Montgomery, Jr., T. Vreven, 
 K. N. Kudin, J. C. Burant, J. M. Millam, S. S. Iyengar, J. Tomasi, 
 V. Barone, B. Mennucci, M. Cossi, G. Scalmani, N. Rega, 
 G. A. Petersson, H. Nakatsuji, M. Hada, M. Ehara, K. Toyota, 
 R. Fukuda, J. Hasegawa, M. Ishida, T. Nakajima, Y. Honda, O. Kitao, 
 H. Nakai, M. Klene, X. Li, J. E. Knox, H. P. Hratchian, J. B. Cross, 
 V. Bakken, C. Adamo, J. Jaramillo, R. Gomperts, R. E. Stratmann, 
 O. Yazyev, A. J. Austin, R. Cammi, C. Pomelli, J. W. Ochterski, 
 P. Y. Ayala, K. Morokuma, G. A. Voth, P. Salvador, J. J. Dannenberg, 
 V. G. Zakrzewski, S. Dapprich, A. D. Daniels, M. C. Strain, 
 O. Farkas, D. K. Malick, A. D. Rabuck, K. Raghavachari, 
 J. B. Foresman, J. V. Ortiz, Q. Cui, A. G. Baboul, S. Clifford, 
 J. Cioslowski, B. B. Stefanov, G. Liu, A. Liashenko, P. Piskorz, 
 I. Komaromi, R. L. Martin, D. J. Fox, T. Keith, M. A. Al-Laham, 
 C. Y. Peng, A. Nanayakkara, M. Challacombe, P. M. W. Gill, 
 B. Johnson, W. Chen, M. W. Wong, C. Gonzalez, and J. A. Pople, 
 Gaussian, Inc., Wallingford CT, 2004.
 
 ******************************************
 Gaussian 03:  AM64L-G03RevD.02  1-Mar-2006
                17-Feb-2011 
 ******************************************
 %Mem=900MB
 --------------------------------------------------------------------
 #N RHF/6-31G(d,p) 5D 7F SCF=(Conver=10) TrackIO GFInput MaxDisk=16GB
 --------------------------------------------------------------------
 1/1=2048,38=1/1;
 2/1=2048,17=6,18=5,40=1/2;
 3/1=2048,5=1,6=6,7=101,8=11,11=1,16=1,24=10,25=1,30=1/1,2,3;
 4/1=2048,7=1/1;
 5/1=2048,5=2,6=10,38=5/2;
 6/1=2048,7=2,8=2,9=2,10=2,28=1/1;
 99/1=2048,5=1,9=1/99;
 ----------------------------------------------------------------------
 HCO-L-Ala-NH2 RHF/6-31(d,p) single point calculation close to the poly
 proline II
 ----------------------------------------------------------------------
 Symbolic Z-matrix:
 Charge =  0 Multiplicity = 1
 H1
 C2                   1    rC2H1
 N3                   2    rN3C2    1    aN3C2H1
 O4                   2    rO4C2    3    aO4C2N3  1    pO4C2N3H1 0
 C5                   3    rC5N3    2    aC5N3C2  1    dC5N3C2H1 0
 H6                   3    rH6N3    2    aH6N3C2  5    pH6N3C2C5 0
 C7                   5    rC7C5    3    aC7C5N3  2    dC7C5N3C2 0
 C8                   5    rC8C5    3    aC8C5N3  7    pC8C5N3C7 0
 H9                   5    rH9C5    3    aH9C5N3  7    pH9C5N3C7 0
 H10                  8    rH10C8   5    aH10C8C5 3    dH10C8C5N3 0
 H11                  8    rH11C8   5    aH11C8C5 10   pH11C8C5H10 0
 H12                  8    rH12C8   5    aH12C8C5 10   pH12C8C5H10 0
 N13                  7    rN13C7   5    aN13C7C5 3    dN13C7C5N3 0
 O14                  7    rO14C7   5    aO14C7C5 13   pO14C7C5N13 0
 H15                  13   rH15N13  7    aH15N13C7 5    dH15N13C7C5 0
 H16                  13   rH16N13  7    aH16N13C7 15   pH16N13C7H15 0
       Variables:
  rC2H1                 1.08829                  
  rN3C2                 1.34028                  
  rO4C2                 1.19529                  
  rC5N3                 1.45836                  
  rH6N3                 0.99156                  
  rC7C5                 1.53694                  
  rC8C5                 1.51712                  
  rH9C5                 1.08068                  
  rH10C8                1.08134                  
  rH11C8                1.07969                  
  rH12C8                1.0822                   
  rN13C7                1.34565                  
  rO14C7                1.19502                  
  rH15N13               0.99134                  
  rH16N13               0.9924                   
  aN3C2H1             112.90692                  
  aO4C2N3             125.36333                  
  aC5N3C2             124.60327                  
  aH6N3C2             116.96612                  
  aC7C5N3             111.30338                  
  aC8C5N3             109.75653                  
  aH9C5N3             106.69658                  
  aH10C8C5            111.03448                  
  aH11C8C5            110.20028                  
  aH12C8C5            109.81734                  
  aN13C7C5            115.40289                  
  aO14C7C5            121.47751                  
  aH15N13C7           117.07975                  
  aH16N13C7           120.33054                  
  pO4C2N3H1           178.63036                  
  dC5N3C2H1           176.20285                  
  pH6N3C2C5          -167.26951                  
  dC7C5N3C2           -75.                       
  pC8C5N3C7          -123.9391                   
  pH9C5N3C7           117.25286                  
  dH10C8C5N3           62.51695                  
  pH11C8C5H10         118.9032                   
  pH12C8C5H10        -121.14629                  
  dN13C7C5N3           75.                       
  pO14C7C5N13         179.17101                  
  dH15N13C7C5        -171.96675                  
  pH16N13C7H15        158.44988                  
 
                          Input orientation:                          
 ---------------------------------------------------------------------
 Center     Atomic     Atomic              Coordinates (Angstroms)
 Number     Number      Type              X           Y           Z
 ---------------------------------------------------------------------
    1          1             0        0.000000    0.000000    0.000000
    2          6             0        0.000000    0.000000    1.088294
    3          7             0        1.234587    0.000000    1.609980
    4          8             0       -1.016530   -0.023299    1.716656
    5          6             0        1.531258    0.079494    3.035630
    6          1             0        1.988578    0.137234    0.980811
    7          6             0        1.317768    1.503967    3.571821
    8          6             0        2.945457   -0.405741    3.292986
    9          1             0        0.826579   -0.569258    3.536053
   10          1             0        3.668780    0.223762    2.793159
   11          1             0        3.164209   -0.373344    4.349788
   12          1             0        3.053007   -1.424470    2.944028
   13          7             0        0.033994    1.873712    3.733050
   14          8             0        2.240378    2.215696    3.836990
   15          1             0       -0.137040    2.823587    3.959410
   16          1             0       -0.696737    1.335650    3.331321
 ---------------------------------------------------------------------
                    Distance matrix (angstroms):
                    1          2          3          4          5
     1  H    0.000000
     2  C    1.088294   0.000000
     3  N    2.028852   1.340284   0.000000
     4  O    1.995190   1.195288   2.253763   0.000000
     5  C    3.400900   2.478546   1.458360   2.870799   0.000000
     6  H    2.221546   1.996204   0.991559   3.098050   2.105886
     7  C    4.093450   3.188468   2.473389   3.350093   1.536945
     8  C    4.436677   3.701488   2.433971   4.281171   1.517117
     9  H    3.675725   2.645526   2.049459   2.646758   1.080683
    10  H    4.616465   4.051738   2.715746   4.813733   2.156062
    11  H    5.391870   4.559490   3.371851   4.953231   2.144435
    12  H    4.474066   3.846259   2.667480   4.475584   2.141499
    13  N    4.177035   3.241402   3.075654   2.961097   2.438732
    14  O    4.964987   4.181379   3.298560   4.485127   2.389222
    15  H    4.865012   4.029234   3.920947   3.729371   3.341651
    16  H    3.656105   2.701957   2.911526   2.134515   2.574747
                    6          7          8          9         10
     6  H    0.000000
     7  C    3.005208   0.000000
     8  C    2.560584   2.524699   0.000000
     9  H    2.894586   2.130916   2.139033   0.000000
    10  H    2.472887   2.787920   1.081341   3.042840   0.000000
    11  H    3.604553   2.745701   1.079691   2.482954   1.741902
    12  H    2.725095   3.461346   1.082195   2.457410   1.765957
    13  N    3.796127   1.345653   3.723732   2.575869   4.100903
    14  O    3.541351   1.195024   2.768575   3.137731   2.664155
    15  H    4.539471   2.002021   4.513809   3.552349   4.754314
    16  H    3.764574   2.035779   4.037263   2.447668   4.536921
                   11         12         13         14         15
    11  H    0.000000
    12  H    1.758805   0.000000
    13  N    3.902290   4.540374   0.000000
    14  O    2.796346   3.835173   2.235148   0.000000
    15  H    4.612050   5.408640   0.991339   2.456956   0.000000
    16  H    4.343367   4.672133   0.992403   3.107543   1.709302
                   16
    16  H    0.000000
 Stoichiometry    C4H8N2O2
 Framework group  C1[X(C4H8N2O2)]
 Deg. of freedom    42
 Full point group                 C1
 Largest Abelian subgroup         C1      NOp   1
 Largest concise Abelian subgroup C1      NOp   1
                         Standard orientation:                         
 ---------------------------------------------------------------------
 Center     Atomic     Atomic              Coordinates (Angstroms)
 Number     Number      Type              X           Y           Z
 ---------------------------------------------------------------------
    1          1             0        2.673167   -0.694356    1.176039
    2          6             0        1.989614   -0.338797    0.407458
    3          7             0        0.791716   -0.937921    0.456971
    4          8             0        2.319149    0.483587   -0.394917
    5          6             0       -0.339048   -0.600594   -0.399998
    6          1             0        0.610190   -1.515976    1.241885
    7          6             0       -0.994872    0.719648    0.034807
    8          6             0       -1.337584   -1.742762   -0.404729
    9          1             0        0.057189   -0.458737   -1.395361
   10          1             0       -1.740991   -1.909721    0.584556
   11          1             0       -2.166228   -1.510831   -1.056871
   12          1             0       -0.858424   -2.647544   -0.755331
   13          7             0       -0.313114    1.835227   -0.283739
   14          8             0       -2.046346    0.736816    0.602425
   15          1             0       -0.647826    2.690611    0.089141
   16          1             0        0.631638    1.777215   -0.581971
 ---------------------------------------------------------------------
 Rotational constants (GHZ):      2.9412883      1.7541705      1.2354314
 Standard basis: 6-31G(d,p) (5D, 7F)
 AO basis set in the form of general basis input:
      1 0
 S   3 1.00       0.000000000000
      0.1873113696D+02  0.3349460434D-01
      0.2825394365D+01  0.2347269535D+00
      0.6401216923D+00  0.8137573261D+00
 S   1 1.00       0.000000000000
      0.1612777588D+00  0.1000000000D+01
 P   1 1.00       0.000000000000
      0.1100000000D+01  0.1000000000D+01
 ****
      2 0
 S   6 1.00       0.000000000000
      0.3047524880D+04  0.1834737132D-02
      0.4573695180D+03  0.1403732281D-01
      0.1039486850D+03  0.6884262226D-01
      0.2921015530D+02  0.2321844432D+00
      0.9286662960D+01  0.4679413484D+00
      0.3163926960D+01  0.3623119853D+00
 SP   3 1.00       0.000000000000
      0.7868272350D+01 -0.1193324198D+00  0.6899906659D-01
      0.1881288540D+01 -0.1608541517D+00  0.3164239610D+00
      0.5442492580D+00  0.1143456438D+01  0.7443082909D+00
 SP   1 1.00       0.000000000000
      0.1687144782D+00  0.1000000000D+01  0.1000000000D+01
 D   1 1.00       0.000000000000
      0.8000000000D+00  0.1000000000D+01
 ****
      3 0
 S   6 1.00       0.000000000000
      0.4173511460D+04  0.1834772160D-02
      0.6274579110D+03  0.1399462700D-01
      0.1429020930D+03  0.6858655181D-01
      0.4023432930D+02  0.2322408730D+00
      0.1282021290D+02  0.4690699481D+00
      0.4390437010D+01  0.3604551991D+00
 SP   3 1.00       0.000000000000
      0.1162636186D+02 -0.1149611817D+00  0.6757974388D-01
      0.2716279807D+01 -0.1691174786D+00  0.3239072959D+00
      0.7722183966D+00  0.1145851947D+01  0.7408951398D+00
 SP   1 1.00       0.000000000000
      0.2120314975D+00  0.1000000000D+01  0.1000000000D+01
 D   1 1.00       0.000000000000
      0.8000000000D+00  0.1000000000D+01
 ****
      4 0
 S   6 1.00       0.000000000000
      0.5484671660D+04  0.1831074430D-02
      0.8252349460D+03  0.1395017220D-01
      0.1880469580D+03  0.6844507810D-01
      0.5296450000D+02  0.2327143360D+00
      0.1689757040D+02  0.4701928980D+00
      0.5799635340D+01  0.3585208530D+00
 SP   3 1.00       0.000000000000
      0.1553961625D+02 -0.1107775495D+00  0.7087426823D-01
      0.3599933586D+01 -0.1480262627D+00  0.3397528391D+00
      0.1013761750D+01  0.1130767015D+01  0.7271585773D+00
 SP   1 1.00       0.000000000000
      0.2700058226D+00  0.1000000000D+01  0.1000000000D+01
 D   1 1.00       0.000000000000
      0.8000000000D+00  0.1000000000D+01
 ****
      5 0
 S   6 1.00       0.000000000000
      0.3047524880D+04  0.1834737132D-02
      0.4573695180D+03  0.1403732281D-01
      0.1039486850D+03  0.6884262226D-01
      0.2921015530D+02  0.2321844432D+00
      0.9286662960D+01  0.4679413484D+00
      0.3163926960D+01  0.3623119853D+00
 SP   3 1.00       0.000000000000
      0.7868272350D+01 -0.1193324198D+00  0.6899906659D-01
      0.1881288540D+01 -0.1608541517D+00  0.3164239610D+00
      0.5442492580D+00  0.1143456438D+01  0.7443082909D+00
 SP   1 1.00       0.000000000000
      0.1687144782D+00  0.1000000000D+01  0.1000000000D+01
 D   1 1.00       0.000000000000
      0.8000000000D+00  0.1000000000D+01
 ****
      6 0
 S   3 1.00       0.000000000000
      0.1873113696D+02  0.3349460434D-01
      0.2825394365D+01  0.2347269535D+00
      0.6401216923D+00  0.8137573261D+00
 S   1 1.00       0.000000000000
      0.1612777588D+00  0.1000000000D+01
 P   1 1.00       0.000000000000
      0.1100000000D+01  0.1000000000D+01
 ****
      7 0
 S   6 1.00       0.000000000000
      0.3047524880D+04  0.1834737132D-02
      0.4573695180D+03  0.1403732281D-01
      0.1039486850D+03  0.6884262226D-01
      0.2921015530D+02  0.2321844432D+00
      0.9286662960D+01  0.4679413484D+00
      0.3163926960D+01  0.3623119853D+00
 SP   3 1.00       0.000000000000
      0.7868272350D+01 -0.1193324198D+00  0.6899906659D-01
      0.1881288540D+01 -0.1608541517D+00  0.3164239610D+00
      0.5442492580D+00  0.1143456438D+01  0.7443082909D+00
 SP   1 1.00       0.000000000000
      0.1687144782D+00  0.1000000000D+01  0.1000000000D+01
 D   1 1.00       0.000000000000
      0.8000000000D+00  0.1000000000D+01
 ****
      8 0
 S   6 1.00       0.000000000000
      0.3047524880D+04  0.1834737132D-02
      0.4573695180D+03  0.1403732281D-01
      0.1039486850D+03  0.6884262226D-01
      0.2921015530D+02  0.2321844432D+00
      0.9286662960D+01  0.4679413484D+00
      0.3163926960D+01  0.3623119853D+00
 SP   3 1.00       0.000000000000
      0.7868272350D+01 -0.1193324198D+00  0.6899906659D-01
      0.1881288540D+01 -0.1608541517D+00  0.3164239610D+00
      0.5442492580D+00  0.1143456438D+01  0.7443082909D+00
 SP   1 1.00       0.000000000000
      0.1687144782D+00  0.1000000000D+01  0.1000000000D+01
 D   1 1.00       0.000000000000
      0.8000000000D+00  0.1000000000D+01
 ****
      9 0
 S   3 1.00       0.000000000000
      0.1873113696D+02  0.3349460434D-01
      0.2825394365D+01  0.2347269535D+00
      0.6401216923D+00  0.8137573261D+00
 S   1 1.00       0.000000000000
      0.1612777588D+00  0.1000000000D+01
 P   1 1.00       0.000000000000
      0.1100000000D+01  0.1000000000D+01
 ****
     10 0
 S   3 1.00       0.000000000000
      0.1873113696D+02  0.3349460434D-01
      0.2825394365D+01  0.2347269535D+00
      0.6401216923D+00  0.8137573261D+00
 S   1 1.00       0.000000000000
      0.1612777588D+00  0.1000000000D+01
 P   1 1.00       0.000000000000
      0.1100000000D+01  0.1000000000D+01
 ****
     11 0
 S   3 1.00       0.000000000000
      0.1873113696D+02  0.3349460434D-01
      0.2825394365D+01  0.2347269535D+00
      0.6401216923D+00  0.8137573261D+00
 S   1 1.00       0.000000000000
      0.1612777588D+00  0.1000000000D+01
 P   1 1.00       0.000000000000
      0.1100000000D+01  0.1000000000D+01
 ****
     12 0
 S   3 1.00       0.000000000000
      0.1873113696D+02  0.3349460434D-01
      0.2825394365D+01  0.2347269535D+00
      0.6401216923D+00  0.8137573261D+00
 S   1 1.00       0.000000000000
      0.1612777588D+00  0.1000000000D+01
 P   1 1.00       0.000000000000
      0.1100000000D+01  0.1000000000D+01
 ****
     13 0
 S   6 1.00       0.000000000000
      0.4173511460D+04  0.1834772160D-02
      0.6274579110D+03  0.1399462700D-01
      0.1429020930D+03  0.6858655181D-01
      0.4023432930D+02  0.2322408730D+00
      0.1282021290D+02  0.4690699481D+00
      0.4390437010D+01  0.3604551991D+00
 SP   3 1.00       0.000000000000
      0.1162636186D+02 -0.1149611817D+00  0.6757974388D-01
      0.2716279807D+01 -0.1691174786D+00  0.3239072959D+00
      0.7722183966D+00  0.1145851947D+01  0.7408951398D+00
 SP   1 1.00       0.000000000000
      0.2120314975D+00  0.1000000000D+01  0.1000000000D+01
 D   1 1.00       0.000000000000
      0.8000000000D+00  0.1000000000D+01
 ****
     14 0
 S   6 1.00       0.000000000000
      0.5484671660D+04  0.1831074430D-02
      0.8252349460D+03  0.1395017220D-01
      0.1880469580D+03  0.6844507810D-01
      0.5296450000D+02  0.2327143360D+00
      0.1689757040D+02  0.4701928980D+00
      0.5799635340D+01  0.3585208530D+00
 SP   3 1.00       0.000000000000
      0.1553961625D+02 -0.1107775495D+00  0.7087426823D-01
      0.3599933586D+01 -0.1480262627D+00  0.3397528391D+00
      0.1013761750D+01  0.1130767015D+01  0.7271585773D+00
 SP   1 1.00       0.000000000000
      0.2700058226D+00  0.1000000000D+01  0.1000000000D+01
 D   1 1.00       0.000000000000
      0.8000000000D+00  0.1000000000D+01
 ****
     15 0
 S   3 1.00       0.000000000000
      0.1873113696D+02  0.3349460434D-01
      0.2825394365D+01  0.2347269535D+00
      0.6401216923D+00  0.8137573261D+00
 S   1 1.00       0.000000000000
      0.1612777588D+00  0.1000000000D+01
 P   1 1.00       0.000000000000
      0.1100000000D+01  0.1000000000D+01
 ****
     16 0
 S   3 1.00       0.000000000000
      0.1873113696D+02  0.3349460434D-01
      0.2825394365D+01  0.2347269535D+00
      0.6401216923D+00  0.8137573261D+00
 S   1 1.00       0.000000000000
      0.1612777588D+00  0.1000000000D+01
 P   1 1.00       0.000000000000
      0.1100000000D+01  0.1000000000D+01
 ****

 There are   152 symmetry adapted basis functions of A   symmetry.
 Integral buffers will be    131072 words long.
 Raffenetti 1 integral format.
 Two-electron integral symmetry is turned on.
   152 basis functions,   280 primitive gaussians,   160 cartesian basis functions
    31 alpha electrons       31 beta electrons
       nuclear repulsion energy       390.4956316048 Hartrees.
 NAtoms=   16 NActive=   16 NUniq=   16 SFac= 7.50D-01 NAtFMM=   80 NAOKFM=F Big=F
 One-electron integrals computed using PRISM.
 NBasis=   152 RedAO= T  NBF=   152
 NBsUse=   152 1.00D-06 NBFU=   152
 Harris functional with IExCor=  205 diagonalized for initial guess.
 ExpMin= 1.61D-01 ExpMax= 5.48D+03 ExpMxC= 8.25D+02 IAcc=1 IRadAn=         1 AccDes= 1.00D-06
 HarFok:  IExCor= 205 AccDes= 1.00D-06 IRadAn=         1 IDoV=1
 ScaDFX=  1.000000  1.000000  1.000000  1.000000
 Initial guess orbital symmetries:
       Occupied  (A) (A) (A) (A) (A) (A) (A) (A) (A) (A) (A) (A)
                 (A) (A) (A) (A) (A) (A) (A) (A) (A) (A) (A) (A)
                 (A) (A) (A) (A) (A) (A) (A)
       Virtual   (A) (A) (A) (A) (A) (A) (A) (A) (A) (A) (A) (A)
                 (A) (A) (A) (A) (A) (A) (A) (A) (A) (A) (A) (A)
                 (A) (A) (A) (A) (A) (A) (A) (A) (A) (A) (A) (A)
                 (A) (A) (A) (A) (A) (A) (A) (A) (A) (A) (A) (A)
                 (A) (A) (A) (A) (A) (A) (A) (A) (A) (A) (A) (A)
                 (A) (A) (A) (A) (A) (A) (A) (A) (A) (A) (A) (A)
                 (A) (A) (A) (A) (A) (A) (A) (A) (A) (A) (A) (A)
                 (A) (A) (A) (A) (A) (A) (A) (A) (A) (A) (A) (A)
                 (A) (A) (A) (A) (A) (A) (A) (A) (A) (A) (A) (A)
                 (A) (A) (A) (A) (A) (A) (A) (A) (A) (A) (A) (A)
                 (A)
 The electronic state of the initial guess is 1-A.
 Requested convergence on RMS density matrix=1.00D-10 within 128 cycles.
 Requested convergence on MAX density matrix=1.00D-08.
 Requested convergence on             energy=1.00D-08.
 No special actions if energy rises.
 Keep R1 integrals in memory in canonical form, NReq=    85968842.
 SCF Done:  E(RHF) =  -414.803697976     A.U. after   18 cycles
             Convg  =    0.9239D-10             -V/T =  2.0005
             S**2   =   0.0000

 **********************************************************************

            Population analysis using the SCF density.

 **********************************************************************

 Orbital symmetries:
       Occupied  (A) (A) (A) (A) (A) (A) (A) (A) (A) (A) (A) (A)
                 (A) (A) (A) (A) (A) (A) (A) (A) (A) (A) (A) (A)
                 (A) (A) (A) (A) (A) (A) (A)
       Virtual   (A) (A) (A) (A) (A) (A) (A) (A) (A) (A) (A) (A)
                 (A) (A) (A) (A) (A) (A) (A) (A) (A) (A) (A) (A)
                 (A) (A) (A) (A) (A) (A) (A) (A) (A) (A) (A) (A)
                 (A) (A) (A) (A) (A) (A) (A) (A) (A) (A) (A) (A)
                 (A) (A) (A) (A) (A) (A) (A) (A) (A) (A) (A) (A)
                 (A) (A) (A) (A) (A) (A) (A) (A) (A) (A) (A) (A)
                 (A) (A) (A) (A) (A) (A) (A) (A) (A) (A) (A) (A)
                 (A) (A) (A) (A) (A) (A) (A) (A) (A) (A) (A) (A)
                 (A) (A) (A) (A) (A) (A) (A) (A) (A) (A) (A) (A)
                 (A) (A) (A) (A) (A) (A) (A) (A) (A) (A) (A) (A)
                 (A)
 The electronic state is 1-A.
 Alpha  occ. eigenvalues --  -20.54782 -20.52282 -15.60787 -15.57060 -11.36514
 Alpha  occ. eigenvalues --  -11.34468 -11.28685 -11.22790  -1.41623  -1.39470
 Alpha  occ. eigenvalues --   -1.26286  -1.20904  -1.05487  -0.91155  -0.84823
 Alpha  occ. eigenvalues --   -0.78793  -0.74846  -0.73241  -0.68185  -0.67054
 Alpha  occ. eigenvalues --   -0.61961  -0.61349  -0.58819  -0.55659  -0.55235
 Alpha  occ. eigenvalues --   -0.54016  -0.52246  -0.45346  -0.44165  -0.40808
 Alpha  occ. eigenvalues --   -0.39175
 Alpha virt. eigenvalues --    0.17985   0.20676   0.22007   0.24547   0.26037
 Alpha virt. eigenvalues --    0.28753   0.30730   0.31628   0.32725   0.35508
 Alpha virt. eigenvalues --    0.39021   0.42704   0.44023   0.45575   0.50921
 Alpha virt. eigenvalues --    0.54565   0.60899   0.67854   0.71647   0.74127
 Alpha virt. eigenvalues --    0.75953   0.77811   0.82127   0.86560   0.90118
 Alpha virt. eigenvalues --    0.91892   0.92970   0.95662   0.96072   0.99558
 Alpha virt. eigenvalues --    1.00594   1.01658   1.04913   1.08168   1.09088
 Alpha virt. eigenvalues --    1.10247   1.11933   1.12272   1.13240   1.15074
 Alpha virt. eigenvalues --    1.16006   1.20469   1.22572   1.25242   1.28870
 Alpha virt. eigenvalues --    1.34313   1.37311   1.41437   1.42720   1.45751
 Alpha virt. eigenvalues --    1.49118   1.51755   1.56020   1.59299   1.63388
 Alpha virt. eigenvalues --    1.65799   1.69540   1.73736   1.79295   1.83842
 Alpha virt. eigenvalues --    1.87798   1.93746   1.96425   2.02196   2.02433
 Alpha virt. eigenvalues --    2.07232   2.09619   2.12441   2.16972   2.17495
 Alpha virt. eigenvalues --    2.19071   2.21717   2.25289   2.27918   2.30859
 Alpha virt. eigenvalues --    2.34329   2.36218   2.37615   2.40274   2.41353
 Alpha virt. eigenvalues --    2.44359   2.44617   2.48574   2.51004   2.54030
 Alpha virt. eigenvalues --    2.59840   2.61453   2.65238   2.68069   2.71941
 Alpha virt. eigenvalues --    2.73137   2.75905   2.80343   2.85192   2.88306
 Alpha virt. eigenvalues --    2.90623   2.94614   2.96630   3.00775   3.05019
 Alpha virt. eigenvalues --    3.07007   3.09433   3.13439   3.16947   3.22550
 Alpha virt. eigenvalues --    3.25146   3.27575   3.28197   3.33651   3.39198
 Alpha virt. eigenvalues --    3.46145   3.49244   3.58798   3.60771   3.68522
 Alpha virt. eigenvalues --    3.75883   3.84050   3.86509   3.90816   4.02572
 Alpha virt. eigenvalues --    4.05961
          Condensed to atoms (all electrons):
              1          2          3          4          5          6
     1  H    0.591309   0.434385  -0.102478  -0.046786   0.004230   0.000212
     2  C    0.434385   4.174467   0.274925   0.575635  -0.027028  -0.020350
     3  N   -0.102478   0.274925   7.222069  -0.095187   0.176863   0.362630
     4  O   -0.046786   0.575635  -0.095187   8.145687   0.009819   0.002231
     5  C    0.004230  -0.027028   0.176863   0.009819   5.085199  -0.024179
     6  H    0.000212  -0.020350   0.362630   0.002231  -0.024179   0.360882
     7  C   -0.000358  -0.003032  -0.052472  -0.002253   0.340840   0.000248
     8  C   -0.000058   0.003226  -0.056692   0.000258   0.350187  -0.003805
     9  H    0.000139  -0.002753  -0.043147   0.003787   0.416616   0.003272
    10  H   -0.000007  -0.000182  -0.004036  -0.000005  -0.032536   0.002944
    11  H    0.000002  -0.000036   0.003729   0.000002  -0.034706  -0.000001
    12  H   -0.000005  -0.000083  -0.000408  -0.000003  -0.042589   0.000059
    13  N   -0.000029   0.004060   0.003111  -0.011918  -0.118417  -0.000011
    14  O   -0.000002  -0.000121   0.001406   0.000002  -0.088981   0.000184
    15  H    0.000002  -0.000048  -0.000420   0.000276   0.006075   0.000008
    16  H    0.000488  -0.001803  -0.002124   0.022748   0.002425  -0.000049
              7          8          9         10         11         12
     1  H   -0.000358  -0.000058   0.000139  -0.000007   0.000002  -0.000005
     2  C   -0.003032   0.003226  -0.002753  -0.000182  -0.000036  -0.000083
     3  N   -0.052472  -0.056692  -0.043147  -0.004036   0.003729  -0.000408
     4  O   -0.002253   0.000258   0.003787  -0.000005   0.000002  -0.000003
     5  C    0.340840   0.350187   0.416616  -0.032536  -0.034706  -0.042589
     6  H    0.000248  -0.003805   0.003272   0.002944  -0.000001   0.000059
     7  C    4.158124  -0.054081  -0.048340  -0.006498  -0.001582   0.005126
     8  C   -0.054081   4.902694  -0.031304   0.400204   0.408362   0.401246
     9  H   -0.048340  -0.031304   0.525366   0.004154  -0.002449  -0.004668
    10  H   -0.006498   0.400204   0.004154   0.545809  -0.022695  -0.030455
    11  H   -0.001582   0.408362  -0.002449  -0.022695   0.526505  -0.024777
    12  H    0.005126   0.401246  -0.004668  -0.030455  -0.024777   0.572778
    13  N    0.332354   0.003712   0.004883   0.000084  -0.000013  -0.000054
    14  O    0.625317   0.005244   0.002302   0.004433   0.000592   0.000291
    15  H   -0.023481  -0.000138  -0.000196  -0.000003  -0.000002   0.000002
    16  H   -0.018318   0.000010  -0.001005  -0.000013   0.000004  -0.000004
             13         14         15         16
     1  H   -0.000029  -0.000002   0.000002   0.000488
     2  C    0.004060  -0.000121  -0.000048  -0.001803
     3  N    0.003111   0.001406  -0.000420  -0.002124
     4  O   -0.011918   0.000002   0.000276   0.022748
     5  C   -0.118417  -0.088981   0.006075   0.002425
     6  H   -0.000011   0.000184   0.000008  -0.000049
     7  C    0.332354   0.625317  -0.023481  -0.018318
     8  C    0.003712   0.005244  -0.000138   0.000010
     9  H    0.004883   0.002302  -0.000196  -0.001005
    10  H    0.000084   0.004433  -0.000003  -0.000013
    11  H   -0.000013   0.000592  -0.000002   0.000004
    12  H   -0.000054   0.000291   0.000002  -0.000004
    13  N    6.945275  -0.096335   0.353793   0.342615
    14  O   -0.096335   8.146658   0.005086   0.002396
    15  H    0.353793   0.005086   0.360304  -0.014134
    16  H    0.342615   0.002396  -0.014134   0.317697
 Mulliken atomic charges:
              1
     1  H    0.118956
     2  C    0.588739
     3  N   -0.687769
     4  O   -0.604293
     5  C   -0.023818
     6  H    0.315726
     7  C    0.748405
     8  C   -0.329065
     9  H    0.173343
    10  H    0.138803
    11  H    0.147065
    12  H    0.123544
    13  N   -0.763110
    14  O   -0.608470
    15  H    0.312877
    16  H    0.349068
 Sum of Mulliken charges=   0.00000
 Atomic charges with hydrogens summed into heavy atoms:
              1
     1  H    0.000000
     2  C    0.707695
     3  N   -0.372043
     4  O   -0.604293
     5  C    0.149525
     6  H    0.000000
     7  C    0.748405
     8  C    0.080347
     9  H    0.000000
    10  H    0.000000
    11  H    0.000000
    12  H    0.000000
    13  N   -0.101165
    14  O   -0.608470
    15  H    0.000000
    16  H    0.000000
 Sum of Mulliken charges=   0.00000
 Electronic spatial extent (au):  <R**2>=   973.4907
 Charge=     0.0000 electrons
 Dipole moment (field-independent basis, Debye):
    X=     1.5005    Y=    -2.0743    Z=     0.9817  Tot=     2.7419
 Quadrupole moment (field-independent basis, Debye-Ang):
   XX=   -58.9622   YY=   -40.7382   ZZ=   -45.6338
   XY=    -0.7811   XZ=     7.6807   YZ=    -1.6597
 Traceless Quadrupole moment (field-independent basis, Debye-Ang):
   XX=   -10.5175   YY=     7.7065   ZZ=     2.8110
   XY=    -0.7811   XZ=     7.6807   YZ=    -1.6597
 Octapole moment (field-independent basis, Debye-Ang**2):
  XXX=     9.8862  YYY=    21.2754  ZZZ=     4.2007  XYY=     0.1254
  XXY=   -14.8523  XXZ=     4.0864  XZZ=     4.8988  YZZ=    -4.1637
  YYZ=     5.5320  XYZ=    -0.6801
 Hexadecapole moment (field-independent basis, Debye-Ang**3):
 XXXX=  -731.7066 YYYY=  -370.9250 ZZZZ=  -108.1632 XXXY=   -13.9103
 XXXZ=    40.9335 YYYX=   -11.3965 YYYZ=    -0.6373 ZZZX=     0.0523
 ZZZY=    -6.2508 XXYY=  -184.1357 XXZZ=  -126.7343 YYZZ=   -88.2051
 XXYZ=    -5.9875 YYXZ=    -2.2411 ZZXY=    -0.7439
 N-N= 3.904956316048D+02 E-N=-1.755443920422D+03  KE= 4.146055255313D+02
 1\1\GINC-NODE216\SP\RHF\6-31G(d,p)\C4H8N2O2\PABLO\17-Feb-2011\0\\#N RH
 F/6-31G(d,p) 5D 7F SCF=(Conver=10) TrackIO GFInput MaxDisk=16GB\\HCO-L
 -Ala-NH2 RHF/6-31(d,p) single point calculation close to the polyproli
 ne II\\0,1\H\C,1,1.0882942483\N,2,1.3402838218,1,112.90692003\O,2,1.19
 52884172,3,125.36332624,1,178.63036317,0\C,3,1.4583595563,2,124.603269
 76,1,176.20284735,0\H,3,0.9915590043,2,116.96612109,5,-167.26951027,0\
 C,5,1.5369448414,3,111.30337797,2,-75.,0\C,5,1.5171170904,3,109.756529
 22,7,-123.93909608,0\H,5,1.0806825021,3,106.69658097,7,117.2528576,0\H
 ,8,1.0813405229,5,111.03447653,3,62.51695207,0\H,8,1.0796907222,5,110.
 20028241,10,118.90319899,0\H,8,1.0821952391,5,109.81734435,10,-121.146
 29254,0\N,7,1.3456530125,5,115.40289302,3,75.,0\O,7,1.1950240612,5,121
 .47750599,13,179.17100577,0\H,13,0.9913391977,7,117.07974532,5,-171.96
 675092,0\H,13,0.9924031739,7,120.33053535,15,158.44988396,0\\Version=A
 M64L-G03RevD.02\State=1-A\HF=-414.803698\RMSD=9.239e-11\Thermal=0.\Dip
 ole=0.2233407,-0.53418,-0.9101917\PG=C01 [X(C4H8N2O2)]\\@


 I take a simple view of life: keep your eyes open and get on with it.
 -- Laurence Olivier
 Job cpu time:  0 days  0 hours  0 minutes 27.4 seconds.
 File lengths (MBytes):  RWF=     23 Int=      0 D2E=      0 Chk=     10 Scr=      1
 Normal termination of Gaussian 03 at Thu Feb 17 18:22:07 2011.
