<?xml version="1.0" encoding="UTF-8"?>
<module cmlx:templateRef="gaussian.log" xmlns="http://www.xml-cml.org/schema" xmlns:cmlx="http://www.xml-cml.org/schema/cmlx"> Entering Gaussian System, Link 0=/usr/local/Gaussian/g03/g03 Initial command: /usr/local/Gaussian/g03/l1.exe /export/scratch//webmo/3299/Gau-10704.inp -scrdir=/export/scratch//webmo/3299/ Entering Link 1 = /usr/local/Gaussian/g03/l1.exe PID=     10707.  <module cmlx:lineCount="60" cmlx:templateRef="l1.legal"><scalar dataType="xsd:string" dictRef="g:l1.legal">Copyright (c) 1988,1990,1992,1993,1995,1998,2003, Gaussian, Inc.</scalar></module>  <module cmlx:lineCount="20" cmlx:templateRef="l1.citation"><list cmlx:templateRef="citation"><scalar dataType="xsd:string" dictRef="g:l1.citation">Cite this work as:</scalar></list></module> <module cmlx:lineCount="25" cmlx:templateRef="l1.end"><scalar dataType="xsd:string" dictRef="cc:run.date">24-Aug-2006</scalar><scalar dataType="xsd:string" dictRef="cc:program">Gaussian 03</scalar><scalar dataType="xsd:string" dictRef="cc:version">Sun64-SVR4-Unix-G03RevB.04</scalar><scalar dataType="xsd:string" dictRef="cc:program.date">2-Jun-2003</scalar><list cmlx:templateRef="control"><scalar dataType="xsd:string" dictRef="g:control">1/14=-1,18=20,26=3,38=1/1,3</scalar><scalar dataType="xsd:string" dictRef="g:control">2/9=110,17=6,18=5,40=1/2</scalar><scalar dataType="xsd:string" dictRef="g:control">3/5=4,6=6,7=111,11=2,16=1,25=1,30=1,74=-5/1,2,3</scalar><scalar dataType="xsd:string" dictRef="g:control">4//1</scalar><scalar dataType="xsd:string" dictRef="g:control">5/5=2,38=5/2</scalar><scalar dataType="xsd:string" dictRef="g:control">6/7=2,8=2,9=2,10=2,28=1/1</scalar><scalar dataType="xsd:string" dictRef="g:control">7//1,2,3,16</scalar><scalar dataType="xsd:string" dictRef="g:control">1/14=-1,18=20/3(1)</scalar><scalar dataType="xsd:string" dictRef="g:control">99//99</scalar><scalar dataType="xsd:string" dictRef="g:control">2/9=110/2</scalar><scalar dataType="xsd:string" dictRef="g:control">3/5=4,6=6,7=111,11=2,16=1,25=1,30=1,74=-5/1,2,3</scalar><scalar dataType="xsd:string" dictRef="g:control">4/5=5,16=3/1</scalar><scalar dataType="xsd:string" dictRef="g:control">5/5=2,38=5/2</scalar><scalar dataType="xsd:string" dictRef="g:control">7//1,2,3,16</scalar><scalar dataType="xsd:string" dictRef="g:control">1/14=-1,18=20/3(-5)</scalar><scalar dataType="xsd:string" dictRef="g:control">2/9=110/2</scalar><scalar dataType="xsd:string" dictRef="g:control">6/7=2,8=2,9=2,10=2,19=2,28=1/1</scalar><scalar dataType="xsd:string" dictRef="g:control">99/9=1/99</scalar></list></module><module cmlx:lineCount="3" cmlx:templateRef="l101.title"><scalar dataType="xsd:string" dictRef="cc:title" cmlx:templateRef="title">chlorobz/cl complex basis</scalar></module><module cmlx:lineCount="50" cmlx:templateRef="l101"><list cmlx:templateRef="rest"><scalar dataType="xsd:string" dictRef="x:l101"/></list></module>                    Isotopes and Nuclear Properties:<module cmlx:lineCount="8" cmlx:templateRef="l101.isotope">  Atom         1           2           3           4           5           6           7           8           9          10 IAtWgt=          12          12          12          12          12          12           1           1           1          35 AtmWgt=  12.0000000  12.0000000  12.0000000  12.0000000  12.0000000  12.0000000   1.0078250   1.0078250   1.0078250  34.9688527 IAtSpn=           0           0           0           0           0           0           1           1           1           3 AtZEff=   0.0000000   0.0000000   0.0000000   0.0000000   0.0000000   0.0000000   0.0000000   0.0000000   0.0000000   0.0000000 AtQMom=   0.0000000   0.0000000   0.0000000   0.0000000   0.0000000   0.0000000   0.0000000   0.0000000   0.0000000  -8.2490000 AtGFac=   0.0000000   0.0000000   0.0000000   0.0000000   0.0000000   0.0000000   2.7928460   2.7928460   2.7928460   0.8218740</module><module cmlx:lineCount="8" cmlx:templateRef="l101.isotope">  Atom        11          12          13 IAtWgt=           1           1          35 AtmWgt=   1.0078250   1.0078250  34.9688527 IAtSpn=           1           1           3 AtZEff=   0.0000000   0.0000000   0.0000000 AtQMom=   0.0000000   0.0000000  -8.2490000 AtGFac=   2.7928460   2.7928460   0.8218740</module><module cmlx:lineCount="90" cmlx:templateRef="l103"><list cmlx:templateRef="berny"><scalar dataType="xsd:string" dictRef="g:optimization">Initialization pass.</scalar></list><module cmlx:lineCount="83" cmlx:templateRef="l103.init"><list cmlx:templateRef="length"><array dataType="xsd:string" size="16" dictRef="g:symbol">R1 R2 R3 R4 R5 R6 R7 R8 R9 R10 R11 R12 R13 R14 R15 R16</array><array dataType="xsd:integer" size="16" dictRef="g:atom1">1 1 1 1 2 2 2 3 3 4 4 5 5 6 6 7</array><array dataType="xsd:integer" size="16" dictRef="g:atom2">2 6 7 13 3 8 13 4 9 5 10 6 11 12 13 13</array><array dataType="xsd:double" size="16" dictRef="cc:distance">1.4084 1.4083 1.0806 2.5789 1.3804 1.0824 3.1015 1.3959 1.0817 1.3958 1.7433 1.3804 1.0818 1.0824 3.1015 2.6604</array><array delimiter="|" dataType="xsd:string" size="16" dictRef="g:deriv">|estimate D2E/DX2|estimate D2E/DX2|estimate D2E/DX2|estimate D2E/DX2|estimate D2E/DX2|estimate D2E/DX2|estimate D2E/DX2|estimate D2E/DX2|estimate D2E/DX2|estimate D2E/DX2|estimate D2E/DX2|estimate D2E/DX2|estimate D2E/DX2|estimate D2E/DX2|estimate D2E/DX2|estimate D2E/DX2|</array></list><list cmlx:templateRef="angle"><array dataType="xsd:string" size="25" dictRef="g:symbol">A1 A2 A3 A4 A5 A6 A7 A8 A9 A10 A11 A12 A13 A14 A15 A16 A17 A18 A19 A20 A21 A22 A23 A24 A25</array><array dataType="xsd:integer" size="25" dictRef="g:atom1">2 2 6 1 1 3 3 8 2 2 4 3 3 5 4 4 6 1 1 5 5 12 2 2 6</array><array dataType="xsd:integer" size="25" dictRef="g:atom2">1 1 1 2 2 2 2 2 3 3 3 4 4 4 5 5 5 6 6 6 6 6 13 13 13</array><array dataType="xsd:integer" size="25" dictRef="g:atom3">6 7 7 3 8 8 13 13 4 9 9 5 10 10 6 11 11 5 12 12 13 13 6 7 7</array><array dataType="xsd:double" size="25" dictRef="cc:angle">119.4815 119.9324 119.9412 120.3729 119.5569 120.0646 115.8689 96.7842 118.9895 121.1221 119.8883 121.7736 119.1092 119.1172 118.9876 119.8861 121.1263 120.3798 119.5494 120.0652 115.8665 96.7873 46.1864 43.2155 43.2163</array><array delimiter="|" dataType="xsd:string" size="25" dictRef="g:deriv">|estimate D2E/DX2|estimate D2E/DX2|estimate D2E/DX2|estimate D2E/DX2|estimate D2E/DX2|estimate D2E/DX2|estimate D2E/DX2|estimate D2E/DX2|estimate D2E/DX2|estimate D2E/DX2|estimate D2E/DX2|estimate D2E/DX2|estimate D2E/DX2|estimate D2E/DX2|estimate D2E/DX2|estimate D2E/DX2|estimate D2E/DX2|estimate D2E/DX2|estimate D2E/DX2|estimate D2E/DX2|estimate D2E/DX2|estimate D2E/DX2|estimate D2E/DX2|estimate D2E/DX2|estimate D2E/DX2|</array></list><list cmlx:templateRef="dihed"><array dataType="xsd:string" size="35" dictRef="g:symbol">D1 D2 D3 D4 D5 D6 D7 D8 D9 D10 D11 D12 D13 D14 D15 D16 D17 D18 D19 D20 D21 D22 D23 D24 D25 D26 D27 D28 D29 D30 D31 D32 D33 D34 D35</array><array dataType="xsd:integer" size="35" dictRef="g:atom1">6 6 7 7 2 2 7 7 1 1 8 8 13 13 3 3 8 8 2 2 9 9 3 3 10 10 4 4 4 11 11 11 5 5 12</array><array dataType="xsd:integer" size="35" dictRef="g:atom2">1 1 1 1 1 1 1 1 2 2 2 2 2 2 2 2 2 2 3 3 3 3 4 4 4 4 5 5 5 5 5 5 6 6 6</array><array dataType="xsd:integer" size="35" dictRef="g:atom3">2 2 2 2 6 6 6 6 3 3 3 3 3 3 13 13 13 13 4 4 4 4 5 5 5 5 6 6 6 6 6 6 13 13 13</array><array dataType="xsd:integer" size="35" dictRef="g:atom4">3 8 3 8 5 12 5 12 4 9 4 9 4 9 6 7 6 7 5 10 5 10 6 11 6 11 1 12 13 1 12 13 2 7 2</array><array dataType="xsd:double" size="35" dictRef="cc:dihed">1.4093 -179.4558 172.2009 -8.6643 -1.4158 179.4446 -172.2065 8.6539 -0.708 179.2469 -179.8385 0.1164 -64.2196 115.7353 78.2177 141.23 -153.5845 -90.5722 0.0021 179.9969 -179.9534 0.0414 -0.0083 179.9468 179.9968 -0.048 0.7206 179.8557 64.2341 -179.234 -0.0989 -115.7205 -78.2262 -141.2368 153.5743</array><array delimiter="|" dataType="xsd:string" size="35" dictRef="g:deriv">|estimate D2E/DX2|estimate D2E/DX2|estimate D2E/DX2|estimate D2E/DX2|estimate D2E/DX2|estimate D2E/DX2|estimate D2E/DX2|estimate D2E/DX2|estimate D2E/DX2|estimate D2E/DX2|estimate D2E/DX2|estimate D2E/DX2|estimate D2E/DX2|estimate D2E/DX2|estimate D2E/DX2|estimate D2E/DX2|estimate D2E/DX2|estimate D2E/DX2|estimate D2E/DX2|estimate D2E/DX2|estimate D2E/DX2|estimate D2E/DX2|estimate D2E/DX2|estimate D2E/DX2|estimate D2E/DX2|estimate D2E/DX2|estimate D2E/DX2|estimate D2E/DX2|estimate D2E/DX2|estimate D2E/DX2|estimate D2E/DX2|estimate D2E/DX2|estimate D2E/DX2|estimate D2E/DX2|estimate D2E/DX2|</array></list> ! D36   D(12,6,13,7)           90.5638         estimate D2E/DX2                !</module> --------------------------------------------------------------------------------<module cmlx:lineCount="2" cmlx:templateRef="l103.trust"><list cmlx:templateRef="length"><list><scalar dataType="xsd:double" dictRef="g:trustrad">0.3</scalar><scalar dataType="xsd:double" dictRef="g:fncerr">1.0E-7</scalar><scalar dataType="xsd:double" dictRef="g:grderr">1.0E-6</scalar></list></list><list cmlx:templateRef="angle"><list><scalar dataType="xsd:integer" dictRef="g:nstep">87</scalar><scalar dataType="xsd:integer" dictRef="g:allowedstep">100</scalar></list></list></module> GradGradGradGradGradGradGradGradGradGradGradGradGradGradGradGradGradGrad</module><module cmlx:lineCount="19" cmlx:templateRef="l202.orient"><molecule id="mol.l202.orient" cmlx:templateRef="atom"><atomArray><atom id="a1" elementType="C" x3="0.0" y3="0.0" z3="0.0"><scalar dataType="xsd:integer" dictRef="cc:serial">1</scalar><scalar dataType="xsd:integer" dictRef="g:atomicType">0</scalar><scalar dataType="xsd:integer" dictRef="compchem:atomicNumber">6</scalar></atom><atom id="a2" elementType="C" x3="0.0" y3="0.0" z3="1.408419"><scalar dataType="xsd:integer" dictRef="cc:serial">2</scalar><scalar dataType="xsd:integer" dictRef="g:atomicType">0</scalar><scalar dataType="xsd:integer" dictRef="compchem:atomicNumber">6</scalar></atom><atom id="a3" elementType="C" x3="1.190955" y3="0.0" z3="2.106391"><scalar dataType="xsd:integer" dictRef="cc:serial">3</scalar><scalar dataType="xsd:integer" dictRef="g:atomicType">0</scalar><scalar dataType="xsd:integer" dictRef="compchem:atomicNumber">6</scalar></atom><atom id="a4" elementType="C" x3="2.391914" y3="-0.015087" z3="1.395134"><scalar dataType="xsd:integer" dictRef="cc:serial">4</scalar><scalar dataType="xsd:integer" dictRef="g:atomicType">0</scalar><scalar dataType="xsd:integer" dictRef="compchem:atomicNumber">6</scalar></atom><atom id="a5" elementType="C" x3="2.41954" y3="-0.030095" z3="-3.47E-4"><scalar dataType="xsd:integer" dictRef="cc:serial">5</scalar><scalar dataType="xsd:integer" dictRef="g:atomicType">0</scalar><scalar dataType="xsd:integer" dictRef="compchem:atomicNumber">6</scalar></atom><atom id="a6" elementType="C" x3="1.225606" y3="-0.030153" z3="-0.693101"><scalar dataType="xsd:integer" dictRef="cc:serial">6</scalar><scalar dataType="xsd:integer" dictRef="g:atomicType">0</scalar><scalar dataType="xsd:integer" dictRef="compchem:atomicNumber">6</scalar></atom><atom id="a7" elementType="H" x3="-0.927838" y3="-0.127084" z3="-0.539217"><scalar dataType="xsd:integer" dictRef="cc:serial">7</scalar><scalar dataType="xsd:integer" dictRef="g:atomicType">0</scalar><scalar dataType="xsd:integer" dictRef="compchem:atomicNumber">1</scalar></atom><atom id="a8" elementType="H" x3="-0.941436" y3="0.014216" z3="1.942354"><scalar dataType="xsd:integer" dictRef="cc:serial">8</scalar><scalar dataType="xsd:integer" dictRef="g:atomicType">0</scalar><scalar dataType="xsd:integer" dictRef="compchem:atomicNumber">1</scalar></atom><atom id="a9" elementType="H" x3="1.205141" y3="0.012172" z3="3.187978"><scalar dataType="xsd:integer" dictRef="cc:serial">9</scalar><scalar dataType="xsd:integer" dictRef="g:atomicType">0</scalar><scalar dataType="xsd:integer" dictRef="compchem:atomicNumber">1</scalar></atom><atom id="a10" elementType="Cl" x3="3.897832" y3="-0.01505" z3="2.273471"><scalar dataType="xsd:integer" dictRef="cc:serial">10</scalar><scalar dataType="xsd:integer" dictRef="g:atomicType">0</scalar><scalar dataType="xsd:integer" dictRef="compchem:atomicNumber">17</scalar></atom><atom id="a11" elementType="H" x3="3.367916" y3="-0.040699" z3="-0.520613"><scalar dataType="xsd:integer" dictRef="cc:serial">11</scalar><scalar dataType="xsd:integer" dictRef="g:atomicType">0</scalar><scalar dataType="xsd:integer" dictRef="compchem:atomicNumber">1</scalar></atom><atom id="a12" elementType="H" x3="1.226686" y3="-0.03931" z3="-1.775485"><scalar dataType="xsd:integer" dictRef="cc:serial">12</scalar><scalar dataType="xsd:integer" dictRef="g:atomicType">0</scalar><scalar dataType="xsd:integer" dictRef="compchem:atomicNumber">1</scalar></atom><atom id="a13" elementType="Cl" x3="-0.538148" y3="2.497766" z3="-0.349689"><scalar dataType="xsd:integer" dictRef="cc:serial">13</scalar><scalar dataType="xsd:integer" dictRef="g:atomicType">0</scalar><scalar dataType="xsd:integer" dictRef="compchem:atomicNumber">17</scalar></atom></atomArray><formula formalCharge="0" concise="C 6 H 5 Cl 2"><atomArray elementType="C H Cl" count="6.0 5.0 2.0"/></formula><bondArray><bond atomRefs2="a1 a2" id="a1_a2" order="2"/><bond atomRefs2="a1 a6" id="a1_a6" order="S"/><bond atomRefs2="a1 a7" id="a1_a7" order="S"/><bond atomRefs2="a2 a3" id="a2_a3" order="S"/><bond atomRefs2="a2 a8" id="a2_a8" order="S"/><bond atomRefs2="a3 a4" id="a3_a4" order="2"/><bond atomRefs2="a3 a9" id="a3_a9" order="S"/><bond atomRefs2="a4 a5" id="a4_a5" order="S"/><bond atomRefs2="a4 a10" id="a4_a10" order="S"/><bond atomRefs2="a5 a6" id="a5_a6" order="2"/><bond atomRefs2="a5 a11" id="a5_a11" order="S"/><bond atomRefs2="a6 a12" id="a6_a12" order="S"/></bondArray><property dictRef="cml:molmass"><scalar dataType="xsd:double" units="unit:dalton" xmlns:unit="http://www.xml-cml.org/unit/si/">148.00990000000002</scalar></property></molecule></module><module cmlx:lineCount="2" cmlx:templateRef="l202.distmat"/>     1  C    0.000000     2  C    1.408419   0.000000     3  C    2.419764   1.380412   0.000000     4  C    2.769094   2.391999   1.395857   0.000000     5  C    2.419727   2.799947   2.438990   1.395835   0.000000     6  C    1.408335   2.432983   2.799869   2.391909   1.380358     7  H    1.080643   2.161092   3.391854   3.843828   3.391862     8  H    2.158527   1.082400   2.138738   3.378095   3.882294     9  H    3.408184   2.149265   1.081749   2.150224   3.412033    10  Cl   4.512427   3.992698   2.712071   1.743349   2.712162    11  H    3.408160   3.881453   3.412032   2.150191   1.081760    12  H    2.158391   3.412265   3.882240   3.378043   2.138715    13  Cl   2.578899   3.101513   3.906528   4.236048   3.906410                    6          7          8          9         10     6  C    0.000000     7  H    2.161110   0.000000     8  H    3.412280   2.485627   0.000000     9  H    3.881364   4.296623   2.481808   0.000000    10  Cl   3.992690   5.586668   4.850671   2.843880   0.000000    11  H    2.149269   4.296663   4.963842   4.293488   2.844007    12  H    1.082424   2.485565   4.304177   4.963777   4.850738    13  Cl   3.101473   2.660379   3.403545   4.661794   5.733509                   11         12         13    11  H    0.000000    12  H    2.481849   0.000000    13  Cl   4.661583   3.403569   0.000000<module cmlx:lineCount="6" cmlx:templateRef="l202.stoich"><scalar dataType="xsd:string" dictRef="cc:formula" cmlx:templateRef="stoich">C6H5Cl2(2)</scalar><scalar dataType="xsd:string" dictRef="cc:frameworkgroup" cmlx:templateRef="framework">C1[X(C6H5Cl2)]</scalar><scalar dataType="xsd:integer" dictRef="cc:degfreedom" cmlx:templateRef="degfreedom">33</scalar><scalar dataType="xsd:string" dictRef="cc:pointgroup">C1</scalar><scalar dataType="xsd:integer" dictRef="cc:operatorcount">1</scalar><scalar dataType="xsd:string" dictRef="cc:largestabelian">C1</scalar><scalar dataType="xsd:integer" dictRef="cc:operatorcount">1</scalar><scalar dataType="xsd:string" dictRef="cc:largestconciseabelian">C1</scalar><scalar dataType="xsd:integer" dictRef="cc:operatorcount">1</scalar></module><module cmlx:lineCount="19" cmlx:templateRef="l202.orient"><molecule id="a13" cmlx:templateRef="atom"><atomArray><atom id="a1" elementType="C" x3="-1.279048" y3="1.4E-4" z3="1.120639"><scalar dataType="xsd:integer" dictRef="cc:serial">1</scalar><scalar dataType="xsd:integer" dictRef="g:atomicType">0</scalar><scalar dataType="xsd:integer" dictRef="compchem:atomicNumber">6</scalar></atom><atom id="a2" elementType="C" x3="-0.616389" y3="1.216643" z3="0.866378"><scalar dataType="xsd:integer" dictRef="cc:serial">2</scalar><scalar dataType="xsd:integer" dictRef="g:atomicType">0</scalar><scalar dataType="xsd:integer" dictRef="compchem:atomicNumber">6</scalar></atom><atom id="a3" elementType="C" x3="0.661726" y3="1.21951" z3="0.344888"><scalar dataType="xsd:integer" dictRef="cc:serial">3</scalar><scalar dataType="xsd:integer" dictRef="g:atomicType">0</scalar><scalar dataType="xsd:integer" dictRef="compchem:atomicNumber">6</scalar></atom><atom id="a4" elementType="C" x3="1.290479" y3="-5.0E-5" z3="0.088451"><scalar dataType="xsd:integer" dictRef="cc:serial">4</scalar><scalar dataType="xsd:integer" dictRef="g:atomicType">0</scalar><scalar dataType="xsd:integer" dictRef="compchem:atomicNumber">6</scalar></atom><atom id="a5" elementType="C" x3="0.661607" y3="-1.21948" z3="0.345097"><scalar dataType="xsd:integer" dictRef="cc:serial">5</scalar><scalar dataType="xsd:integer" dictRef="g:atomicType">0</scalar><scalar dataType="xsd:integer" dictRef="compchem:atomicNumber">6</scalar></atom><atom id="a6" elementType="C" x3="-0.616407" y3="-1.21634" z3="0.866688"><scalar dataType="xsd:integer" dictRef="cc:serial">6</scalar><scalar dataType="xsd:integer" dictRef="g:atomicType">0</scalar><scalar dataType="xsd:integer" dictRef="compchem:atomicNumber">6</scalar></atom><atom id="a7" elementType="H" x3="-2.224639" y3="2.78E-4" z3="1.643751"><scalar dataType="xsd:integer" dictRef="cc:serial">7</scalar><scalar dataType="xsd:integer" dictRef="g:atomicType">0</scalar><scalar dataType="xsd:integer" dictRef="compchem:atomicNumber">1</scalar></atom><atom id="a8" elementType="H" x3="-1.121287" y3="2.152286" z3="1.069452"><scalar dataType="xsd:integer" dictRef="cc:serial">8</scalar><scalar dataType="xsd:integer" dictRef="g:atomicType">0</scalar><scalar dataType="xsd:integer" dictRef="compchem:atomicNumber">1</scalar></atom><atom id="a9" elementType="H" x3="1.177325" y3="2.146719" z3="0.13365"><scalar dataType="xsd:integer" dictRef="cc:serial">9</scalar><scalar dataType="xsd:integer" dictRef="g:atomicType">0</scalar><scalar dataType="xsd:integer" dictRef="compchem:atomicNumber">1</scalar></atom><atom id="a10" elementType="Cl" x3="2.904607" y3="-7.1E-5" z3="-0.570226"><scalar dataType="xsd:integer" dictRef="cc:serial">10</scalar><scalar dataType="xsd:integer" dictRef="g:atomicType">0</scalar><scalar dataType="xsd:integer" dictRef="compchem:atomicNumber">17</scalar></atom><atom id="a11" elementType="H" x3="1.177106" y3="-2.146769" z3="0.133906"><scalar dataType="xsd:integer" dictRef="cc:serial">11</scalar><scalar dataType="xsd:integer" dictRef="g:atomicType">0</scalar><scalar dataType="xsd:integer" dictRef="compchem:atomicNumber">1</scalar></atom><atom id="a12" elementType="H" x3="-1.121347" y3="-2.151891" z3="1.070209"><scalar dataType="xsd:integer" dictRef="cc:serial">12</scalar><scalar dataType="xsd:integer" dictRef="g:atomicType">0</scalar><scalar dataType="xsd:integer" dictRef="compchem:atomicNumber">1</scalar></atom><atom id="a13" elementType="Cl" x3="-2.816311" y3="-1.15E-4" z3="-0.949999"><scalar dataType="xsd:integer" dictRef="cc:serial">13</scalar><scalar dataType="xsd:integer" dictRef="g:atomicType">0</scalar><scalar dataType="xsd:integer" dictRef="compchem:atomicNumber">17</scalar></atom></atomArray><formula formalCharge="0" concise="C 6 H 5 Cl 2"><atomArray elementType="C H Cl" count="6.0 5.0 2.0"/></formula><bondArray><bond atomRefs2="a1 a2" id="a1_a2" order="2"/><bond atomRefs2="a1 a6" id="a1_a6" order="S"/><bond atomRefs2="a1 a7" id="a1_a7" order="S"/><bond atomRefs2="a2 a3" id="a2_a3" order="S"/><bond atomRefs2="a2 a8" id="a2_a8" order="S"/><bond atomRefs2="a3 a4" id="a3_a4" order="2"/><bond atomRefs2="a3 a9" id="a3_a9" order="S"/><bond atomRefs2="a4 a5" id="a4_a5" order="S"/><bond atomRefs2="a4 a10" id="a4_a10" order="S"/><bond atomRefs2="a5 a6" id="a5_a6" order="2"/><bond atomRefs2="a5 a11" id="a5_a11" order="S"/><bond atomRefs2="a6 a12" id="a6_a12" order="S"/></bondArray><property dictRef="cml:molmass"><scalar dataType="xsd:double" units="unit:dalton" xmlns:unit="http://www.xml-cml.org/unit/si/">148.00990000000002</scalar></property></molecule></module><module cmlx:lineCount="1" cmlx:templateRef="l202.rotconst"><array dataType="xsd:double" size="3" dictRef="cc:rotconst" cmlx:templateRef="rotconst">2.9114523 0.6963645 0.6905763</array></module><scalar dataType="xsd:integer" dictRef="g:buffer" cmlx:templateRef="buffer">131072</scalar><scalar dataType="xsd:string" dictRef="g:raffenetti" cmlx:templateRef="raff">Raffenetti</scalar><scalar dataType="xsd:string" dictRef="g:twoe" cmlx:templateRef="twoe">Two-electron</scalar><module cmlx:lineCount="12" cmlx:templateRef="l301.basis"><scalar dataType="xsd:string" dictRef="cc:basis">6-311+G(d,p)</scalar><scalar dataType="xsd:string" dictRef="cc:diffuse">(5D, 7F)</scalar><list cmlx:lineCount="1" cmlx:templateRef="symmadapt"><array dataType="xsd:integer" dictRef="cc:adapted" size="1">222</array><array dataType="xsd:string" dictRef="cc:symm" size="1">A</array></list><scalar dataType="xsd:integer" dictRef="cc:basiscount">222</scalar><scalar dataType="xsd:integer" dictRef="g:primbasis">362</scalar><scalar dataType="xsd:integer" dictRef="cc:cartesianbasis">230</scalar><scalar dataType="xsd:integer" dictRef="cc:alphae">38</scalar><scalar dataType="xsd:integer" dictRef="cc:betae">37</scalar> IExCor= 402 DFT=T Ex=B+HF Corr=LYP ExCW=0 ScaHFX=  0.200000 ScaDFX=  0.800000  0.720000  1.000000  0.810000 IRadAn=      0 IRanWt=     -1 IRanGd=            0 ICorTp=0 NAtoms=   13 NActive=   13 NUniq=   13 SFac= 1.00D+00 NAtFMM=   60 Big=F</module> NPDir=0 NMtPBC=     1 NCelOv=     1 NCel=       1 NClECP=     1 NCelD=      1         NCelK=      1 NCelE2=     1 NClLst=     1 CellRange=     0.0.<module cmlx:lineCount="1" cmlx:templateRef="l302.basis"><list cmlx:templateRef="onee"><scalar dataType="xsd:string" dictRef="g:onee">One-electron integrals</scalar></list></module> NBasis=   222 RedAO= T  NBF=   222 NBsUse=   222 1.00D-06 NBFU=   222 Precomputing XC quadrature grid using IXCGrd= 2 IRadAn=           0 IRanWt=          -1 IRanGd=           0. NRdTot=     831 NPtTot=      105450 NUsed=      111320 NTot=      111352 NSgBfM=   226   226   226   226.<module cmlx:lineCount="1" cmlx:templateRef="l303.basis"><list cmlx:templateRef="l303"><scalar dataType="xsd:integer" dictRef="g:dipdrv">1</scalar></list></module> Harris functional with IExCor=  402 diagonalized for initial guess. ExpMin= 4.38D-02 ExpMax= 1.06D+05 ExpMxC= 3.62D+03 IAcc=2 IRadAn=         4 AccDes= 0.00D+00 HarFok:  IExCor= 402 AccDes= 0.00D+00 IRadAn=         4 IDoV=1 ScaDFX=  1.000000  1.000000  1.000000  1.000000 Harris En= -1152.17685445277     Initial guess orbital symmetries:<module cmlx:lineCount="21" cmlx:templateRef="l401.alphabeta"><list cmlx:templateRef="alphabeta"><scalar dataType="xsd:string" dictRef="g:l401.type">Alpha</scalar></list><list cmlx:templateRef="l401"><scalar dataType="xsd:string" dictRef="g:l401">Occupied  (A) (A) (A) (A) (A) (A) (A) (A) (A) (A) (A) (A)</scalar><scalar dataType="xsd:string" dictRef="g:l401">(A) (A) (A) (A) (A) (A) (A) (A) (A) (A) (A) (A)</scalar><scalar dataType="xsd:string" dictRef="g:l401">(A) (A) (A) (A) (A) (A) (A) (A) (A) (A) (A) (A)</scalar><scalar dataType="xsd:string" dictRef="g:l401">(A) (A)</scalar><scalar dataType="xsd:string" dictRef="g:l401">Virtual   (A) (A) (A) (A) (A) (A) (A) (A) (A) (A) (A) (A)</scalar><scalar dataType="xsd:string" dictRef="g:l401">(A) (A) (A) (A) (A) (A) (A) (A) (A) (A) (A) (A)</scalar><scalar dataType="xsd:string" dictRef="g:l401">(A) (A) (A) (A) (A) (A) (A) (A) (A) (A) (A) (A)</scalar><scalar dataType="xsd:string" dictRef="g:l401">(A) (A) (A) (A) (A) (A) (A) (A) (A) (A) (A) (A)</scalar><scalar dataType="xsd:string" dictRef="g:l401">(A) (A) (A) (A) (A) (A) (A) (A) (A) (A) (A) (A)</scalar><scalar dataType="xsd:string" dictRef="g:l401">(A) (A) (A) (A) (A) (A) (A) (A) (A) (A) (A) (A)</scalar><scalar dataType="xsd:string" dictRef="g:l401">(A) (A) (A) (A) (A) (A) (A) (A) (A) (A) (A) (A)</scalar><scalar dataType="xsd:string" dictRef="g:l401">(A) (A) (A) (A) (A) (A) (A) (A) (A) (A) (A) (A)</scalar><scalar dataType="xsd:string" dictRef="g:l401">(A) (A) (A) (A) (A) (A) (A) (A) (A) (A) (A) (A)</scalar><scalar dataType="xsd:string" dictRef="g:l401">(A) (A) (A) (A) (A) (A) (A) (A) (A) (A) (A) (A)</scalar><scalar dataType="xsd:string" dictRef="g:l401">(A) (A) (A) (A) (A) (A) (A) (A) (A) (A) (A) (A)</scalar><scalar dataType="xsd:string" dictRef="g:l401">(A) (A) (A) (A) (A) (A) (A) (A) (A) (A) (A) (A)</scalar><scalar dataType="xsd:string" dictRef="g:l401">(A) (A) (A) (A) (A) (A) (A) (A) (A) (A) (A) (A)</scalar><scalar dataType="xsd:string" dictRef="g:l401">(A) (A) (A) (A) (A) (A) (A) (A) (A) (A) (A) (A)</scalar><scalar dataType="xsd:string" dictRef="g:l401">(A) (A) (A) (A) (A) (A) (A) (A) (A) (A) (A) (A)</scalar><scalar dataType="xsd:string" dictRef="g:l401">(A) (A) (A) (A)</scalar></list></module><module cmlx:lineCount="21" cmlx:templateRef="l401.alphabeta"><list cmlx:templateRef="alphabeta"><scalar dataType="xsd:string" dictRef="g:l401.type">Beta</scalar></list><list cmlx:templateRef="l401"><scalar dataType="xsd:string" dictRef="g:l401">Occupied  (A) (A) (A) (A) (A) (A) (A) (A) (A) (A) (A) (A)</scalar><scalar dataType="xsd:string" dictRef="g:l401">(A) (A) (A) (A) (A) (A) (A) (A) (A) (A) (A) (A)</scalar><scalar dataType="xsd:string" dictRef="g:l401">(A) (A) (A) (A) (A) (A) (A) (A) (A) (A) (A) (A)</scalar><scalar dataType="xsd:string" dictRef="g:l401">(A)</scalar><scalar dataType="xsd:string" dictRef="g:l401">Virtual   (A) (A) (A) (A) (A) (A) (A) (A) (A) (A) (A) (A)</scalar><scalar dataType="xsd:string" dictRef="g:l401">(A) (A) (A) (A) (A) (A) (A) (A) (A) (A) (A) (A)</scalar><scalar dataType="xsd:string" dictRef="g:l401">(A) (A) (A) (A) (A) (A) (A) (A) (A) (A) (A) (A)</scalar><scalar dataType="xsd:string" dictRef="g:l401">(A) (A) (A) (A) (A) (A) (A) (A) (A) (A) (A) (A)</scalar><scalar dataType="xsd:string" dictRef="g:l401">(A) (A) (A) (A) (A) (A) (A) (A) (A) (A) (A) (A)</scalar><scalar dataType="xsd:string" dictRef="g:l401">(A) (A) (A) (A) (A) (A) (A) (A) (A) (A) (A) (A)</scalar><scalar dataType="xsd:string" dictRef="g:l401">(A) (A) (A) (A) (A) (A) (A) (A) (A) (A) (A) (A)</scalar><scalar dataType="xsd:string" dictRef="g:l401">(A) (A) (A) (A) (A) (A) (A) (A) (A) (A) (A) (A)</scalar><scalar dataType="xsd:string" dictRef="g:l401">(A) (A) (A) (A) (A) (A) (A) (A) (A) (A) (A) (A)</scalar><scalar dataType="xsd:string" dictRef="g:l401">(A) (A) (A) (A) (A) (A) (A) (A) (A) (A) (A) (A)</scalar><scalar dataType="xsd:string" dictRef="g:l401">(A) (A) (A) (A) (A) (A) (A) (A) (A) (A) (A) (A)</scalar><scalar dataType="xsd:string" dictRef="g:l401">(A) (A) (A) (A) (A) (A) (A) (A) (A) (A) (A) (A)</scalar><scalar dataType="xsd:string" dictRef="g:l401">(A) (A) (A) (A) (A) (A) (A) (A) (A) (A) (A) (A)</scalar><scalar dataType="xsd:string" dictRef="g:l401">(A) (A) (A) (A) (A) (A) (A) (A) (A) (A) (A) (A)</scalar><scalar dataType="xsd:string" dictRef="g:l401">(A) (A) (A) (A) (A) (A) (A) (A) (A) (A) (A) (A)</scalar><scalar dataType="xsd:string" dictRef="g:l401">(A) (A) (A) (A) (A)</scalar></list></module> The electronic state of the initial guess is 2-A. &lt;S**2&gt; of initial guess= 0.7500<module cmlx:lineCount="381" cmlx:templateRef="l502"><list cmlx:templateRef="l502.type"><scalar dataType="xsd:string" dictRef="g:l502.type">UHF open</scalar></list> Requested convergence on RMS density matrix=1.00D-08 within 128 cycles. Requested convergence on MAX density matrix=1.00D-06. Requested convergence on             energy=1.00D-06. No special actions if energy rises. Using DIIS extrapolation, IDIIS=  1040. Integral symmetry usage will be decided dynamically.       111319 words used for storage of precomputed grid. IEnd=    316322 IEndB=    316322 NGot=   6291456 MDV=   6044905 LenX=   6044905 Fock matrices will be formed incrementally for  20 cycles.<module cmlx:lineCount="18" cmlx:templateRef="l502.cycle"><list cmlx:templateRef="cycle"><list><scalar dataType="xsd:integer" dictRef="cc:cycle">1</scalar><scalar dataType="xsd:integer" dictRef="g:pass">1</scalar><scalar dataType="xsd:integer" dictRef="g:idiag">1</scalar></list></list><module cmlx:lineCount="1" cmlx:templateRef="l502.e"><list cmlx:templateRef="l502.e"><scalar dataType="xsd:double" dictRef="g:l502.e">-1151.88918752658</scalar></list></module></module><module cmlx:lineCount="14" cmlx:templateRef="l502.cycle"><list cmlx:templateRef="cycle"><list><scalar dataType="xsd:integer" dictRef="cc:cycle">2</scalar><scalar dataType="xsd:integer" dictRef="g:pass">1</scalar><scalar dataType="xsd:integer" dictRef="g:idiag">1</scalar></list></list><module cmlx:lineCount="1" cmlx:templateRef="l502.ediff"><list cmlx:templateRef="l502.ediff"><list><scalar dataType="xsd:double" dictRef="g:l502.e">-1151.97134295194</scalar><scalar dataType="xsd:double" dictRef="g:l502.deltae">-0.082155425359</scalar></list></list></module></module><module cmlx:lineCount="14" cmlx:templateRef="l502.cycle"><list cmlx:templateRef="cycle"><list><scalar dataType="xsd:integer" dictRef="cc:cycle">3</scalar><scalar dataType="xsd:integer" dictRef="g:pass">1</scalar><scalar dataType="xsd:integer" dictRef="g:idiag">1</scalar></list></list><module cmlx:lineCount="1" cmlx:templateRef="l502.ediff"><list cmlx:templateRef="l502.ediff"><list><scalar dataType="xsd:double" dictRef="g:l502.e">-1152.10751717632</scalar><scalar dataType="xsd:double" dictRef="g:l502.deltae">-0.13617422438</scalar></list></list></module></module><module cmlx:lineCount="14" cmlx:templateRef="l502.cycle"><list cmlx:templateRef="cycle"><list><scalar dataType="xsd:integer" dictRef="cc:cycle">4</scalar><scalar dataType="xsd:integer" dictRef="g:pass">1</scalar><scalar dataType="xsd:integer" dictRef="g:idiag">1</scalar></list></list><module cmlx:lineCount="1" cmlx:templateRef="l502.ediff"><list cmlx:templateRef="l502.ediff"><list><scalar dataType="xsd:double" dictRef="g:l502.e">-1152.11160890396</scalar><scalar dataType="xsd:double" dictRef="g:l502.deltae">-0.004091727643</scalar></list></list></module></module><module cmlx:lineCount="14" cmlx:templateRef="l502.cycle"><list cmlx:templateRef="cycle"><list><scalar dataType="xsd:integer" dictRef="cc:cycle">5</scalar><scalar dataType="xsd:integer" dictRef="g:pass">1</scalar><scalar dataType="xsd:integer" dictRef="g:idiag">1</scalar></list></list><module cmlx:lineCount="1" cmlx:templateRef="l502.ediff"><list cmlx:templateRef="l502.ediff"><list><scalar dataType="xsd:double" dictRef="g:l502.e">-1152.11645624323</scalar><scalar dataType="xsd:double" dictRef="g:l502.deltae">-0.004847339265</scalar></list></list></module></module><module cmlx:lineCount="14" cmlx:templateRef="l502.cycle"><list cmlx:templateRef="cycle"><list><scalar dataType="xsd:integer" dictRef="cc:cycle">6</scalar><scalar dataType="xsd:integer" dictRef="g:pass">1</scalar><scalar dataType="xsd:integer" dictRef="g:idiag">1</scalar></list></list><module cmlx:lineCount="1" cmlx:templateRef="l502.ediff"><list cmlx:templateRef="l502.ediff"><list><scalar dataType="xsd:double" dictRef="g:l502.e">-1152.11666842636</scalar><scalar dataType="xsd:double" dictRef="g:l502.deltae">-2.12183138E-4</scalar></list></list></module></module><module cmlx:lineCount="18" cmlx:templateRef="l502.cycle"><list cmlx:templateRef="cycle"><list><scalar dataType="xsd:integer" dictRef="cc:cycle">7</scalar><scalar dataType="xsd:integer" dictRef="g:pass">1</scalar><scalar dataType="xsd:integer" dictRef="g:idiag">1</scalar></list></list>                    CP:  1.01D+00<module cmlx:lineCount="1" cmlx:templateRef="l502.ediff"><list cmlx:templateRef="l502.ediff"><list><scalar dataType="xsd:double" dictRef="g:l502.e">-1152.11669912385</scalar><scalar dataType="xsd:double" dictRef="g:l502.deltae">-3.0697488E-5</scalar></list></list></module></module><module cmlx:lineCount="18" cmlx:templateRef="l502.cycle"><list cmlx:templateRef="cycle"><list><scalar dataType="xsd:integer" dictRef="cc:cycle">8</scalar><scalar dataType="xsd:integer" dictRef="g:pass">1</scalar><scalar dataType="xsd:integer" dictRef="g:idiag">1</scalar></list></list>                    CP:  1.15D+00  8.48D-01<module cmlx:lineCount="1" cmlx:templateRef="l502.ediff"><list cmlx:templateRef="l502.ediff"><list><scalar dataType="xsd:double" dictRef="g:l502.e">-1152.11671443243</scalar><scalar dataType="xsd:double" dictRef="g:l502.deltae">-1.5308581E-5</scalar></list></list></module></module><module cmlx:lineCount="16" cmlx:templateRef="l502.cycle"><list cmlx:templateRef="cycle"><list><scalar dataType="xsd:integer" dictRef="cc:cycle">9</scalar><scalar dataType="xsd:integer" dictRef="g:pass">1</scalar><scalar dataType="xsd:integer" dictRef="g:idiag">1</scalar></list></list>                    CP:  1.21D+00  1.07D+00  8.49D-01<module cmlx:lineCount="1" cmlx:templateRef="l502.ediff"><list cmlx:templateRef="l502.ediff"><list><scalar dataType="xsd:double" dictRef="g:l502.e">-1152.1167208474</scalar><scalar dataType="xsd:double" dictRef="g:l502.deltae">-6.414972E-6</scalar></list></list></module></module><module cmlx:lineCount="16" cmlx:templateRef="l502.cycle"><list cmlx:templateRef="cycle"><list><scalar dataType="xsd:integer" dictRef="cc:cycle">10</scalar><scalar dataType="xsd:integer" dictRef="g:pass">1</scalar><scalar dataType="xsd:integer" dictRef="g:idiag">1</scalar></list></list>                    CP:  1.24D+00  1.15D+00  8.53D-01  1.17D+00<module cmlx:lineCount="1" cmlx:templateRef="l502.ediff"><list cmlx:templateRef="l502.ediff"><list><scalar dataType="xsd:double" dictRef="g:l502.e">-1152.11672224314</scalar><scalar dataType="xsd:double" dictRef="g:l502.deltae">-1.395736E-6</scalar></list></list></module></module><module cmlx:lineCount="16" cmlx:templateRef="l502.cycle"><list cmlx:templateRef="cycle"><list><scalar dataType="xsd:integer" dictRef="cc:cycle">11</scalar><scalar dataType="xsd:integer" dictRef="g:pass">1</scalar><scalar dataType="xsd:integer" dictRef="g:idiag">1</scalar></list></list>                    CP:  1.24D+00  1.17D+00  9.25D-01  1.42D+00  1.21D+00<module cmlx:lineCount="1" cmlx:templateRef="l502.ediff"><list cmlx:templateRef="l502.ediff"><list><scalar dataType="xsd:double" dictRef="g:l502.e">-1152.11672274517</scalar><scalar dataType="xsd:double" dictRef="g:l502.deltae">-5.02031E-7</scalar></list></list></module></module><module cmlx:lineCount="17" cmlx:templateRef="l502.cycle"><list cmlx:templateRef="cycle"><list><scalar dataType="xsd:integer" dictRef="cc:cycle">12</scalar><scalar dataType="xsd:integer" dictRef="g:pass">1</scalar><scalar dataType="xsd:integer" dictRef="g:idiag">1</scalar></list></list>                    CP:  1.24D+00  1.13D+00  9.46D-01  1.50D+00  1.46D+00                    CP:  1.17D+00<module cmlx:lineCount="1" cmlx:templateRef="l502.ediff"><list cmlx:templateRef="l502.ediff"><list><scalar dataType="xsd:double" dictRef="g:l502.e">-1152.11672283544</scalar><scalar dataType="xsd:double" dictRef="g:l502.deltae">-9.0273E-8</scalar></list></list></module></module><module cmlx:lineCount="19" cmlx:templateRef="l502.cycle"><list cmlx:templateRef="cycle"><list><scalar dataType="xsd:integer" dictRef="cc:cycle">13</scalar><scalar dataType="xsd:integer" dictRef="g:pass">1</scalar><scalar dataType="xsd:integer" dictRef="g:idiag">1</scalar></list></list>                    CP:  1.24D+00  1.13D+00  9.51D-01  1.50D+00  1.55D+00                    CP:  1.32D+00  9.11D-01<module cmlx:lineCount="1" cmlx:templateRef="l502.ediff"><list cmlx:templateRef="l502.ediff"><list><scalar dataType="xsd:double" dictRef="g:l502.e">-1152.11672284139</scalar><scalar dataType="xsd:double" dictRef="g:l502.deltae">-5.941E-9</scalar></list></list></module></module><module cmlx:lineCount="19" cmlx:templateRef="l502.cycle"><list cmlx:templateRef="cycle"><list><scalar dataType="xsd:integer" dictRef="cc:cycle">14</scalar><scalar dataType="xsd:integer" dictRef="g:pass">1</scalar><scalar dataType="xsd:integer" dictRef="g:idiag">1</scalar></list></list>                    CP:  1.24D+00  1.12D+00  9.53D-01  1.50D+00  1.57D+00                    CP:  1.35D+00  9.80D-01  1.12D+00<module cmlx:lineCount="1" cmlx:templateRef="l502.ediff"><list cmlx:templateRef="l502.ediff"><list><scalar dataType="xsd:double" dictRef="g:l502.e">-1152.11672284208</scalar><scalar dataType="xsd:double" dictRef="g:l502.deltae">-6.92E-10</scalar></list></list></module></module><module cmlx:lineCount="19" cmlx:templateRef="l502.cycle"><list cmlx:templateRef="cycle"><list><scalar dataType="xsd:integer" dictRef="cc:cycle">15</scalar><scalar dataType="xsd:integer" dictRef="g:pass">1</scalar><scalar dataType="xsd:integer" dictRef="g:idiag">1</scalar></list></list>                    CP:  1.24D+00  1.12D+00  9.54D-01  1.50D+00  1.57D+00                    CP:  1.36D+00  1.02D+00  1.19D+00  1.37D+00<module cmlx:lineCount="1" cmlx:templateRef="l502.ediff"><list cmlx:templateRef="l502.ediff"><list><scalar dataType="xsd:double" dictRef="g:l502.e">-1152.1167228423</scalar><scalar dataType="xsd:double" dictRef="g:l502.deltae">-2.22E-10</scalar></list></list></module></module><module cmlx:lineCount="19" cmlx:templateRef="l502.cycle"><list cmlx:templateRef="cycle"><list><scalar dataType="xsd:integer" dictRef="cc:cycle">16</scalar><scalar dataType="xsd:integer" dictRef="g:pass">1</scalar><scalar dataType="xsd:integer" dictRef="g:idiag">1</scalar></list></list>                    CP:  1.24D+00  1.12D+00  9.55D-01  1.50D+00  1.58D+00                    CP:  1.36D+00  1.03D+00  1.33D+00  1.86D+00  2.01D+00<module cmlx:lineCount="1" cmlx:templateRef="l502.ediff"><list cmlx:templateRef="l502.ediff"><list><scalar dataType="xsd:double" dictRef="g:l502.e">-1152.11672284243</scalar><scalar dataType="xsd:double" dictRef="g:l502.deltae">-1.25E-10</scalar></list></list></module></module><module cmlx:lineCount="20" cmlx:templateRef="l502.cycle"><list cmlx:templateRef="cycle"><list><scalar dataType="xsd:integer" dictRef="cc:cycle">17</scalar><scalar dataType="xsd:integer" dictRef="g:pass">1</scalar><scalar dataType="xsd:integer" dictRef="g:idiag">1</scalar></list></list>                    CP:  1.24D+00  1.12D+00  9.56D-01  1.51D+00  1.58D+00                    CP:  1.37D+00  1.03D+00  1.39D+00  2.28D+00  2.59D+00                    CP:  1.36D+00<module cmlx:lineCount="1" cmlx:templateRef="l502.ediff"><list cmlx:templateRef="l502.ediff"><list><scalar dataType="xsd:double" dictRef="g:l502.e">-1152.11672284247</scalar><scalar dataType="xsd:double" dictRef="g:l502.deltae">-4.5E-11</scalar></list></list></module></module><module cmlx:lineCount="20" cmlx:templateRef="l502.cycle"><list cmlx:templateRef="cycle"><list><scalar dataType="xsd:integer" dictRef="cc:cycle">18</scalar><scalar dataType="xsd:integer" dictRef="g:pass">1</scalar><scalar dataType="xsd:integer" dictRef="g:idiag">1</scalar></list></list>                    CP:  1.24D+00  1.12D+00  9.57D-01  1.51D+00  1.59D+00                    CP:  1.38D+00  1.03D+00  1.44D+00  2.52D+00  3.00D+00                    CP:  1.91D+00  1.33D+00<module cmlx:lineCount="1" cmlx:templateRef="l502.ediff"><list cmlx:templateRef="l502.ediff"><list><scalar dataType="xsd:double" dictRef="g:l502.e">-1152.11672284249</scalar><scalar dataType="xsd:double" dictRef="g:l502.deltae">-1.6E-11</scalar></list></list></module></module><module cmlx:lineCount="22" cmlx:templateRef="l502.cycle"><list cmlx:templateRef="cycle"><list><scalar dataType="xsd:integer" dictRef="cc:cycle">19</scalar><scalar dataType="xsd:integer" dictRef="g:pass">1</scalar><scalar dataType="xsd:integer" dictRef="g:idiag">1</scalar></list></list>                    CP:  1.24D+00  1.12D+00  9.57D-01  1.51D+00  1.59D+00                    CP:  1.38D+00  1.03D+00  1.45D+00  2.59D+00  3.00D+00                    CP:  2.02D+00  1.53D+00  1.00D+00<module cmlx:lineCount="1" cmlx:templateRef="l502.ediff"><list cmlx:templateRef="l502.ediff"><list><scalar dataType="xsd:double" dictRef="g:l502.e">-1152.11672284249</scalar><scalar dataType="xsd:double" dictRef="g:l502.deltae">-3.0E-12</scalar></list></list></module></module><module cmlx:lineCount="19" cmlx:templateRef="l502.cycle"><list cmlx:templateRef="cycle"><list><scalar dataType="xsd:integer" dictRef="cc:cycle">20</scalar><scalar dataType="xsd:integer" dictRef="g:pass">1</scalar><scalar dataType="xsd:integer" dictRef="g:idiag">1</scalar></list></list> Restarting incremental Fock formation.<module cmlx:lineCount="1" cmlx:templateRef="l502.ediff"><list cmlx:templateRef="l502.ediff"><list><scalar dataType="xsd:double" dictRef="g:l502.e">-1152.11672284249</scalar><scalar dataType="xsd:double" dictRef="g:l502.deltae">0.0</scalar></list></list></module></module><module cmlx:lineCount="19" cmlx:templateRef="l502.cycle"><list cmlx:templateRef="cycle"><list><scalar dataType="xsd:integer" dictRef="cc:cycle">21</scalar><scalar dataType="xsd:integer" dictRef="g:pass">1</scalar><scalar dataType="xsd:integer" dictRef="g:idiag">1</scalar></list></list><module cmlx:lineCount="1" cmlx:templateRef="l502.ediff"><list cmlx:templateRef="l502.ediff"><list><scalar dataType="xsd:double" dictRef="g:l502.e">-1152.11672284249</scalar><scalar dataType="xsd:double" dictRef="g:l502.deltae">-5.0E-12</scalar></list></list></module></module><module cmlx:lineCount="3" cmlx:templateRef="l502.footer"><list cmlx:templateRef="l502"><scalar dataType="xsd:string" dictRef="g:l502">SCF Done:  E(UB+HF-LYP) =  -1152.11672284     A.U. after   21 cycles</scalar><scalar dataType="xsd:string" dictRef="g:l502">Convg  =    0.2189D-08             -V/T =  2.0028</scalar><scalar dataType="xsd:string" dictRef="g:l502">S**2   =   0.7589</scalar></list></module><list cmlx:templateRef="l502"><scalar dataType="xsd:string" dictRef="g:l502">KE= 1.148931366329D+03 PE=-3.626816751955D+03 EE= 8.748672348894D+02</scalar></list></module> Annihilation of the first spin contaminant: S**2 before annihilation     0.7589,   after     0.7501 Copying SCF densities to generalized density rwf, ISCF=1 IROHF=0.<module cmlx:lineCount="294" cmlx:templateRef="l601.popanal"> Orbital symmetries: Alpha Orbitals:<module cmlx:lineCount="4" cmlx:templateRef="l4601.occupied"><list cmlx:templateRef="occ"><scalar dataType="xsd:string" dictRef="g:occorbs">(A) (A) (A) (A) (A) (A) (A) (A) (A) (A) (A) (A)</scalar></list><list cmlx:templateRef="occ"><scalar dataType="xsd:string" dictRef="g:occorbs">(A) (A) (A) (A) (A) (A) (A) (A) (A) (A) (A) (A)</scalar><scalar dataType="xsd:string" dictRef="g:occorbs">(A) (A) (A) (A) (A) (A) (A) (A) (A) (A) (A) (A)</scalar><scalar dataType="xsd:string" dictRef="g:occorbs">(A) (A)</scalar></list></module><module cmlx:lineCount="16" cmlx:templateRef="l4601.virtual"><list cmlx:templateRef="virt"><scalar dataType="xsd:string" dictRef="g:virtorbs">(A) (A) (A) (A) (A) (A) (A) (A) (A) (A) (A) (A)</scalar></list><list cmlx:templateRef="virt"><scalar dataType="xsd:string" dictRef="g:virtorbs">(A) (A) (A) (A) (A) (A) (A) (A) (A) (A) (A) (A)</scalar><scalar dataType="xsd:string" dictRef="g:virtorbs">(A) (A) (A) (A) (A) (A) (A) (A) (A) (A) (A) (A)</scalar><scalar dataType="xsd:string" dictRef="g:virtorbs">(A) (A) (A) (A) (A) (A) (A) (A) (A) (A) (A) (A)</scalar><scalar dataType="xsd:string" dictRef="g:virtorbs">(A) (A) (A) (A) (A) (A) (A) (A) (A) (A) (A) (A)</scalar><scalar dataType="xsd:string" dictRef="g:virtorbs">(A) (A) (A) (A) (A) (A) (A) (A) (A) (A) (A) (A)</scalar><scalar dataType="xsd:string" dictRef="g:virtorbs">(A) (A) (A) (A) (A) (A) (A) (A) (A) (A) (A) (A)</scalar><scalar dataType="xsd:string" dictRef="g:virtorbs">(A) (A) (A) (A) (A) (A) (A) (A) (A) (A) (A) (A)</scalar><scalar dataType="xsd:string" dictRef="g:virtorbs">(A) (A) (A) (A) (A) (A) (A) (A) (A) (A) (A) (A)</scalar><scalar dataType="xsd:string" dictRef="g:virtorbs">(A) (A) (A) (A) (A) (A) (A) (A) (A) (A) (A) (A)</scalar><scalar dataType="xsd:string" dictRef="g:virtorbs">(A) (A) (A) (A) (A) (A) (A) (A) (A) (A) (A) (A)</scalar><scalar dataType="xsd:string" dictRef="g:virtorbs">(A) (A) (A) (A) (A) (A) (A) (A) (A) (A) (A) (A)</scalar><scalar dataType="xsd:string" dictRef="g:virtorbs">(A) (A) (A) (A) (A) (A) (A) (A) (A) (A) (A) (A)</scalar><scalar dataType="xsd:string" dictRef="g:virtorbs">(A) (A) (A) (A) (A) (A) (A) (A) (A) (A) (A) (A)</scalar><scalar dataType="xsd:string" dictRef="g:virtorbs">(A) (A) (A) (A) (A) (A) (A) (A) (A) (A) (A) (A)</scalar><scalar dataType="xsd:string" dictRef="g:virtorbs">(A) (A) (A) (A)</scalar></list></module> Beta  Orbitals:       Occupied  (A) (A) (A) (A) (A) (A) (A) (A) (A) (A) (A) (A)                 (A) (A) (A) (A) (A) (A) (A) (A) (A) (A) (A) (A)                 (A) (A) (A) (A) (A) (A) (A) (A) (A) (A) (A) (A)                 (A)<module cmlx:lineCount="16" cmlx:templateRef="l4601.virtual"><list cmlx:templateRef="virt"><scalar dataType="xsd:string" dictRef="g:virtorbs">(A) (A) (A) (A) (A) (A) (A) (A) (A) (A) (A) (A)</scalar></list><list cmlx:templateRef="virt"><scalar dataType="xsd:string" dictRef="g:virtorbs">(A) (A) (A) (A) (A) (A) (A) (A) (A) (A) (A) (A)</scalar><scalar dataType="xsd:string" dictRef="g:virtorbs">(A) (A) (A) (A) (A) (A) (A) (A) (A) (A) (A) (A)</scalar><scalar dataType="xsd:string" dictRef="g:virtorbs">(A) (A) (A) (A) (A) (A) (A) (A) (A) (A) (A) (A)</scalar><scalar dataType="xsd:string" dictRef="g:virtorbs">(A) (A) (A) (A) (A) (A) (A) (A) (A) (A) (A) (A)</scalar><scalar dataType="xsd:string" dictRef="g:virtorbs">(A) (A) (A) (A) (A) (A) (A) (A) (A) (A) (A) (A)</scalar><scalar dataType="xsd:string" dictRef="g:virtorbs">(A) (A) (A) (A) (A) (A) (A) (A) (A) (A) (A) (A)</scalar><scalar dataType="xsd:string" dictRef="g:virtorbs">(A) (A) (A) (A) (A) (A) (A) (A) (A) (A) (A) (A)</scalar><scalar dataType="xsd:string" dictRef="g:virtorbs">(A) (A) (A) (A) (A) (A) (A) (A) (A) (A) (A) (A)</scalar><scalar dataType="xsd:string" dictRef="g:virtorbs">(A) (A) (A) (A) (A) (A) (A) (A) (A) (A) (A) (A)</scalar><scalar dataType="xsd:string" dictRef="g:virtorbs">(A) (A) (A) (A) (A) (A) (A) (A) (A) (A) (A) (A)</scalar><scalar dataType="xsd:string" dictRef="g:virtorbs">(A) (A) (A) (A) (A) (A) (A) (A) (A) (A) (A) (A)</scalar><scalar dataType="xsd:string" dictRef="g:virtorbs">(A) (A) (A) (A) (A) (A) (A) (A) (A) (A) (A) (A)</scalar><scalar dataType="xsd:string" dictRef="g:virtorbs">(A) (A) (A) (A) (A) (A) (A) (A) (A) (A) (A) (A)</scalar><scalar dataType="xsd:string" dictRef="g:virtorbs">(A) (A) (A) (A) (A) (A) (A) (A) (A) (A) (A) (A)</scalar><scalar dataType="xsd:string" dictRef="g:virtorbs">(A) (A) (A) (A) (A)</scalar></list></module><module cmlx:lineCount="1" cmlx:templateRef="l601.state"/><module cmlx:lineCount="45" cmlx:templateRef="l601.alphabetaeigen"><list cmlx:templateRef="eigen"><array dataType="xsd:double" size="5" dictRef="g:alphaocceigen">-101.58157 -101.52157 -10.27697 -10.22962 -10.22103</array><array dataType="xsd:double" size="5" dictRef="g:alphaocceigen">-10.22101 -10.21553 -10.21552 -9.49617 -9.43356</array><array dataType="xsd:double" size="5" dictRef="g:alphaocceigen">-7.26058 -7.25162 -7.25038 -7.2035 -7.18772</array><array dataType="xsd:double" size="5" dictRef="g:alphaocceigen">-7.18764 -0.929 -0.87403 -0.79611 -0.78382</array><array dataType="xsd:double" size="5" dictRef="g:alphaocceigen">-0.76206 -0.65397 -0.6378 -0.55986 -0.50652</array><array dataType="xsd:double" size="5" dictRef="g:alphaocceigen">-0.50023 -0.4688 -0.46532 -0.43655 -0.40039</array><array dataType="xsd:double" size="5" dictRef="g:alphaocceigen">-0.39398 -0.38228 -0.34219 -0.32627 -0.31015</array><array dataType="xsd:double" size="3" dictRef="g:alphaocceigen">-0.29363 -0.28634 -0.26326</array></list></module><module cmlx:lineCount="1" cmlx:templateRef="l601.alphabetaeigen"/><module cmlx:lineCount="1" cmlx:templateRef="l601.alphabetaeigen"/><module cmlx:lineCount="1" cmlx:templateRef="l601.alphabetaeigen"/><module cmlx:lineCount="1" cmlx:templateRef="l601.alphabetaeigen"/><module cmlx:lineCount="1" cmlx:templateRef="l601.alphabetaeigen"/><module cmlx:lineCount="1" cmlx:templateRef="l601.alphabetaeigen"/><module cmlx:lineCount="1" cmlx:templateRef="l601.alphabetaeigen"/><module cmlx:lineCount="1" cmlx:templateRef="l601.alphabetaeigen"/><module cmlx:lineCount="1" cmlx:templateRef="l601.alphabetaeigen"><list cmlx:templateRef="eigen"><array dataType="xsd:double" size="5" dictRef="g:betavirteigen">-0.18299 -0.04495 -0.04463 -0.01272 0.00298</array></list></module><module cmlx:lineCount="1" cmlx:templateRef="l601.alphabetaeigen"><list cmlx:templateRef="eigen"><array dataType="xsd:double" size="5" dictRef="g:betavirteigen">0.01331 0.01815 0.03906 0.04248 0.04365</array></list></module><module cmlx:lineCount="1" cmlx:templateRef="l601.alphabetaeigen"><list cmlx:templateRef="eigen"><array dataType="xsd:double" size="5" dictRef="g:betavirteigen">0.05241 0.06546 0.0771 0.07738 0.07979</array></list></module><module cmlx:lineCount="1" cmlx:templateRef="l601.alphabetaeigen"><list cmlx:templateRef="eigen"><array dataType="xsd:double" size="5" dictRef="g:betavirteigen">0.09455 0.1072 0.11141 0.11402 0.12156</array></list></module><module cmlx:lineCount="1" cmlx:templateRef="l601.alphabetaeigen"><list cmlx:templateRef="eigen"><array dataType="xsd:double" size="5" dictRef="g:betavirteigen">0.12334 0.12491 0.12626 0.14735 0.14998</array></list></module><module cmlx:lineCount="1" cmlx:templateRef="l601.alphabetaeigen"><list cmlx:templateRef="eigen"><array dataType="xsd:double" size="5" dictRef="g:betavirteigen">0.1559 0.16061 0.16211 0.17415 0.17885</array></list></module><module cmlx:lineCount="1" cmlx:templateRef="l601.alphabetaeigen"><list cmlx:templateRef="eigen"><array dataType="xsd:double" size="5" dictRef="g:betavirteigen">0.18806 0.19101 0.19596 0.20568 0.2061</array></list></module><module cmlx:lineCount="1" cmlx:templateRef="l601.alphabetaeigen"><list cmlx:templateRef="eigen"><array dataType="xsd:double" size="5" dictRef="g:betavirteigen">0.22515 0.22631 0.23738 0.23938 0.25634</array></list></module><module cmlx:lineCount="1" cmlx:templateRef="l601.alphabetaeigen"><list cmlx:templateRef="eigen"><array dataType="xsd:double" size="5" dictRef="g:betavirteigen">0.26368 0.27896 0.28239 0.28377 0.29331</array></list></module><module cmlx:lineCount="1" cmlx:templateRef="l601.alphabetaeigen"><list cmlx:templateRef="eigen"><array dataType="xsd:double" size="5" dictRef="g:betavirteigen">0.3118 0.39864 0.42966 0.4461 0.448</array></list></module><module cmlx:lineCount="1" cmlx:templateRef="l601.alphabetaeigen"><list cmlx:templateRef="eigen"><array dataType="xsd:double" size="5" dictRef="g:betavirteigen">0.46073 0.47216 0.48535 0.49108 0.49838</array></list></module><module cmlx:lineCount="1" cmlx:templateRef="l601.alphabetaeigen"><list cmlx:templateRef="eigen"><array dataType="xsd:double" size="5" dictRef="g:betavirteigen">0.5102 0.52463 0.5334 0.54113 0.55657</array></list></module><module cmlx:lineCount="1" cmlx:templateRef="l601.alphabetaeigen"><list cmlx:templateRef="eigen"><array dataType="xsd:double" size="5" dictRef="g:betavirteigen">0.56789 0.57278 0.60526 0.60603 0.62944</array></list></module><module cmlx:lineCount="1" cmlx:templateRef="l601.alphabetaeigen"><list cmlx:templateRef="eigen"><array dataType="xsd:double" size="5" dictRef="g:betavirteigen">0.63948 0.66477 0.66584 0.68067 0.69134</array></list></module><module cmlx:lineCount="1" cmlx:templateRef="l601.alphabetaeigen"><list cmlx:templateRef="eigen"><array dataType="xsd:double" size="5" dictRef="g:betavirteigen">0.70849 0.72341 0.76966 0.79386 0.80251</array></list></module><module cmlx:lineCount="1" cmlx:templateRef="l601.alphabetaeigen"><list cmlx:templateRef="eigen"><array dataType="xsd:double" size="5" dictRef="g:betavirteigen">0.80562 0.81157 0.81667 0.81844 0.8287</array></list></module><module cmlx:lineCount="1" cmlx:templateRef="l601.alphabetaeigen"><list cmlx:templateRef="eigen"><array dataType="xsd:double" size="5" dictRef="g:betavirteigen">0.83963 0.84935 0.89831 0.90591 0.91883</array></list></module><module cmlx:lineCount="1" cmlx:templateRef="l601.alphabetaeigen"><list cmlx:templateRef="eigen"><array dataType="xsd:double" size="5" dictRef="g:betavirteigen">0.92226 0.92713 0.95934 0.97521 0.98395</array></list></module><module cmlx:lineCount="1" cmlx:templateRef="l601.alphabetaeigen"><list cmlx:templateRef="eigen"><array dataType="xsd:double" size="5" dictRef="g:betavirteigen">0.99752 1.02129 1.04741 1.05692 1.10766</array></list></module><module cmlx:lineCount="1" cmlx:templateRef="l601.alphabetaeigen"><list cmlx:templateRef="eigen"><array dataType="xsd:double" size="5" dictRef="g:betavirteigen">1.10925 1.15203 1.17144 1.20589 1.28406</array></list></module><module cmlx:lineCount="1" cmlx:templateRef="l601.alphabetaeigen"><list cmlx:templateRef="eigen"><array dataType="xsd:double" size="5" dictRef="g:betavirteigen">1.32307 1.35531 1.44912 1.46645 1.48273</array></list></module><module cmlx:lineCount="1" cmlx:templateRef="l601.alphabetaeigen"><list cmlx:templateRef="eigen"><array dataType="xsd:double" size="5" dictRef="g:betavirteigen">1.53738 1.54204 1.58508 1.59393 1.62214</array></list></module><module cmlx:lineCount="1" cmlx:templateRef="l601.alphabetaeigen"><list cmlx:templateRef="eigen"><array dataType="xsd:double" size="5" dictRef="g:betavirteigen">1.62512 1.6649 1.69272 1.73585 1.74173</array></list></module><module cmlx:lineCount="1" cmlx:templateRef="l601.alphabetaeigen"><list cmlx:templateRef="eigen"><array dataType="xsd:double" size="5" dictRef="g:betavirteigen">1.79137 1.84724 1.87035 1.89301 1.9012</array></list></module><module cmlx:lineCount="1" cmlx:templateRef="l601.alphabetaeigen"><list cmlx:templateRef="eigen"><array dataType="xsd:double" size="5" dictRef="g:betavirteigen">1.93076 1.93123 1.94662 1.98764 1.99578</array></list></module><module cmlx:lineCount="1" cmlx:templateRef="l601.alphabetaeigen"><list cmlx:templateRef="eigen"><array dataType="xsd:double" size="5" dictRef="g:betavirteigen">2.02666 2.05544 2.20935 2.23776 2.27769</array></list></module><module cmlx:lineCount="1" cmlx:templateRef="l601.alphabetaeigen"><list cmlx:templateRef="eigen"><array dataType="xsd:double" size="5" dictRef="g:betavirteigen">2.29499 2.30679 2.31332 2.35848 2.36556</array></list></module><module cmlx:lineCount="1" cmlx:templateRef="l601.alphabetaeigen"><list cmlx:templateRef="eigen"><array dataType="xsd:double" size="5" dictRef="g:betavirteigen">2.39412 2.41174 2.42933 2.48536 2.51991</array></list></module><module cmlx:lineCount="1" cmlx:templateRef="l601.alphabetaeigen"><list cmlx:templateRef="eigen"><array dataType="xsd:double" size="5" dictRef="g:betavirteigen">2.58798 2.61526 2.62363 2.68544 2.69222</array></list></module><module cmlx:lineCount="1" cmlx:templateRef="l601.alphabetaeigen"><list cmlx:templateRef="eigen"><array dataType="xsd:double" size="5" dictRef="g:betavirteigen">2.73238 2.73675 2.76148 2.76207 2.78501</array></list></module><module cmlx:lineCount="1" cmlx:templateRef="l601.alphabetaeigen"><list cmlx:templateRef="eigen"><array dataType="xsd:double" size="5" dictRef="g:betavirteigen">2.8098 2.83762 2.86753 2.90217 2.90438</array></list></module><module cmlx:lineCount="1" cmlx:templateRef="l601.alphabetaeigen"><list cmlx:templateRef="eigen"><array dataType="xsd:double" size="5" dictRef="g:betavirteigen">3.04643 3.08855 3.17678 3.28609 3.36221</array></list></module><module cmlx:lineCount="1" cmlx:templateRef="l601.alphabetaeigen"><list cmlx:templateRef="eigen"><array dataType="xsd:double" size="5" dictRef="g:betavirteigen">3.46075 3.48594 3.58975 3.74359 3.95015</array></list></module><module cmlx:lineCount="1" cmlx:templateRef="l601.alphabetaeigen"><list cmlx:templateRef="eigen"><array dataType="xsd:double" size="5" dictRef="g:betavirteigen">4.00994 4.0966 4.11003 4.79288 9.70974</array></list></module><module cmlx:lineCount="1" cmlx:templateRef="l601.alphabetaeigen"><list cmlx:templateRef="eigen"><array dataType="xsd:double" size="5" dictRef="g:betavirteigen">9.75804 23.50571 23.88417 23.89849 23.99449</array></list></module><module cmlx:lineCount="1" cmlx:templateRef="l601.alphabetaeigen"><list cmlx:templateRef="eigen"><array dataType="xsd:double" size="5" dictRef="g:betavirteigen">24.08139 24.15003 25.80513 25.88601 25.88932</array></list></module><module cmlx:lineCount="1" cmlx:templateRef="l601.alphabetaeigen"><list cmlx:templateRef="eigen"><array dataType="xsd:double" size="5" dictRef="g:betavirteigen">26.09761 26.10063 26.5664 215.68381 215.74784</array></list></module><module cmlx:lineCount="43" cmlx:templateRef="l601.condensed"><module cmlx:lineCount="14" cmlx:templateRef="cond"><list cmlx:templateRef="serial"><scalar dataType="xsd:string" dictRef="x:intarr">1          2          3          4          5          6</scalar></list><list cmlx:templateRef="row"><list><scalar dataType="xsd:integer" dictRef="cc:serial">1</scalar><scalar dataType="xsd:string" dictRef="cc:elementType">C</scalar><scalar dataType="xsd:string" dictRef="x:floatArr">9.054682  -1.327179   0.858571  -2.104776   0.859623  -1.327016</scalar></list><list><scalar dataType="xsd:integer" dictRef="cc:serial">2</scalar><scalar dataType="xsd:string" dictRef="cc:elementType">C</scalar><scalar dataType="xsd:string" dictRef="x:floatArr">-1.327179   7.408759   0.489443  -0.150906  -1.764488   0.991021</scalar></list><list><scalar dataType="xsd:integer" dictRef="cc:serial">3</scalar><scalar dataType="xsd:string" dictRef="cc:elementType">C</scalar><scalar dataType="xsd:string" dictRef="x:floatArr">0.858571   0.489443  11.756742  -1.243480  -3.876436  -1.764897</scalar></list><list><scalar dataType="xsd:integer" dictRef="cc:serial">4</scalar><scalar dataType="xsd:string" dictRef="cc:elementType">C</scalar><scalar dataType="xsd:string" dictRef="x:floatArr">-2.104776  -0.150906  -1.243480  10.785480  -1.244911  -0.151820</scalar></list><list><scalar dataType="xsd:integer" dictRef="cc:serial">5</scalar><scalar dataType="xsd:string" dictRef="cc:elementType">C</scalar><scalar dataType="xsd:string" dictRef="x:floatArr">0.859623  -1.764488  -3.876436  -1.244911  11.756471   0.489439</scalar></list><list><scalar dataType="xsd:integer" dictRef="cc:serial">6</scalar><scalar dataType="xsd:string" dictRef="cc:elementType">C</scalar><scalar dataType="xsd:string" dictRef="x:floatArr">-1.327016   0.991021  -1.764897  -0.151820   0.489439   7.409870</scalar></list><list><scalar dataType="xsd:integer" dictRef="cc:serial">7</scalar><scalar dataType="xsd:string" dictRef="cc:elementType">H</scalar><scalar dataType="xsd:string" dictRef="x:floatArr">0.394732  -0.030328   0.008989   0.007951   0.009002  -0.030336</scalar></list><list><scalar dataType="xsd:integer" dictRef="cc:serial">8</scalar><scalar dataType="xsd:string" dictRef="cc:elementType">H</scalar><scalar dataType="xsd:string" dictRef="x:floatArr">-0.026868   0.418804  -0.052454   0.020283  -0.015304   0.009504</scalar></list><list><scalar dataType="xsd:integer" dictRef="cc:serial">9</scalar><scalar dataType="xsd:string" dictRef="cc:elementType">H</scalar><scalar dataType="xsd:string" dictRef="x:floatArr">-0.009534  -0.016236   0.289319   0.050268   0.028030   0.007750</scalar></list><list><scalar dataType="xsd:integer" dictRef="cc:serial">10</scalar><scalar dataType="xsd:string" dictRef="cc:elementType">Cl</scalar><scalar dataType="xsd:string" dictRef="x:floatArr">-0.150312   0.210992   0.010285  -0.721466   0.010213   0.211037</scalar></list><list><scalar dataType="xsd:integer" dictRef="cc:serial">11</scalar><scalar dataType="xsd:string" dictRef="cc:elementType">H</scalar><scalar dataType="xsd:string" dictRef="x:floatArr">-0.009559   0.007747   0.028026   0.050289   0.289323  -0.016222</scalar></list><list><scalar dataType="xsd:integer" dictRef="cc:serial">12</scalar><scalar dataType="xsd:string" dictRef="cc:elementType">H</scalar><scalar dataType="xsd:string" dictRef="x:floatArr">-0.026853   0.009489  -0.015286   0.020285  -0.052444   0.418769</scalar></list><list><scalar dataType="xsd:integer" dictRef="cc:serial">13</scalar><scalar dataType="xsd:string" dictRef="cc:elementType">Cl</scalar><scalar dataType="xsd:string" dictRef="x:floatArr">-0.328785   0.102259   0.054519  -0.025031   0.054456   0.102314</scalar></list></list></module><module cmlx:lineCount="14" cmlx:templateRef="cond"><list cmlx:templateRef="serial"><scalar dataType="xsd:string" dictRef="x:intarr">7          8          9         10         11         12</scalar></list><list cmlx:templateRef="row"><list><scalar dataType="xsd:integer" dictRef="cc:serial">1</scalar><scalar dataType="xsd:string" dictRef="cc:elementType">C</scalar><scalar dataType="xsd:string" dictRef="x:floatArr">0.394732  -0.026868  -0.009534  -0.150312  -0.009559  -0.026853</scalar></list><list><scalar dataType="xsd:integer" dictRef="cc:serial">2</scalar><scalar dataType="xsd:string" dictRef="cc:elementType">C</scalar><scalar dataType="xsd:string" dictRef="x:floatArr">-0.030328   0.418804  -0.016236   0.210992   0.007747   0.009489</scalar></list><list><scalar dataType="xsd:integer" dictRef="cc:serial">3</scalar><scalar dataType="xsd:string" dictRef="cc:elementType">C</scalar><scalar dataType="xsd:string" dictRef="x:floatArr">0.008989  -0.052454   0.289319   0.010285   0.028026  -0.015286</scalar></list><list><scalar dataType="xsd:integer" dictRef="cc:serial">4</scalar><scalar dataType="xsd:string" dictRef="cc:elementType">C</scalar><scalar dataType="xsd:string" dictRef="x:floatArr">0.007951   0.020283   0.050268  -0.721466   0.050289   0.020285</scalar></list><list><scalar dataType="xsd:integer" dictRef="cc:serial">5</scalar><scalar dataType="xsd:string" dictRef="cc:elementType">C</scalar><scalar dataType="xsd:string" dictRef="x:floatArr">0.009002  -0.015304   0.028030   0.010213   0.289323  -0.052444</scalar></list><list><scalar dataType="xsd:integer" dictRef="cc:serial">6</scalar><scalar dataType="xsd:string" dictRef="cc:elementType">C</scalar><scalar dataType="xsd:string" dictRef="x:floatArr">-0.030336   0.009504   0.007750   0.211037  -0.016222   0.418769</scalar></list><list><scalar dataType="xsd:integer" dictRef="cc:serial">7</scalar><scalar dataType="xsd:string" dictRef="cc:elementType">H</scalar><scalar dataType="xsd:string" dictRef="x:floatArr">0.478649  -0.006794  -0.000171   0.000652  -0.000171  -0.006797</scalar></list><list><scalar dataType="xsd:integer" dictRef="cc:serial">8</scalar><scalar dataType="xsd:string" dictRef="cc:elementType">H</scalar><scalar dataType="xsd:string" dictRef="x:floatArr">-0.006794   0.506603  -0.007980   0.002317   0.000040  -0.000166</scalar></list><list><scalar dataType="xsd:integer" dictRef="cc:serial">9</scalar><scalar dataType="xsd:string" dictRef="cc:elementType">H</scalar><scalar dataType="xsd:string" dictRef="x:floatArr">-0.000171  -0.007980   0.501527  -0.002548  -0.000261   0.000040</scalar></list><list><scalar dataType="xsd:integer" dictRef="cc:serial">10</scalar><scalar dataType="xsd:string" dictRef="cc:elementType">Cl</scalar><scalar dataType="xsd:string" dictRef="x:floatArr">0.000652   0.002317  -0.002548  17.075329  -0.002545   0.002317</scalar></list><list><scalar dataType="xsd:integer" dictRef="cc:serial">11</scalar><scalar dataType="xsd:string" dictRef="cc:elementType">H</scalar><scalar dataType="xsd:string" dictRef="x:floatArr">-0.000171   0.000040  -0.000261  -0.002545   0.501523  -0.007981</scalar></list><list><scalar dataType="xsd:integer" dictRef="cc:serial">12</scalar><scalar dataType="xsd:string" dictRef="cc:elementType">H</scalar><scalar dataType="xsd:string" dictRef="x:floatArr">-0.006797  -0.000166   0.000040   0.002317  -0.007981   0.506619</scalar></list><list><scalar dataType="xsd:integer" dictRef="cc:serial">13</scalar><scalar dataType="xsd:string" dictRef="cc:elementType">Cl</scalar><scalar dataType="xsd:string" dictRef="x:floatArr">-0.022177   0.000004  -0.000807  -0.000460  -0.000807   0.000003</scalar></list></list></module><module cmlx:lineCount="2" cmlx:templateRef="cond1"><list cmlx:templateRef="serial"><scalar dataType="xsd:string" dictRef="x:intarr">13</scalar></list><list cmlx:templateRef="row"><list><scalar dataType="xsd:integer" dictRef="cc:serial">1</scalar><scalar dataType="xsd:string" dictRef="cc:elementType">C</scalar><scalar dataType="xsd:string" dictRef="x:floatArr">-0.328785</scalar></list></list></module>     2  C    0.102259     3  C    0.054519     4  C   -0.025031     5  C    0.054456     6  C    0.102314     7  H   -0.022177     8  H    0.000004     9  H   -0.000807    10  Cl  -0.000460    11  H   -0.000807    12  H    0.000003    13  Cl  17.306728</module><module cmlx:lineCount="93" cmlx:templateRef="mulliken"><module cmlx:lineCount="16" cmlx:templateRef="l601.mullik"><list cmlx:templateRef="title"><scalar dataType="xsd:string" dictRef="g:title">Mulliken atomic charges:</scalar></list><list cmlx:templateRef="serial"><scalar dataType="xsd:integer" dictRef="cc:serial">1</scalar></list><list cmlx:lineCount="13" cmlx:templateRef="row"><array dataType="xsd:integer" dictRef="cc:serial" size="13">1 2 3 4 5 6 7 8 9 10 11 12 13</array><array dataType="xsd:string" dictRef="cc:elementType" size="13">C C C C C C H H H Cl H H Cl</array><array dataType="xsd:double" dictRef="x:charge" size="13">0.143276 -0.349377 -0.543338 0.707834 -0.542975 -0.349414 0.1968 0.152012 0.160605 0.354189 0.1606 0.152004 -0.242215</array></list><list cmlx:templateRef="sum"><list><scalar dataType="xsd:string" dictRef="x:type">Mulliken</scalar><scalar dataType="xsd:double" dictRef="x:charge.sum">0.0</scalar></list></list></module><module cmlx:lineCount="16" cmlx:templateRef="l601.mullik"><list cmlx:templateRef="title"><scalar dataType="xsd:string" dictRef="g:title">Atomic charges with hydrogens summed into heavy atoms:</scalar></list><list cmlx:templateRef="serial"><scalar dataType="xsd:integer" dictRef="cc:serial">1</scalar></list><list cmlx:lineCount="13" cmlx:templateRef="row"><array dataType="xsd:integer" dictRef="cc:serial" size="13">1 2 3 4 5 6 7 8 9 10 11 12 13</array><array dataType="xsd:string" dictRef="cc:elementType" size="13">C C C C C C H H H Cl H H Cl</array><array dataType="xsd:double" dictRef="x:charge" size="13">0.340076 -0.197365 -0.382733 0.707834 -0.382375 -0.19741 0.0 0.0 0.0 0.354189 0.0 0.0 -0.242215</array></list><list cmlx:templateRef="sum"><list><scalar dataType="xsd:string" dictRef="x:type">Mulliken</scalar><scalar dataType="xsd:double" dictRef="x:charge.sum">0.0</scalar></list></list></module>          Atomic-Atomic Spin Densities.              1          2          3          4          5          6     1  C   -0.081722  -0.118285   0.187287  -0.081760   0.187236  -0.118299     2  C   -0.118285   0.369999  -0.205642   0.102169  -0.127110   0.194625     3  C    0.187287  -0.205642   0.053275  -0.074936   0.070765  -0.127167     4  C   -0.081760   0.102169  -0.074936   0.237094  -0.074825   0.102146     5  C    0.187236  -0.127110   0.070765  -0.074825   0.053083  -0.205546     6  C   -0.118299   0.194625  -0.127167   0.102146  -0.205546   0.369981     7  H    0.026755  -0.003638  -0.003179  -0.000950  -0.003177  -0.003640     8  H    0.008746  -0.006074   0.003119  -0.002206  -0.000241  -0.001863     9  H    0.000797   0.000059  -0.001237   0.000551   0.000679  -0.000280    10  Cl   0.019126  -0.008791   0.005192  -0.024712   0.005194  -0.008790    11  H    0.000799  -0.000281   0.000680   0.000550  -0.001235   0.000057    12  H    0.008745  -0.001862  -0.000242  -0.002205   0.003116  -0.006070    13  Cl   0.011812  -0.072526   0.026330  -0.014425   0.026306  -0.072507              7          8          9         10         11         12     1  C    0.026755   0.008746   0.000797   0.019126   0.000799   0.008745     2  C   -0.003638  -0.006074   0.000059  -0.008791  -0.000281  -0.001862     3  C   -0.003179   0.003119  -0.001237   0.005192   0.000680  -0.000242     4  C   -0.000950  -0.002206   0.000551  -0.024712   0.000550  -0.002205     5  C   -0.003177  -0.000241   0.000679   0.005194  -0.001235   0.003116     6  C   -0.003640  -0.001863  -0.000280  -0.008790   0.000057  -0.006070     7  H    0.004655  -0.000428   0.000001  -0.000173   0.000001  -0.000427     8  H   -0.000428  -0.008249   0.000076  -0.000096  -0.000002   0.000002     9  H    0.000001   0.000076   0.002423  -0.000329   0.000000  -0.000002    10  Cl  -0.000173  -0.000096  -0.000329   0.046113  -0.000329  -0.000096    11  H    0.000001  -0.000002   0.000000  -0.000329   0.002422   0.000076    12  H   -0.000427   0.000002  -0.000002  -0.000096   0.000076  -0.008249    13  Cl  -0.011897   0.000731  -0.000114  -0.000171  -0.000114   0.000731             13     1  C    0.011812     2  C   -0.072526     3  C    0.026330     4  C   -0.014425     5  C    0.026306     6  C   -0.072507     7  H   -0.011897     8  H    0.000731     9  H   -0.000114    10  Cl  -0.000171    11  H   -0.000114    12  H    0.000731    13  Cl   0.746019 Mulliken atomic spin densities:              1     1  C    0.051237     2  C    0.122644     3  C   -0.065756     4  C    0.166489     5  C   -0.065756     6  C    0.122647     7  H    0.003904     8  H   -0.006485     9  H    0.002623    10  Cl   0.032139    11  H    0.002623    12  H   -0.006485    13  Cl   0.640177 Sum of Mulliken spin densities=   1.00000<module cmlx:lineCount="1" cmlx:templateRef="l601.spatial"><list cmlx:templateRef="l601.elect"><scalar dataType="xsd:double" dictRef="g:electextent2">1625.0609</scalar></list></module> Charge=     0.0000 electrons</module><module cmlx:lineCount="18" cmlx:templateRef="multipole"><list cmlx:templateRef="dipoletype"><scalar dataType="xsd:string" dictRef="g:dipoletype">field-independent basis, Debye</scalar></list><list cmlx:templateRef="dipole"><list><scalar dataType="xsd:double" dictRef="x:x">2.0566</scalar><scalar dataType="xsd:double" dictRef="x:y">4.0E-4</scalar><scalar dataType="xsd:double" dictRef="x:z">2.6853</scalar><scalar dataType="xsd:double" dictRef="x:dipole">3.3824</scalar></list></list><list cmlx:templateRef="quadrupoletype"><scalar dataType="xsd:string" dictRef="g:quadpoletype">field-independent basis, Debye-Ang</scalar></list><list cmlx:templateRef="quadrupol"><list><scalar dataType="xsd:double" dictRef="x:x">-70.2081</scalar><scalar dataType="xsd:double" dictRef="x:y">-54.1858</scalar><scalar dataType="xsd:double" dictRef="x:z">-62.6591</scalar></list></list><list cmlx:templateRef="xy"><list><scalar dataType="xsd:double" dictRef="x:x">-9.0E-4</scalar><scalar dataType="xsd:double" dictRef="x:y">-6.4003</scalar><scalar dataType="xsd:double" dictRef="x:z">-8.0E-4</scalar></list></list><list cmlx:templateRef="quadrupoletypea"><scalar dataType="xsd:string" dictRef="g:quadpoletype">field-independent basis, Debye-Ang</scalar></list><list cmlx:templateRef="xx"><list><scalar dataType="xsd:double" dictRef="x:x">-7.8571</scalar><scalar dataType="xsd:double" dictRef="x:y">8.1652</scalar><scalar dataType="xsd:double" dictRef="x:z">-0.3081</scalar></list></list><list cmlx:templateRef="xya"><list><scalar dataType="xsd:double" dictRef="x:x">-9.0E-4</scalar><scalar dataType="xsd:double" dictRef="x:y">-6.4003</scalar><scalar dataType="xsd:double" dictRef="x:z">-8.0E-4</scalar></list></list><list cmlx:templateRef="octapoletype"><scalar dataType="xsd:string" dictRef="g:octapoletype">field-independent basis, Debye-Ang**2</scalar></list><list cmlx:templateRef="xxx"><list><scalar dataType="xsd:double" dictRef="x:xxx">29.441</scalar><scalar dataType="xsd:double" dictRef="x:yyy">0.0021</scalar><scalar dataType="xsd:double" dictRef="x:zzz">-6.8594</scalar><scalar dataType="xsd:double" dictRef="x:xyy">2.741</scalar></list></list><list cmlx:templateRef="xxy"><list><scalar dataType="xsd:double" dictRef="x:xxy">0.0027</scalar><scalar dataType="xsd:double" dictRef="x:xxz">8.9531</scalar><scalar dataType="xsd:double" dictRef="x:xzz">-2.1773</scalar><scalar dataType="xsd:double" dictRef="x:xzz">-0.0024</scalar></list></list><list cmlx:templateRef="yyz"><list><scalar dataType="xsd:double" dictRef="x:yyz">3.1717</scalar><scalar dataType="xsd:double" dictRef="x:xyz">-2.0E-4</scalar></list></list><list cmlx:templateRef="hexadecapoletype"><scalar dataType="xsd:string" dictRef="g:hexadecapoletype">field-independent basis, Debye-Ang**3</scalar></list><list cmlx:templateRef="xxxx"><list><scalar dataType="xsd:double" dictRef="x:xxxx">-1612.5134</scalar><scalar dataType="xsd:double" dictRef="x:yyyy">-286.9198</scalar><scalar dataType="xsd:double" dictRef="x:zzzz">-290.7313</scalar><scalar dataType="xsd:double" dictRef="x:xxxy">-0.0022</scalar></list></list><list cmlx:templateRef="xxxz"><list><scalar dataType="xsd:double" dictRef="x:xxxz">-39.5531</scalar><scalar dataType="xsd:double" dictRef="x:yyyx">-0.0049</scalar><scalar dataType="xsd:double" dictRef="x:yyyz">-0.0041</scalar><scalar dataType="xsd:double" dictRef="x:zzzx">-7.6453</scalar></list></list><list cmlx:templateRef="zzzy"><list><scalar dataType="xsd:double" dictRef="x:zzzy">-0.0025</scalar><scalar dataType="xsd:double" dictRef="x:xxyy">-309.8236</scalar><scalar dataType="xsd:double" dictRef="x:xxzz">-294.5922</scalar><scalar dataType="xsd:double" dictRef="x:yyzz">-103.9657</scalar></list></list><list cmlx:templateRef="xzz"><scalar dataType="xsd:string" dictRef="x:xzz">N-N= 4.509014278935D+02 E-N=-3.626816752020D+03  KE= 1.148931366329D+03</scalar></list></module></module><module cmlx:lineCount="49" cmlx:templateRef="l601.fermi"><list cmlx:lineCount="13" cmlx:templateRef="fermi.atom"><array dataType="xsd:integer" dictRef="cc:serial" size="13">1 2 3 4 5 6 7 8 9 10 11 12 13</array><array dataType="xsd:string" dictRef="x:elementType" size="13">C C C C C C H H H Cl H H Cl</array><array dataType="xsd:integer" dictRef="x:isotopeNumber" size="13">13 13 13 13 13 13 1 1 1 35 1 1 35</array><array dataType="xsd:double" dictRef="cc:coupling" size="13">0.02539 0.00582 -0.00894 0.01259 -0.00894 0.00582 0.00275 -0.0018 6.2E-4 0.00435 6.2E-4 -0.0018 0.05688</array><array dataType="xsd:double" dictRef="cc:coupling" size="13">28.54777 6.54434 -10.04927 14.15906 -10.04874 6.54216 12.27431 -8.06567 2.76851 1.90601 2.76825 -8.06537 24.94015</array><array dataType="xsd:double" dictRef="cc:coupling" size="13">10.18656 2.33518 -3.58583 5.0523 -3.58564 2.3344 4.37978 -2.87803 0.98787 0.68011 0.98778 -2.87793 8.89927</array><array dataType="xsd:double" dictRef="cc:coupling" size="13">9.5225 2.1829 -3.352 4.7229 -3.3519 2.1822 4.0942 -2.6904 0.9234 0.6357 0.9233 -2.6903 8.3191</array><array dataType="xsd:double" dictRef="cc:coupling" size="13">1.0 6.0 8.0 5.0 0.0 3.0 7.0 2.0 8.0 8.0 9.0 2.0 4.0</array></list><list cmlx:lineCount="13" cmlx:templateRef="fermi.spindipole"><array dataType="xsd:integer" dictRef="cc:serial" size="13">1 2 3 4 5 6 7 8 9 10 11 12 13</array><array dataType="xsd:double" dictRef="g:spindipole.xx" size="13">0.0053 -0.039723 0.018332 -0.051376 0.018325 -0.039699 -7.55E-4 -0.006692 0.001613 -0.085744 0.001613 -0.006691 0.621221</array><array dataType="xsd:double" dictRef="g:spindipole.yy" size="13">-0.061839 -0.068059 0.02484 -0.102658 0.024835 -0.068062 -0.012018 0.009541 0.001033 -0.114561 0.001033 0.009537 -2.03853</array><array dataType="xsd:double" dictRef="g:spindipole.zz" size="13">0.05654 0.107782 -0.043172 0.154034 -0.04316 0.107761 0.012773 -0.002849 -0.002646 0.200305 -0.002645 -0.002845 1.417309</array></list><list cmlx:lineCount="13" cmlx:templateRef="fermi.spindipole"><array dataType="xsd:integer" dictRef="cc:serial" size="13">1 2 3 4 5 6 7 8 9 10 11 12 13</array><array dataType="xsd:double" dictRef="g:spindipole.xy" size="13">1.0E-5 0.005157 -1.33E-4 2.0E-6 1.3E-4 -0.005127 -2.0E-6 -0.004662 -6.64E-4 4.0E-6 6.63E-4 0.004663 3.44E-4</array><array dataType="xsd:double" dictRef="g:spindipole.xz" size="13">0.095387 0.081893 -0.02933 0.101662 -0.02933 0.081915 -0.009485 0.00343 -8.81E-4 0.149929 -8.81E-4 0.003428 3.043747</array><array dataType="xsd:double" dictRef="g:spindipole.yz" size="13">1.3E-5 0.006262 7.97E-4 7.0E-6 -8.0E-4 -0.006195 5.0E-6 0.005511 9.4E-4 8.0E-6 -9.41E-4 -0.005516 3.9E-4</array></list></module><module cmlx:lineCount="57" cmlx:templateRef="l601.anisospin"><module cmlx:lineCount="3" cmlx:templateRef="atom"><matrix rows="3" columns="3" dataType="xsd:double" dictRef="g:axis" cmlx:templateRef="baa">0.7935 0.0 -0.6085 -1.0E-4 1.0 0.0 0.6085 1.0E-4 0.7935</matrix><vector3 dictRef="g:coupling.au">-0.0678 -0.0618 0.1297</vector3><vector3 dictRef="g:coupling.mhz">-9.105 -8.298 17.403</vector3><vector3 dictRef="g:coupling.g">-3.249 -2.961 6.21</vector3><vector3 dictRef="g:coupling.ten">-3.037 -2.768 5.805</vector3><scalar dataType="xsd:integer" dictRef="x:serial">1</scalar><scalar dataType="xsd:string" dictRef="x:elementType">C</scalar><scalar dataType="xsd:integer" dictRef="x:isotopeNumber">13</scalar></module> <module cmlx:lineCount="3" cmlx:templateRef="atom"><matrix rows="3" columns="3" dataType="xsd:double" dictRef="g:axis" cmlx:templateRef="baa">0.8882 -0.2495 -0.3857 0.2135 0.9677 -0.1341 0.4067 0.0368 0.9128</matrix><vector3 dictRef="g:coupling.au">-0.0767 -0.0678 0.1445</vector3><vector3 dictRef="g:coupling.mhz">-10.297 -9.097 19.394</vector3><vector3 dictRef="g:coupling.g">-3.674 -3.246 6.92</vector3><vector3 dictRef="g:coupling.ten">-3.435 -3.034 6.469</vector3><scalar dataType="xsd:integer" dictRef="x:serial">2</scalar><scalar dataType="xsd:string" dictRef="x:elementType">C</scalar><scalar dataType="xsd:integer" dictRef="x:isotopeNumber">13</scalar></module> <module cmlx:lineCount="3" cmlx:templateRef="atom"><matrix rows="3" columns="3" dataType="xsd:double" dictRef="g:axis" cmlx:templateRef="baa">0.3717 -0.0087 0.9283 0.0769 0.9968 -0.0215 0.9252 -0.0794 -0.3711</matrix><vector3 dictRef="g:coupling.au">-0.0549 0.0248 0.0301</vector3><vector3 dictRef="g:coupling.mhz">-7.37 3.33 4.04</vector3><vector3 dictRef="g:coupling.g">-2.63 1.188 1.442</vector3><vector3 dictRef="g:coupling.ten">-2.458 1.111 1.348</vector3><scalar dataType="xsd:integer" dictRef="x:serial">3</scalar><scalar dataType="xsd:string" dictRef="x:elementType">C</scalar><scalar dataType="xsd:integer" dictRef="x:isotopeNumber">13</scalar></module> <module cmlx:lineCount="3" cmlx:templateRef="atom"><matrix rows="3" columns="3" dataType="xsd:double" dictRef="g:axis" cmlx:templateRef="baa">1.0E-4 1.0 -1.0E-4 0.9249 -1.0E-4 -0.3803 0.3803 0.0 0.9249</matrix><vector3 dictRef="g:coupling.au">-0.1027 -0.0932 0.1958</vector3><vector3 dictRef="g:coupling.mhz">-13.776 -12.504 26.28</vector3><vector3 dictRef="g:coupling.g">-4.916 -4.462 9.377</vector3><vector3 dictRef="g:coupling.ten">-4.595 -4.171 8.766</vector3><scalar dataType="xsd:integer" dictRef="x:serial">4</scalar><scalar dataType="xsd:string" dictRef="x:elementType">C</scalar><scalar dataType="xsd:integer" dictRef="x:isotopeNumber">13</scalar></module> <module cmlx:lineCount="3" cmlx:templateRef="atom"><matrix rows="3" columns="3" dataType="xsd:double" dictRef="g:axis" cmlx:templateRef="baa">0.3717 0.0087 0.9283 -0.0768 0.9968 0.0214 0.9252 0.0792 -0.3712</matrix><vector3 dictRef="g:coupling.au">-0.0549 0.0248 0.0301</vector3><vector3 dictRef="g:coupling.mhz">-7.369 3.329 4.04</vector3><vector3 dictRef="g:coupling.g">-2.629 1.188 1.442</vector3><vector3 dictRef="g:coupling.ten">-2.458 1.11 1.348</vector3><scalar dataType="xsd:integer" dictRef="x:serial">5</scalar><scalar dataType="xsd:string" dictRef="x:elementType">C</scalar><scalar dataType="xsd:integer" dictRef="x:isotopeNumber">13</scalar></module> <module cmlx:lineCount="3" cmlx:templateRef="atom"><matrix rows="3" columns="3" dataType="xsd:double" dict
[...]
.04618 5.86528 2.64397 2.045 2.64396 3.29757 2.61442 2.045 2.04619 5.86521 5.02604 2.08501 2.09326 2.09331 2.1014 2.08653 2.09513 2.0226 1.6894 2.0764 2.11373 2.09305 2.12544 2.07886 2.07889 2.07638 2.09305 2.11376 2.10143 2.08651 2.09513 2.02258 1.68942 0.80721 0.75493 0.75494 0.02715 -3.13111 3.00554 -0.15272 -0.0272 3.13103 -3.00558 0.15264 -0.01274 3.12701 -3.13759 0.00216 -1.11943 2.02032 1.36509 2.46477 -2.68079 -1.58111 -0.00188 3.14064 3.14153 8.7E-4 0.00184 -3.14159 -3.14069 -9.3E-4 0.01284 3.13772 1.11955 -3.1269 -0.00202 -2.02019 -1.36514 -2.4648 2.68074 1.58109</array><array dataType="xsd:double" dictRef="cc:deriv" size="77">-4.0E-5 -3.0E-5 -1.0E-5 -5.0E-5 -2.7E-4 -4.0E-5 0.0 -2.0E-4 -6.0E-5 -2.0E-4 -3.0E-5 -2.7E-4 -6.0E-5 -4.0E-5 0.0 -7.0E-5 -3.0E-5 2.0E-5 1.0E-5 1.0E-5 1.0E-5 -1.0E-5 3.0E-5 0.0 -6.0E-5 3.0E-5 3.0E-5 1.4E-4 -7.0E-5 -7.0E-5 -6.0E-5 3.0E-5 2.0E-5 0.0 1.0E-5 -1.0E-5 3.0E-5 0.0 -2.0E-5 0.0 0.0 2.0E-5 3.0E-5 -4.0E-5 -3.0E-5 -2.0E-5 -3.0E-5 4.0E-5 3.0E-5 -1.0E-5 0.0 -2.0E-5 -1.0E-5 1.0E-5 1.0E-5 -3.0E-5 -1.0E-5 -2.0E-5 -1.0E-5 -1.0E-5 -1.0E-5 -1.0E-5 -1.0E-5 1.0E-5 1.0E-5 1.0E-5 1.0E-5 0.0 1.0E-5 -1.0E-5 0.0 1.0E-5 -1.0E-5 3.0E-5 2.0E-5 2.0E-5 1.0E-5</array><array dataType="xsd:double" dictRef="cc:delta.linear" size="77">0.0 0.0 0.0 0.0 0.0 0.0 0.0 0.0 0.0 0.0 0.0 0.0 0.0 0.0 0.0 0.0 0.0 0.0 0.0 0.0 0.0 0.0 0.0 0.0 0.0 0.0 0.0 0.0 0.0 0.0 0.0 0.0 0.0 0.0 0.0 0.0 0.0 0.0 0.0 0.0 0.0 0.0 0.0 0.0 0.0 0.0 0.0 0.0 0.0 0.0 0.0 0.0 0.0 0.0 0.0 0.0 0.0 0.0 0.0 0.0 0.0 0.0 0.0 0.0 0.0 0.0 0.0 0.0 0.0 0.0 0.0 0.0 0.0 0.0 0.0 0.0 0.0</array><array dataType="xsd:double" dictRef="cc:delta.quad" size="77">2.5E-4 2.9E-4 -1.6E-4 -0.01066 -6.3E-4 -1.0E-4 -0.0032 -3.8E-4 -1.7E-4 -3.7E-4 6.0E-5 -6.3E-4 -1.7E-4 -1.1E-4 -0.00311 -0.01302 -2.7E-4 -1.8E-4 -2.3E-4 1.3E-4 -7.0E-5 -6.0E-5 0.00436 -0.00128 -2.8E-4 1.8E-4 1.1E-4 5.6E-4 -2.6E-4 -3.0E-4 -2.7E-4 1.1E-4 1.5E-4 1.1E-4 -5.0E-5 -6.0E-5 0.00438 -0.0013 4.8E-4 8.1E-4 8.0E-4 7.8E-4 0.00107 -0.00393 -0.00363 -7.3E-4 -9.9E-4 0.00397 0.00371 -1.9E-4 2.2E-4 -4.9E-4 -8.0E-5 0.00147 0.00187 -0.00247 -0.0020 -0.00113 -6.6E-4 -4.7E-4 -3.7E-4 -8.7E-4 -7.7E-4 5.2E-4 9.4E-4 4.1E-4 8.3E-4 9.0E-5 3.6E-4 -0.00159 -3.3E-4 -6.0E-5 -0.00201 0.00252 0.00202 0.00118 6.8E-4</array><array dataType="xsd:double" dictRef="cc:delta.total" size="77">2.5E-4 2.9E-4 -1.6E-4 -0.01066 -6.3E-4 -1.0E-4 -0.0032 -3.8E-4 -1.7E-4 -3.7E-4 6.0E-5 -6.3E-4 -1.7E-4 -1.1E-4 -0.00311 -0.01302 -2.7E-4 -1.8E-4 -2.3E-4 1.4E-4 -7.0E-5 -6.0E-5 0.00436 -0.00128 -2.8E-4 1.8E-4 1.1E-4 5.6E-4 -2.6E-4 -3.0E-4 -2.7E-4 1.2E-4 1.6E-4 1.1E-4 -5.0E-5 -6.0E-5 0.00438 -0.0013 4.8E-4 8.1E-4 8.0E-4 7.8E-4 0.00107 -0.00393 -0.00363 -7.3E-4 -9.9E-4 0.00397 0.00371 -1.9E-4 2.2E-4 -4.9E-4 -8.0E-5 0.00147 0.00188 -0.00247 -0.0020 -0.00113 -6.6E-4 -4.7E-4 -3.7E-4 -8.7E-4 -7.7E-4 5.2E-4 9.4E-4 4.1E-4 8.3E-4 9.0E-5 3.6E-4 -0.0016 -3.3E-4 -6.0E-5 -0.00202 0.00253 0.00203 0.00118 6.8E-4</array><array dataType="xsd:double" dictRef="cc:newval" size="77">2.66736 2.66736 2.04232 4.86124 2.61378 2.04609 5.86208 2.64359 2.04483 2.64359 3.29764 2.61378 2.04483 2.04609 5.8621 5.01302 2.08473 2.09308 2.09308 2.10154 2.08646 2.09507 2.02696 1.68812 2.07611 2.11391 2.09316 2.126 2.07859 2.07859 2.07611 2.09316 2.11391 2.10154 2.08646 2.09507 2.02696 1.68813 0.80768 0.75574 0.75574 0.02793 -3.13004 3.00161 -0.15635 -0.02793 3.13003 -3.00161 0.15635 -0.01293 3.12722 -3.13808 0.00208 -1.11796 2.0222 1.36262 2.46277 -2.68192 -1.58177 -0.00235 3.14027 3.14066 1.0E-4 0.00235 -3.14066 -3.14027 -1.0E-4 0.01293 3.13808 1.11795 -3.12722 -0.00208 -2.02221 -1.36262 -2.46277 2.68192 1.58177</array></list></module><module cmlx:lineCount="5" cmlx:templateRef="l103.itemconverge"><list cmlx:lineCount="4" cmlx:templateRef="row"><array dataType="xsd:string" dictRef="g:item"/><array dataType="xsd:double" dictRef="g:value" size="4">4.5E-4 3.0E-4 0.0018 0.0012</array><array dataType="xsd:double" dictRef="g:threshold" size="4">0.0 0.0 0.0 0.0</array><array dataType="xsd:string" dictRef="g:converged" size="4">YES YES NO NO</array></list></module><module cmlx:lineCount="1" cmlx:templateRef="preddelta"><list cmlx:templateRef="predicted"><scalar dataType="xsd:double" dictRef="g:predchange">-1.659813E-6</scalar></list></module> GradGradGradGradGradGradGradGradGradGradGradGradGradGradGradGradGradGrad</module><module cmlx:lineCount="167" cmlx:templateRef="l9999.archive"><scalar dataType="xsd:string" dictRef="cc:hostname">GINC-PUBLIX</scalar><scalar dataType="xsd:string" dictRef="g:operation">Freq</scalar><scalar dataType="xsd:string" dictRef="cc:method">UB3LYP</scalar><scalar dataType="xsd:string" dictRef="cc:basis">6-311+G(d,p)</scalar><scalar dataType="xsd:string" dictRef="cc:jobname">NOBODY</scalar><scalar dataType="xsd:date" dictRef="cc:date">2006-08-25T00:00:00Z</scalar><scalar dataType="xsd:string" dictRef="g:keyword">#P</scalar><scalar dataType="xsd:string" dictRef="g:keyword">GEOM=ALLCHECK</scalar><scalar dataType="xsd:string" dictRef="g:keyword">GUESS=READ</scalar><scalar dataType="xsd:string" dictRef="g:keyword">SCRF=CHECK</scalar><scalar dataType="xsd:string" dictRef="g:keyword">GENCHK</scalar><scalar dataType="xsd:string" dictRef="g:keyword">UB3LYP/6-311+G(D,P)FREQ</scalar><scalar dataType="xsd:string" dictRef="cc:title">chlorobz/cl complex basis</scalar><molecule id="a13" spinMultiplicity="2" formalCharge="0"><atomArray><atom id="a1" elementType="C" x3="-1.3953646679" y3="-0.553360371" z3="-0.8058137729"><scalar dataType="xsd:integer" dictRef="compchem:atomicNumber">6</scalar></atom><atom id="a2" elementType="C" x3="-1.3951308178" y3="-0.5550906019" z3="0.6055588979"><scalar dataType="xsd:integer" dictRef="compchem:atomicNumber">6</scalar></atom><atom id="a3" elementType="C" x3="-0.2017539423" y3="-0.5553831079" z3="1.3054838105"><scalar dataType="xsd:integer" dictRef="compchem:atomicNumber">6</scalar></atom><atom id="a4" elementType="C" x3="1.0020012237" y3="-0.5695377655" z3="0.592511405"><scalar dataType="xsd:integer" dictRef="compchem:atomicNumber">6</scalar></atom><atom id="a5" elementType="C" x3="1.0297632445" y3="-0.5856052343" z3="-0.8062417237"><scalar dataType="xsd:integer" dictRef="compchem:atomicNumber">6</scalar></atom><atom id="a6" elementType="C" x3="-0.1670769859" y3="-0.5852856818" z3="-1.5002274293"><scalar dataType="xsd:integer" dictRef="compchem:atomicNumber">6</scalar></atom><atom id="a7" elementType="H" x3="-2.3233817733" y3="-0.6801814234" z3="-1.345170954"><scalar dataType="xsd:integer" dictRef="compchem:atomicNumber">1</scalar></atom><atom id="a8" elementType="H" x3="-2.336874263" y3="-0.5404953593" z3="1.139739947"><scalar dataType="xsd:integer" dictRef="compchem:atomicNumber">1</scalar></atom><atom id="a9" elementType="H" x3="-0.188184729" y3="-0.5431898572" z3="2.387499746"><scalar dataType="xsd:integer" dictRef="compchem:atomicNumber">1</scalar></atom><atom id="a10" elementType="Cl" x3="2.5093882022" y3="-0.5685029017" z3="1.4716077604"><scalar dataType="xsd:integer" dictRef="compchem:atomicNumber">17</scalar></atom><atom id="a11" elementType="H" x3="1.978193695" y3="-0.5962950947" z3="-1.3272569138"><scalar dataType="xsd:integer" dictRef="compchem:atomicNumber">1</scalar></atom><atom id="a12" elementType="H" x3="-0.165866325" y3="-0.5939518556" z3="-2.5829905355"><scalar dataType="xsd:integer" dictRef="compchem:atomicNumber">1</scalar></atom><atom id="a13" elementType="Cl" x3="-1.9328302569" y3="1.9437787937" z3="-1.1551047261"><scalar dataType="xsd:integer" dictRef="compchem:atomicNumber">17</scalar></atom></atomArray><formula formalCharge="0" concise="C 6 H 5 Cl 2" dictRef="cc:formula.calc"/><bondArray><bond atomRefs2="a1 a2" id="a1_a2" order="2"/><bond atomRefs2="a1 a6" id="a1_a6" order="S"/><bond atomRefs2="a1 a7" id="a1_a7" order="S"/><bond atomRefs2="a2 a3" id="a2_a3" order="S"/><bond atomRefs2="a2 a8" id="a2_a8" order="S"/><bond atomRefs2="a3 a4" id="a3_a4" order="2"/><bond atomRefs2="a3 a9" id="a3_a9" order="S"/><bond atomRefs2="a4 a5" id="a4_a5" order="S"/><bond atomRefs2="a4 a10" id="a4_a10" order="S"/><bond atomRefs2="a5 a6" id="a5_a6" order="2"/><bond atomRefs2="a5 a11" id="a5_a11" order="S"/><bond atomRefs2="a6 a12" id="a6_a12" order="S"/></bondArray><property dictRef="cml:molmass"><scalar dataType="xsd:double" units="unit:dalton" xmlns:unit="http://www.xml-cml.org/unit/si/">148.00990000000002</scalar></property><formula concise="C 6 H 5 Cl 2" dictRef="cc:formula.user"/></molecule><scalar dataType="xsd:string" dictRef="cc:version">Sun64-SVR4-Unix-G03RevB.04</scalar><scalar dataType="xsd:string" dictRef="cc:electronicstate">2-A</scalar><scalar dataType="xsd:double" dictRef="cc:hfenergy" units="nonsi:hartree">-1152.1167719</scalar><scalar dataType="xsd:string" dictRef="x:S2">0.759167</scalar><scalar dataType="xsd:string" dictRef="x:S2-1">0.</scalar><scalar dataType="xsd:string" dictRef="x:S2A">0.750061</scalar><scalar dataType="xsd:double" dictRef="cc:rmsd" units="nonsi:unknown">7.701E-9</scalar><scalar dataType="xsd:double" dictRef="cc:rmsf" units="nonsi:unknown">9.062E-5</scalar><array dataType="xsd:double" size="3" dictRef="cc:dipole" units="nonsi:debye">0.2955771 -1.2865936 0.1908453</array><array dataType="xsd:double" size="117" dictRef="cc:dipolederiv" units="nonsi:unknown">-0.1388027 0.3220986 -0.0579835 0.1798693 -0.258607 0.1081696 -0.0540669 0.1892226 -0.0834245 0.3297202 -0.2033529 0.0402328 -0.07353 -0.1029298 0.0054031 0.3744517 -0.5517607 0.210978 -0.7617713 0.4164954 -0.2002283 -0.0192615 -0.0699882 0.00154 -0.0252267 -0.0424223 0.0472192 1.3181448 -0.2960712 0.6308597 0.0127698 0.0120353 0.0096732 0.6233325 -0.1667808 0.6118033 -0.2477377 0.1687313 -0.3237777 -0.0183429 -0.0625791 -0.0219993 -0.4865325 0.3803472 -0.4776251 0.4106366 -0.5809455 0.3379654 -0.0376159 -0.0948691 -0.0661494 -0.0088711 0.1009662 0.1225814 0.0525225 -0.0382473 -0.0150081 -0.0476469 0.1651794 -0.0290064 -0.0150531 -0.0232822 0.0706981 0.0020157 -0.0157079 0.0446937 0.0262159 0.1080633 0.0044203 0.0279256 0.0191856 0.0416008 0.0792277 0.0093322 -0.0155972 0.0054385 0.1413945 -0.0042843 -0.0111731 0.0097895 -0.0127792 -0.8457573 0.2324159 -0.4585475 0.0035767 -0.0381283 0.001646 -0.4547322 0.134785 -0.3330483 -0.0018773 0.0152041 0.034684 0.0014322 0.1413015 0.0049373 0.0306948 0.0012922 0.0682112 0.0637007 0.0090597 -0.0064795 0.0173094 0.107836 0.0179003 0.0097194 -0.0259273 -0.0197193 -0.2600219 -0.0390124 -0.0108139 -0.0502145 -0.0487084 -0.0322503 -0.0104684 -0.0254149 -0.2464955</array><array dataType="xsd:double" size="6" dictRef="cc:polarizability" units="nonsi:unknown">138.8105798 -38.2193923 106.199631 29.3220622 -22.5945926 107.078015</array><scalar dataType="xsd:string" dictRef="cc:pointgroup">C01 [X(C6H5Cl2)]</scalar><array dataType="xsd:double" size="780" dictRef="x:unknown">0.68983767 0.04450291 0.1148278 0.04664015 0.03303422 0.6354196 -0.12149167 -0.0073365 0.02505995 0.73415873 -0.0067133 -0.05623735 9.4389E-4 -0.00147929 0.13554607 -0.0159967 -0.0161412 -0.30363812 -0.02613379 0.00544142 0.64958764 0.01870563 0.00844417 -0.05503692 -0.28981581 -0.00394231 -0.06699732 0.63495355 0.00105365 0.00738266 -2.2981E-4 4.3642E-4 -0.059697 1.0002E-4 -0.0049068 0.12655831 -0.03142721 -6.3213E-4 -0.02506445 -0.13214116 2.0875E-4 -0.18890832 0.02194697 0.00644132 0.75251432 -0.00892615 -0.00387574 0.02034157 -0.0655178 0.00313108 -0.02900079 -0.22941219 0.00334672 0.12542452 0.52456603 1.9866E-4 -0.00844055 -3.9378E-4 3.2356E-4 0.00549921 6.2588E-4 0.00143074 -0.0627215 -0.002009 -0.00227241 0.12712743 0.02029477 -0.00275867 -0.03187325 0.02654931 -0.00315105 0.057002 0.05345944 -0.00291144 -0.17972568 -0.05263184 0.00564053 0.58418049 -0.0514626 0.00453261 0.00823573 -0.0146398 7.3999E-4 -0.02184536 0.03340459 8.3491E-4 0.02874999 -0.11505178 8.9263E-4 0.06079549 0.74275984 7.2062E-4 0.00753383 0.00173214 -2.9591E-4 -0.00336955 -9.6754E-4 0.00126067 0.00805466 -1.1213E-4 -4.6083E-4 -0.06269053 -0.00132848 -0.00528986 0.12652123 -0.01523252 0.00865394 0.0449488 -0.0251867 0.00143117 -0.04039761 0.06942273 -3.4508E-4 -0.02212872 -0.01118997 -0.00257019 -0.29409564 -0.03910606 0.00410961 0.64472522 -0.25580665 -0.0138893 0.06013182 0.0263343 0.00154549 0.05625262 -0.05429377 -3.5344E-4 5.9833E-4 0.02619539 -0.00127156 -0.08085497 -0.29871464 0.00193915 -0.06202256 0.64773882 0.00217056 -0.05621003 -0.00948416 -9.305E-4 0.007294 0.00118855 0.00218966 -0.0033815 -1.242E-5 -0.00200483 0.00561278 0.00441944 -0.00151063 -0.05979085 -0.00534025 -0.00188018 0.13561835 0.10094011 -0.00211779 -0.16936086 0.03256369 -0.00246819 -0.02390793 -0.00278816 3.1091E-4 -7.24E-4 -0.02531955 -5.7509E-4 -0.03484039 -0.12708166 -6.6273E-4 -0.17989697 0.02277623 0.0086279 0.73593635 -0.27048943 -0.0325836 -0.12324692 0.00456387 0.00142308 0.00142156 0.00212024 -7.3064E-4 8.5498E-4 -3.561E-4 9.828E-5 0.00102573 -0.00273616 -5.4395E-4 0.00389551 -0.01828631 -0.00247173 -0.01475564 0.28373368 -0.03437902 -0.03321874 -0.0204093 0.00131213 0.00309675 0.00291975 -9.9905E-4 0.00515433 7.008E-5 5.0308E-4 -4.0336E-4 2.6691E-4 -2.5812E-4 0.00513402 -0.0010733 0.00376034 0.00314554 8.077E-5 0.0314474 0.03301015 -0.12321877 -0.01936186 -0.12992665 -0.02774515 -0.0035888 -0.01072543 0.00115034 -4.2107E-4 -0.00541728 0.00102058 3.193E-5 -0.00151751 0.0036017 -5.9384E-4 -5.3757E-4 0.01432181 0.00301902 0.01207638 0.13134158 0.01869379 0.13406167 0.00467713 6.539E-5 -0.00251037 -0.27336232 0.00319149 0.12164381 -0.017892 4.3252E-4 0.01476455 -0.00220005 1.315E-4 -0.00287863 1.0347E-4 -2.803E-5 -7.1874E-4 0.00138595 3.212E-5 -7.7477E-4 5.2591E-4 7.96E-6 3.0644E-4 0.28688054 -4.5281E-4 0.00264799 9.6623E-4 0.00360412 -0.03799416 -0.00405577 4.7264E-4 0.00552453 1.7858E-4 -4.2534E-4 0.00792941 2.6447E-4 -1.1331E-4 -0.00112689 -2.7437E-4 3.0736E-4 0.00536196 7.535E-5 4.4211E-4 -0.00285389 4.0644E-4 -0.00379787 0.02505051 0.02816581 -2.2223E-4 -0.01081218 0.12180878 -0.00179003 -0.1271311 -0.01627902 5.986E-5 0.01161234 -0.00263425 -1.5736E-4 -9.1478E-4 -6.3583E-4 -8.11E-6 -3.5446E-4 -0.00117022 1.7571E-4 -0.00577179 -2.6566E-4 -9.29E-5 9.8071E-4 -0.1296114 0.00239957 0.13192778 -0.00473572 -1.0654E-4 -0.0021377 0.00439639 1.781E-5 -0.02813651 -0.05665293 -5.568E-5 -0.00347576 0.00241169 3.9943E-4 0.02808751 -0.00479873 8.133E-5 0.00193322 -8.8081E-4 6.625E-5 -2.3451E-4 1.4493E-4 -3.295E-5 -0.00127847 9.2065E-4 5.7E-6 3.9354E-4 0.05780313 4.8187E-4 0.00777192 3.3231E-4 1.1944E-4 0.00399803 -3.4203E-4 -6.27E-5 -0.03615437 -0.00362352 9.143E-5 0.00228283 -4.2438E-4 9.521E-5 0.00537644 1.0822E-4 -9.293E-5 -0.00100617 4.89E-6 -2.0569E-4 3.188E-5 2.4956E-4 -1.364E-4 -0.00457095 8.142E-5 -1.771E-4 0.02479582 -0.00251363 -2.5024E-4 6.9006E-4 0.00170598 1.691E-5 -0.00976209 -7.487E-4 -0.00342938 -0.34292249 -0.003421 -1.3498E-4 -0.01201903 0.00250821 -6.417E-5 6.4382E-4 1.1256E-4 -3.71E-6 6.2659E-4 2.2969E-4 4.556E-5 -4.805E-4 -9.512E-5 8.873E-5 7.463E-4 0.00281962 0.00376861 0.36158172 -0.00200438 0.00164258 -0.00171537 0.00143746 -3.5462E-4 0.00934355 -0.04365756 -3.287E-4 -0.02447871 -0.12907577 -1.3823E-4 -0.05129536 -0.01668837 -3.1684E-4 -0.01457062 0.00581746 -3.216E-4 -6.1784E-4 2.9342E-4 -2.3824E-4 4.21E-6 -0.00112499 5.463E-5 -0.00117903 9.7099E-4 1.293E-5 -4.8804E-4 0.18354197 -2.156E-4 -7.1459E-4 -1.0206E-4 -2.829E-5 0.00442469 -1.4446E-4 4.4997E-4 0.00546303 4.384E-5 -1.6207E-4 -0.02478672 -3.2777E-4 -3.1506E-4 0.00546406 -2.721E-5 -9.18E-6 0.00442114 -1.1492E-4 8.994E-5 -5.1462E-4 6.392E-5 1.696E-5 -2.8722E-4 4.736E-5 -4.835E-5 -0.00227792 7.282E-5 2.161E-4 0.01135738 -0.00169064 9.8027E-4 -1.0312E-4 0.00185768 -1.3546E-4 8.8321E-4 6.8667E-4 -1.3245E-4 0.0054201 -0.05129437 -3.1549E-4 -0.07103738 -0.03974709 -3.0345E-4 -0.02155596 0.00686434 -4.9712E-4 -0.0034865 -7.3E-7 -1.2699E-4 2.9262E-4 1.7232E-4 3.909E-5 -4.433E-5 6.1522E-4 9.677E-5 0.00124781 0.08473517 5.1063E-4 0.08764933 -0.00262758 -2.2085E-4 -0.00370761 2.1936E-4 4.1E-7 -5.0572E-4 0.0012287 2.426E-5 -8.972E-4 0.00205037 1.08E-6 -0.00321698 -0.2753237 0.00258857 0.1229702 -0.01765253 5.9205E-4 0.01418831 -7.7813E-4 5.077E-5 7.4638E-4 -2.365E-5 -1.328E-5 7.024E-5 2.4557E-4 -4.79E-6 -1.263E-4 0.00123329 -1.794E-5 -6.384E-4 0.29034521 5.8503E-4 0.00777037 1.0431E-4 -7.538E-5 -0.0010055 -6.578E-5 1.6184E-4 0.00537192 -1.9082E-4 2.8116E-4 0.00228902 3.153E-5 0.00234942 -0.03614647 -0.00167796 -3.0348E-4 0.00400699 2.7407E-4 1.0952E-4 2.276E-5 -3.0202E-4 -1.806E-5 -7.5374E-4 -3.83E-6 2.671E-5 4.0807E-4 -1.969E-5 5.717E-5 -0.00227998 4.124E-5 -0.00285084 0.02478709 -0.00334079 -1.2537E-4 -0.00142708 -8.5482E-4 8.316E-5 -4.6422E-4 -0.00147671 -1.1317E-4 -0.00538268 0.02829131 -2.2797E-4 -0.01166735 0.12024617 -0.00173928 -0.12425513 -0.01565268 3.8091E-4 0.01227687 -7.5834E-4 -3.3E-5 4.5046E-4 6.391E-5 2.9E-6 7.136E-5 0.00135779 -2.48E-6 -4.508E-4 4.6551E-4 -1.383E-5 9.8542E-4 -0.1287505 0.0018145 0.12905298 0.00394716 4.3406E-4 0.02856739 -0.00486178 3.4688E-4 0.00236419 -8.2568E-4 -2.67E-5 -1.083E-4 -0.00359153 3.162E-5 -0.00185797 0.00381347 -3.2599E-4 -0.02855062 -0.05827026 2.6856E-4 1.2005E-4 8.9309E-4 -1.3339E-4 -4.6578E-4 1.2317E-4 -1.255E-5 0.00137527 1.0544E-4 -2.312E-5 -2.75E-6 -7.3633E-4 2.553E-5 -0.00139812 9.1711E-4 -5.625E-5 3.9666E-4 0.05840486 5.5629E-4 0.00261605 -0.00149901 4.0433E-4 0.00535564 9.867E-5 -3.0557E-4 -0.00112131 7.314E-5 1.2143E-4 0.00791772 -6.3494E-4 4.6506E-4 0.00553162 3.4485E-4 -0.0015046 -0.03792924 -0.00140197 5.2695E-4 -0.00285318 2.6494E-4 -1.323E-5 5.3766E-4 -4.656E-5 -1.494E-5 -7.5353E-4 2.01E-6 6.516E-5 -2.8798E-4 4.216E-5 1.008E-5 -0.00457285 6.995E-5 -2.0511E-4 0.02501387 -0.0021012 -7.994E-5 -0.01004961 0.00275282 -1.9782E-4 4.8021E-4 -1.8347E-4 1.825E-5 5.7502E-4 -0.00209005 6.158E-5 4.7864E-4 0.00247298 -2.368E-5 -0.01009926 -2.336E-5 -0.00287102 -0.34228513 9.156E-5 1.2575E-4 6.1196E-4 -2.1797E-4 -8.41E-6 -5.3123E-4 -9.35E-6 1.11E-6 -5.61E-5 -4.727E-5 -1.091E-5 -4.3163E-4 -9.753E-5 -4.305E-5 7.5414E-4 -3.5196E-4 0.00271629 0.36043638 3.7661E-4 -0.00160919 -6.2171E-4 -0.00142094 0.00209328 -0.00240954 0.00213723 2.7347E-4 1.89E-4 -0.00109211 1.747E-4 0.0025235 -6.6559E-4 6.7107E-4 -0.00164387 -0.00356693 0.00380028 9.8372E-4 3.71E-4 -0.00104091 2.1513E-4 -1.38E-5 -7.141E-5 -3.824E-5 6.94E-5 -9.815E-5 1.949E-5 -7.16E-6 -2.01E-6 -1.6205E-4 1.6597E-4 -2.6684E-4 1.248E-5 8.127E-5 -1.0585E-4 -1.952E-4 0.00356505 -0.00850885 0.00427063 -0.00499498 0.00394586 -0.00691084 0.01134249 -0.00419326 -4.3376E-4 -4.3569E-4 0.00172631 3.8425E-4 9.1388E-4 -0.00242286 -4.9158E-4 -0.00333942 0.01175232 -0.00714296 -0.00203319 0.00239834 -0.00975164 0.001538 1.1565E-4 5.3478E-4 -4.429E-4 -1.6168E-4 9.796E-5 -9.247E-5 -3.5032E-4 1.873E-5 -1.992E-4 -1.5953E-4 1.0232E-4 -9.632E-5 -3.2354E-4 5.4552E-4 3.1186E-4 -0.00381845 0.01877657 -5.1938E-4 -9.79E-4 0.00119685 -2.366E-4 0.00320606 -0.00301824 -0.00315586 6.5204E-4 1.5183E-4 0.00250385 2.395E-5 -0.00397013 0.00180573 -3.834E-5 0.00300347 -0.00133391 3.9715E-4 -6.426E-4 1.6669E-4 -4.6711E-4 1.3115E-4 -1.4405E-4 -8.28E-5 2.2136E-4 6.538E-5 -2.5047E-4 1.5469E-4 -1.5621E-4 2.6E-6 1.8044E-4 -3.489E-5 3.75E-5 5.602E-5 -8.806E-5 -2.953E-5 1.1661E-4 0.0011273 -0.00247205 0.00241853</array><array dataType="xsd:double" size="39" dictRef="x:unknown">2.399E-5 -1.9613E-4 -5.0E-8 -2.219E-4 -1.415E-5 -7.995E-5 1.292E-5 2.565E-5 6.275E-5 3.1677E-4 9.2E-6 1.7957E-4 5.778E-5 2.373E-5 -2.487E-5 -1.848E-4 -1.288E-5 -1.3665E-4 -3.252E-5 1.149E-5 -1.611E-5 -4.481E-5 9.43E-6 7.6E-7 2.28E-6 1.347E-5 5.852E-5 2.264E-5 -1.633E-5 1.561E-5 5.341E-5 1.564E-5 -2.552E-5 -2.27E-5 5.02E-6 -4.195E-5 1.694E-5 1.2585E-4 7.89E-6</array></module> THE POLHOLDE ROLLS WITHOUT SLIPPING ON THE HERPOLHOLDE LYING IN THE INVARIABLE PLANE. H.GOLDSTEIN, "CLASSICAL MECHANICS", PG 161<module cmlx:lineCount="3" cmlx:templateRef="jobcpu"><scalar dictRef="cc:jobtime" dataType="xsd:string">PT26508.800S</scalar><scalar dataType="xsd:date" dictRef="cc:jobdatetime.end">2006-08-25T21:21:27Z</scalar><scalar dataType="xsd:string" dictRef="cc:program">Gaussian 03</scalar></module></module>
