 Entering Gaussian System, Link 0=/usr/local/Gaussian/g03/g03
 Initial command:
 /usr/local/Gaussian/g03/l1.exe /export/scratch//webmo/3299/Gau-10704.inp -scrdir=/export/scratch//webmo/3299/
 Entering Link 1 = /usr/local/Gaussian/g03/l1.exe PID=     10707.
  
 Copyright (c) 1988,1990,1992,1993,1995,1998,2003, Gaussian, Inc.
                  All Rights Reserved.
  
 This is the Gaussian(R) 03 program.  It is based on the
 the Gaussian(R) 98 system (copyright 1998, Gaussian, Inc.),
 the Gaussian(R) 94 system (copyright 1995, Gaussian, Inc.),
 the Gaussian 92(TM) system (copyright 1992, Gaussian, Inc.),
 the Gaussian 90(TM) system (copyright 1990, Gaussian, Inc.),
 the Gaussian 88(TM) system (copyright 1988, Gaussian, Inc.),
 the Gaussian 86(TM) system (copyright 1986, Carnegie Mellon
 University), and the Gaussian 82(TM) system (copyright 1983,
 Carnegie Mellon University). Gaussian is a federally registered
 trademark of Gaussian, Inc.
  
 This software contains proprietary and confidential information,
 including trade secrets, belonging to Gaussian, Inc.
  
 This software is provided under written license and may be
 used, copied, transmitted, or stored only in accord with that
 written license.
  
 The following legend is applicable only to US Government
 contracts under DFARS:
  
                    RESTRICTED RIGHTS LEGEND
  
 Use, duplication or disclosure by the US Government is subject
 to restrictions as set forth in subparagraph (c)(1)(ii) of the
 Rights in Technical Data and Computer Software clause at DFARS
 252.227-7013.
  
 Gaussian, Inc.
 Carnegie Office Park, Building 6, Pittsburgh, PA 15106 USA
  
 The following legend is applicable only to US Government
 contracts under FAR:
  
                    RESTRICTED RIGHTS LEGEND
  
 Use, reproduction and disclosure by the US Government is subject
 to restrictions as set forth in subparagraph (c) of the
 Commercial Computer Software - Restricted Rights clause at FAR
 52.227-19.
  
 Gaussian, Inc.
 Carnegie Office Park, Building 6, Pittsburgh, PA 15106 USA
  
  
 ---------------------------------------------------------------
 Warning -- This program may not be used in any manner that
 competes with the business of Gaussian, Inc. or will provide
 assistance to any competitor of Gaussian, Inc.  The licensee
 of this program is prohibited from giving any competitor of
 Gaussian, Inc. access to this program.  By using this program,
 the user acknowledges that Gaussian, Inc. is engaged in the
 business of creating and licensing software in the field of
 computational chemistry and represents and warrants to the
 licensee that it is not a competitor of Gaussian, Inc. and that
 it will not use this program in any manner prohibited above.
 ---------------------------------------------------------------
  

 Cite this work as:
 Gaussian 03, Revision B.04,
 M. J. Frisch, G. W. Trucks, H. B. Schlegel, G. E. Scuseria, 
 M. A. Robb, J. R. Cheeseman, J. A. Montgomery, Jr., T. Vreven, 
 K. N. Kudin, J. C. Burant, J. M. Millam, S. S. Iyengar, J. Tomasi, 
 V. Barone, B. Mennucci, M. Cossi, G. Scalmani, N. Rega, 
 G. A. Petersson, H. Nakatsuji, M. Hada, M. Ehara, K. Toyota, 
 R. Fukuda, J. Hasegawa, M. Ishida, T. Nakajima, Y. Honda, O. Kitao, 
 H. Nakai, M. Klene, X. Li, J. E. Knox, H. P. Hratchian, J. B. Cross, 
 C. Adamo, J. Jaramillo, R. Gomperts, R. E. Stratmann, O. Yazyev, 
 A. J. Austin, R. Cammi, C. Pomelli, J. W. Ochterski, P. Y. Ayala, 
 K. Morokuma, G. A. Voth, P. Salvador, J. J. Dannenberg, 
 V. G. Zakrzewski, S. Dapprich, A. D. Daniels, M. C. Strain, 
 O. Farkas, D. K. Malick, A. D. Rabuck, K. Raghavachari, 
 J. B. Foresman, J. V. Ortiz, Q. Cui, A. G. Baboul, S. Clifford, 
 J. Cioslowski, B. B. Stefanov, G. Liu, A. Liashenko, P. Piskorz, 
 I. Komaromi, R. L. Martin, D. J. Fox, T. Keith, M. A. Al-Laham, 
 C. Y. Peng, A. Nanayakkara, M. Challacombe, P. M. W. Gill, 
 B. Johnson, W. Chen, M. W. Wong, C. Gonzalez, and J. A. Pople, 
 Gaussian, Inc., Pittsburgh PA, 2003.
 
 ***************************************************
 Gaussian 03:  Sun64-SVR4-Unix-G03RevB.04 2-Jun-2003
                     24-Aug-2006 
 ***************************************************
 ------------------------------
 #P B3LYP/6-311+G(d,p) OPT FREQ
 ------------------------------
 1/14=-1,18=20,26=3,38=1/1,3;
 2/9=110,17=6,18=5,40=1/2;
 3/5=4,6=6,7=111,11=2,16=1,25=1,30=1,74=-5/1,2,3;
 4//1;
 5/5=2,38=5/2;
 6/7=2,8=2,9=2,10=2,28=1/1;
 7//1,2,3,16;
 1/14=-1,18=20/3(1);
 99//99;
 2/9=110/2;
 3/5=4,6=6,7=111,11=2,16=1,25=1,30=1,74=-5/1,2,3;
 4/5=5,16=3/1;
 5/5=2,38=5/2;
 7//1,2,3,16;
 1/14=-1,18=20/3(-5);
 2/9=110/2;
 6/7=2,8=2,9=2,10=2,19=2,28=1/1;
 99/9=1/99;
 Leave Link    1 at Thu Aug 24 15:11:27 2006, MaxMem=          0 cpu:       0.2
 (Enter /usr/local/Gaussian/g03/l101.exe)
 -------------------------
 chlorobz/cl complex basis
 -------------------------
 Symbolic Z-matrix:
 Charge =  0 Multiplicity = 2
 C
 C                    1    B1
 C                    1    B2       2    A1
 C                    1    B3       2    A2       3    D1       0
 C                    1    B4       2    A3       3    D2       0
 C                    1    B5       2    A4       3    D3       0
 H                    1    B6       2    A5       3    D4       0
 H                    1    B7       2    A6       3    D5       0
 H                    1    B8       2    A7       3    D6       0
 Cl                   1    B9       2    A8       3    D7       0
 H                    1    B10      2    A9       3    D8       0
 H                    1    B11      2    A10      3    D9       0
 Cl                   1    B12      2    A11      3    D10      0
       Variables:
  A5                  119.93241                  
  D6                   -0.57867                  
  A6                   25.86147                  
  D7                    0.22123                  
  A7                   20.70889                  
  D8                    0.69235                  
  A8                   59.74665                  
  D9                    1.83545                  
  A9                   98.7866                   
  A10                 145.34559                  
  A11                  97.7931                   
  B1                    1.40842                  
  B2                    2.41976                  
  B3                    2.76909                  
  B4                    2.41973                  
  B5                    1.40834                  
  B6                    1.08064                  
  B7                    2.15853                  
  B8                    3.40818                  
  D10                -102.15861                  
  B9                    4.51243                  
  B10                   3.40816                  
  B11                   2.15839                  
  B12                   2.5789                   
  D1                    0.3614                   
  D2                    0.71263                  
  A1                   29.48385                  
  D3                    1.40935                  
  A2                   59.74672                  
  D4                  172.20086                  
  A3                   90.00822                  
  A4                  119.48147                  
  D5                 -179.13485                  
 
                    Isotopes and Nuclear Properties:

  Atom         1           2           3           4           5           6           7           8           9          10
 IAtWgt=          12          12          12          12          12          12           1           1           1          35
 AtmWgt=  12.0000000  12.0000000  12.0000000  12.0000000  12.0000000  12.0000000   1.0078250   1.0078250   1.0078250  34.9688527
 IAtSpn=           0           0           0           0           0           0           1           1           1           3
 AtZEff=   0.0000000   0.0000000   0.0000000   0.0000000   0.0000000   0.0000000   0.0000000   0.0000000   0.0000000   0.0000000
 AtQMom=   0.0000000   0.0000000   0.0000000   0.0000000   0.0000000   0.0000000   0.0000000   0.0000000   0.0000000  -8.2490000
 AtGFac=   0.0000000   0.0000000   0.0000000   0.0000000   0.0000000   0.0000000   2.7928460   2.7928460   2.7928460   0.8218740

  Atom        11          12          13
 IAtWgt=           1           1          35
 AtmWgt=   1.0078250   1.0078250  34.9688527
 IAtSpn=           1           1           3
 AtZEff=   0.0000000   0.0000000   0.0000000
 AtQMom=   0.0000000   0.0000000  -8.2490000
 AtGFac=   2.7928460   2.7928460   0.8218740
 Leave Link  101 at Thu Aug 24 15:11:29 2006, MaxMem=    6291456 cpu:       0.1
 (Enter /usr/local/Gaussian/g03/l103.exe)

 GradGradGradGradGradGradGradGradGradGradGradGradGradGradGradGradGradGrad
 Berny optimization.
 Initialization pass.
                           ----------------------------
                           !    Initial Parameters    !
                           ! (Angstroms and Degrees)  !
 --------------------------                            --------------------------
 ! Name  Definition              Value          Derivative Info.                !
 --------------------------------------------------------------------------------
 ! R1    R(1,2)                  1.4084         estimate D2E/DX2                !
 ! R2    R(1,6)                  1.4083         estimate D2E/DX2                !
 ! R3    R(1,7)                  1.0806         estimate D2E/DX2                !
 ! R4    R(1,13)                 2.5789         estimate D2E/DX2                !
 ! R5    R(2,3)                  1.3804         estimate D2E/DX2                !
 ! R6    R(2,8)                  1.0824         estimate D2E/DX2                !
 ! R7    R(2,13)                 3.1015         estimate D2E/DX2                !
 ! R8    R(3,4)                  1.3959         estimate D2E/DX2                !
 ! R9    R(3,9)                  1.0817         estimate D2E/DX2                !
 ! R10   R(4,5)                  1.3958         estimate D2E/DX2                !
 ! R11   R(4,10)                 1.7433         estimate D2E/DX2                !
 ! R12   R(5,6)                  1.3804         estimate D2E/DX2                !
 ! R13   R(5,11)                 1.0818         estimate D2E/DX2                !
 ! R14   R(6,12)                 1.0824         estimate D2E/DX2                !
 ! R15   R(6,13)                 3.1015         estimate D2E/DX2                !
 ! R16   R(7,13)                 2.6604         estimate D2E/DX2                !
 ! A1    A(2,1,6)              119.4815         estimate D2E/DX2                !
 ! A2    A(2,1,7)              119.9324         estimate D2E/DX2                !
 ! A3    A(6,1,7)              119.9412         estimate D2E/DX2                !
 ! A4    A(1,2,3)              120.3729         estimate D2E/DX2                !
 ! A5    A(1,2,8)              119.5569         estimate D2E/DX2                !
 ! A6    A(3,2,8)              120.0646         estimate D2E/DX2                !
 ! A7    A(3,2,13)             115.8689         estimate D2E/DX2                !
 ! A8    A(8,2,13)              96.7842         estimate D2E/DX2                !
 ! A9    A(2,3,4)              118.9895         estimate D2E/DX2                !
 ! A10   A(2,3,9)              121.1221         estimate D2E/DX2                !
 ! A11   A(4,3,9)              119.8883         estimate D2E/DX2                !
 ! A12   A(3,4,5)              121.7736         estimate D2E/DX2                !
 ! A13   A(3,4,10)             119.1092         estimate D2E/DX2                !
 ! A14   A(5,4,10)             119.1172         estimate D2E/DX2                !
 ! A15   A(4,5,6)              118.9876         estimate D2E/DX2                !
 ! A16   A(4,5,11)             119.8861         estimate D2E/DX2                !
 ! A17   A(6,5,11)             121.1263         estimate D2E/DX2                !
 ! A18   A(1,6,5)              120.3798         estimate D2E/DX2                !
 ! A19   A(1,6,12)             119.5494         estimate D2E/DX2                !
 ! A20   A(5,6,12)             120.0652         estimate D2E/DX2                !
 ! A21   A(5,6,13)             115.8665         estimate D2E/DX2                !
 ! A22   A(12,6,13)             96.7873         estimate D2E/DX2                !
 ! A23   A(2,13,6)              46.1864         estimate D2E/DX2                !
 ! A24   A(2,13,7)              43.2155         estimate D2E/DX2                !
 ! A25   A(6,13,7)              43.2163         estimate D2E/DX2                !
 ! D1    D(6,1,2,3)              1.4093         estimate D2E/DX2                !
 ! D2    D(6,1,2,8)           -179.4558         estimate D2E/DX2                !
 ! D3    D(7,1,2,3)            172.2009         estimate D2E/DX2                !
 ! D4    D(7,1,2,8)             -8.6643         estimate D2E/DX2                !
 ! D5    D(2,1,6,5)             -1.4158         estimate D2E/DX2                !
 ! D6    D(2,1,6,12)           179.4446         estimate D2E/DX2                !
 ! D7    D(7,1,6,5)           -172.2065         estimate D2E/DX2                !
 ! D8    D(7,1,6,12)             8.6539         estimate D2E/DX2                !
 ! D9    D(1,2,3,4)             -0.708          estimate D2E/DX2                !
 ! D10   D(1,2,3,9)            179.2469         estimate D2E/DX2                !
 ! D11   D(8,2,3,4)           -179.8385         estimate D2E/DX2                !
 ! D12   D(8,2,3,9)              0.1164         estimate D2E/DX2                !
 ! D13   D(13,2,3,4)           -64.2196         estimate D2E/DX2                !
 ! D14   D(13,2,3,9)           115.7353         estimate D2E/DX2                !
 ! D15   D(3,2,13,6)            78.2177         estimate D2E/DX2                !
 ! D16   D(3,2,13,7)           141.23           estimate D2E/DX2                !
 ! D17   D(8,2,13,6)          -153.5845         estimate D2E/DX2                !
 ! D18   D(8,2,13,7)           -90.5722         estimate D2E/DX2                !
 ! D19   D(2,3,4,5)              0.0021         estimate D2E/DX2                !
 ! D20   D(2,3,4,10)           179.9969         estimate D2E/DX2                !
 ! D21   D(9,3,4,5)           -179.9534         estimate D2E/DX2                !
 ! D22   D(9,3,4,10)             0.0414         estimate D2E/DX2                !
 ! D23   D(3,4,5,6)             -0.0083         estimate D2E/DX2                !
 ! D24   D(3,4,5,11)           179.9468         estimate D2E/DX2                !
 ! D25   D(10,4,5,6)           179.9968         estimate D2E/DX2                !
 ! D26   D(10,4,5,11)           -0.048          estimate D2E/DX2                !
 ! D27   D(4,5,6,1)              0.7206         estimate D2E/DX2                !
 ! D28   D(4,5,6,12)           179.8557         estimate D2E/DX2                !
 ! D29   D(4,5,6,13)            64.2341         estimate D2E/DX2                !
 ! D30   D(11,5,6,1)          -179.234          estimate D2E/DX2                !
 ! D31   D(11,5,6,12)           -0.0989         estimate D2E/DX2                !
 ! D32   D(11,5,6,13)         -115.7205         estimate D2E/DX2                !
 ! D33   D(5,6,13,2)           -78.2262         estimate D2E/DX2                !
 ! D34   D(5,6,13,7)          -141.2368         estimate D2E/DX2                !
 ! D35   D(12,6,13,2)          153.5743         estimate D2E/DX2                !
 ! D36   D(12,6,13,7)           90.5638         estimate D2E/DX2                !
 --------------------------------------------------------------------------------
 Trust Radius=3.00D-01 FncErr=1.00D-07 GrdErr=1.00D-06
 Number of steps in this run=  87 maximum allowed number of steps= 100.
 GradGradGradGradGradGradGradGradGradGradGradGradGradGradGradGradGradGrad

 Leave Link  103 at Thu Aug 24 15:11:29 2006, MaxMem=    6291456 cpu:       0.0
 (Enter /usr/local/Gaussian/g03/l202.exe)
                          Input orientation:                          
 ---------------------------------------------------------------------
 Center     Atomic     Atomic              Coordinates (Angstroms)
 Number     Number      Type              X           Y           Z
 ---------------------------------------------------------------------
    1          6             0        0.000000    0.000000    0.000000
    2          6             0        0.000000    0.000000    1.408419
    3          6             0        1.190955    0.000000    2.106391
    4          6             0        2.391914   -0.015087    1.395134
    5          6             0        2.419540   -0.030095   -0.000347
    6          6             0        1.225606   -0.030153   -0.693101
    7          1             0       -0.927838   -0.127084   -0.539217
    8          1             0       -0.941436    0.014216    1.942354
    9          1             0        1.205141    0.012172    3.187978
   10         17             0        3.897832   -0.015050    2.273471
   11          1             0        3.367916   -0.040699   -0.520613
   12          1             0        1.226686   -0.039310   -1.775485
   13         17             0       -0.538148    2.497766   -0.349689
 ---------------------------------------------------------------------
                    Distance matrix (angstroms):
                    1          2          3          4          5
     1  C    0.000000
     2  C    1.408419   0.000000
     3  C    2.419764   1.380412   0.000000
     4  C    2.769094   2.391999   1.395857   0.000000
     5  C    2.419727   2.799947   2.438990   1.395835   0.000000
     6  C    1.408335   2.432983   2.799869   2.391909   1.380358
     7  H    1.080643   2.161092   3.391854   3.843828   3.391862
     8  H    2.158527   1.082400   2.138738   3.378095   3.882294
     9  H    3.408184   2.149265   1.081749   2.150224   3.412033
    10  Cl   4.512427   3.992698   2.712071   1.743349   2.712162
    11  H    3.408160   3.881453   3.412032   2.150191   1.081760
    12  H    2.158391   3.412265   3.882240   3.378043   2.138715
    13  Cl   2.578899   3.101513   3.906528   4.236048   3.906410
                    6          7          8          9         10
     6  C    0.000000
     7  H    2.161110   0.000000
     8  H    3.412280   2.485627   0.000000
     9  H    3.881364   4.296623   2.481808   0.000000
    10  Cl   3.992690   5.586668   4.850671   2.843880   0.000000
    11  H    2.149269   4.296663   4.963842   4.293488   2.844007
    12  H    1.082424   2.485565   4.304177   4.963777   4.850738
    13  Cl   3.101473   2.660379   3.403545   4.661794   5.733509
                   11         12         13
    11  H    0.000000
    12  H    2.481849   0.000000
    13  Cl   4.661583   3.403569   0.000000
 Stoichiometry    C6H5Cl2(2)
 Framework group  C1[X(C6H5Cl2)]
 Deg. of freedom    33
 Full point group                 C1      NOp   1
 Largest Abelian subgroup         C1      NOp   1
 Largest concise Abelian subgroup C1      NOp   1
                         Standard orientation:                         
 ---------------------------------------------------------------------
 Center     Atomic     Atomic              Coordinates (Angstroms)
 Number     Number      Type              X           Y           Z
 ---------------------------------------------------------------------
    1          6             0       -1.279048    0.000140    1.120639
    2          6             0       -0.616389    1.216643    0.866378
    3          6             0        0.661726    1.219510    0.344888
    4          6             0        1.290479   -0.000050    0.088451
    5          6             0        0.661607   -1.219480    0.345097
    6          6             0       -0.616407   -1.216340    0.866688
    7          1             0       -2.224639    0.000278    1.643751
    8          1             0       -1.121287    2.152286    1.069452
    9          1             0        1.177325    2.146719    0.133650
   10         17             0        2.904607   -0.000071   -0.570226
   11          1             0        1.177106   -2.146769    0.133906
   12          1             0       -1.121347   -2.151891    1.070209
   13         17             0       -2.816311   -0.000115   -0.949999
 ---------------------------------------------------------------------
 Rotational constants (GHZ):      2.9114523      0.6963645      0.6905763
 Leave Link  202 at Thu Aug 24 15:11:30 2006, MaxMem=    6291456 cpu:       0.4
 (Enter /usr/local/Gaussian/g03/l301.exe)
 Standard basis: 6-311+G(d,p) (5D, 7F)
 There are   222 symmetry adapted basis functions of A   symmetry.
 Integral buffers will be    131072 words long.
 Raffenetti 2 integral format.
 Two-electron integral symmetry is turned on.
   222 basis functions,   362 primitive gaussians,   230 cartesian basis functions
    38 alpha electrons       37 beta electrons
       nuclear repulsion energy       450.9014278935 Hartrees.
 IExCor= 402 DFT=T Ex=B+HF Corr=LYP ExCW=0 ScaHFX=  0.200000
 ScaDFX=  0.800000  0.720000  1.000000  0.810000
 IRadAn=      0 IRanWt=     -1 IRanGd=            0 ICorTp=0
 NAtoms=   13 NActive=   13 NUniq=   13 SFac= 1.00D+00 NAtFMM=   60 Big=F
 Leave Link  301 at Thu Aug 24 15:11:32 2006, MaxMem=    6291456 cpu:       0.1
 (Enter /usr/local/Gaussian/g03/l302.exe)
 NPDir=0 NMtPBC=     1 NCelOv=     1 NCel=       1 NClECP=     1 NCelD=      1
         NCelK=      1 NCelE2=     1 NClLst=     1 CellRange=     0.0.
 One-electron integrals computed using PRISM.
 NBasis=   222 RedAO= T  NBF=   222
 NBsUse=   222 1.00D-06 NBFU=   222
 Precomputing XC quadrature grid using
 IXCGrd= 2 IRadAn=           0 IRanWt=          -1 IRanGd=           0.
 NRdTot=     831 NPtTot=      105450 NUsed=      111320 NTot=      111352
 NSgBfM=   226   226   226   226.
 Leave Link  302 at Thu Aug 24 15:11:41 2006, MaxMem=    6291456 cpu:       2.6
 (Enter /usr/local/Gaussian/g03/l303.exe)
 DipDrv:  MaxL=1.
 Leave Link  303 at Thu Aug 24 15:11:43 2006, MaxMem=    6291456 cpu:       0.2
 (Enter /usr/local/Gaussian/g03/l401.exe)
 Harris functional with IExCor=  402 diagonalized for initial guess.
 ExpMin= 4.38D-02 ExpMax= 1.06D+05 ExpMxC= 3.62D+03 IAcc=2 IRadAn=         4 AccDes= 0.00D+00
 HarFok:  IExCor= 402 AccDes= 0.00D+00 IRadAn=         4 IDoV=1
 ScaDFX=  1.000000  1.000000  1.000000  1.000000
 Harris En= -1152.17685445277    
 Initial guess orbital symmetries:
 Alpha Orbitals:
       Occupied  (A) (A) (A) (A) (A) (A) (A) (A) (A) (A) (A) (A)
                 (A) (A) (A) (A) (A) (A) (A) (A) (A) (A) (A) (A)
                 (A) (A) (A) (A) (A) (A) (A) (A) (A) (A) (A) (A)
                 (A) (A)
       Virtual   (A) (A) (A) (A) (A) (A) (A) (A) (A) (A) (A) (A)
                 (A) (A) (A) (A) (A) (A) (A) (A) (A) (A) (A) (A)
                 (A) (A) (A) (A) (A) (A) (A) (A) (A) (A) (A) (A)
                 (A) (A) (A) (A) (A) (A) (A) (A) (A) (A) (A) (A)
                 (A) (A) (A) (A) (A) (A) (A) (A) (A) (A) (A) (A)
                 (A) (A) (A) (A) (A) (A) (A) (A) (A) (A) (A) (A)
                 (A) (A) (A) (A) (A) (A) (A) (A) (A) (A) (A) (A)
                 (A) (A) (A) (A) (A) (A) (A) (A) (A) (A) (A) (A)
                 (A) (A) (A) (A) (A) (A) (A) (A) (A) (A) (A) (A)
                 (A) (A) (A) (A) (A) (A) (A) (A) (A) (A) (A) (A)
                 (A) (A) (A) (A) (A) (A) (A) (A) (A) (A) (A) (A)
                 (A) (A) (A) (A) (A) (A) (A) (A) (A) (A) (A) (A)
                 (A) (A) (A) (A) (A) (A) (A) (A) (A) (A) (A) (A)
                 (A) (A) (A) (A) (A) (A) (A) (A) (A) (A) (A) (A)
                 (A) (A) (A) (A) (A) (A) (A) (A) (A) (A) (A) (A)
                 (A) (A) (A) (A)
 Beta  Orbitals:
       Occupied  (A) (A) (A) (A) (A) (A) (A) (A) (A) (A) (A) (A)
                 (A) (A) (A) (A) (A) (A) (A) (A) (A) (A) (A) (A)
                 (A) (A) (A) (A) (A) (A) (A) (A) (A) (A) (A) (A)
                 (A)
       Virtual   (A) (A) (A) (A) (A) (A) (A) (A) (A) (A) (A) (A)
                 (A) (A) (A) (A) (A) (A) (A) (A) (A) (A) (A) (A)
                 (A) (A) (A) (A) (A) (A) (A) (A) (A) (A) (A) (A)
                 (A) (A) (A) (A) (A) (A) (A) (A) (A) (A) (A) (A)
                 (A) (A) (A) (A) (A) (A) (A) (A) (A) (A) (A) (A)
                 (A) (A) (A) (A) (A) (A) (A) (A) (A) (A) (A) (A)
                 (A) (A) (A) (A) (A) (A) (A) (A) (A) (A) (A) (A)
                 (A) (A) (A) (A) (A) (A) (A) (A) (A) (A) (A) (A)
                 (A) (A) (A) (A) (A) (A) (A) (A) (A) (A) (A) (A)
                 (A) (A) (A) (A) (A) (A) (A) (A) (A) (A) (A) (A)
                 (A) (A) (A) (A) (A) (A) (A) (A) (A) (A) (A) (A)
                 (A) (A) (A) (A) (A) (A) (A) (A) (A) (A) (A) (A)
                 (A) (A) (A) (A) (A) (A) (A) (A) (A) (A) (A) (A)
                 (A) (A) (A) (A) (A) (A) (A) (A) (A) (A) (A) (A)
                 (A) (A) (A) (A) (A) (A) (A) (A) (A) (A) (A) (A)
                 (A) (A) (A) (A) (A)
 The electronic state of the initial guess is 2-A.
 <S**2> of initial guess= 0.7500
 Leave Link  401 at Thu Aug 24 15:13:20 2006, MaxMem=    6291456 cpu:      28.9
 (Enter /usr/local/Gaussian/g03/l502.exe)
 UHF open shell SCF:
 Requested convergence on RMS density matrix=1.00D-08 within 128 cycles.
 Requested convergence on MAX density matrix=1.00D-06.
 Requested convergence on             energy=1.00D-06.
 No special actions if energy rises.
 Using DIIS extrapolation, IDIIS=  1040.
 Integral symmetry usage will be decided dynamically.
       111319 words used for storage of precomputed grid.
 IEnd=    316322 IEndB=    316322 NGot=   6291456 MDV=   6044905
 LenX=   6044905
 Fock matrices will be formed incrementally for  20 cycles.

 Cycle   1  Pass 1  IDiag  1:
 Petite list used in FoFDir.
 MinBra= 0 MaxBra= 2 Meth= 1.
 IRaf=       0 NMat=   1 IRICut=       1 DoRegI=T DoRafI=F ISym2E= 1 JSym2E=1.
 E= -1151.88918752658    
 DIIS: error= 2.61D-02 at cycle   1 NSaved=   1.
 NSaved= 1 IEnMin= 1 EnMin= -1151.88918752658     IErMin= 1 ErrMin= 2.61D-02
 ErrMax= 2.61D-02 EMaxC= 1.00D-01 BMatC= 8.81D-01 BMatP= 8.81D-01
 IDIUse=3 WtCom= 7.39D-01 WtEn= 2.61D-01
 Coeff-Com:  0.100D+01
 Coeff-En:   0.100D+01
 Coeff:      0.100D+01
 Gap=     0.286 Goal=   None    Shift=    0.000
 Gap=     0.061 Goal=   None    Shift=    0.000
 GapD=    0.061 DampG=0.500 DampE=0.500 DampFc=0.2500 IDamp=-1.
 Damping current iteration by 2.50D-01
 RMSDP=1.87D-02 MaxDP=1.53D+00              OVMax= 3.26D-01

 Cycle   2  Pass 1  IDiag  1:
 RMSU=  4.15D-03    CP:  1.04D+00
 E= -1151.97134295194     Delta-E=       -0.082155425359 Rises=F Damp=T
 DIIS: error= 1.20D-02 at cycle   2 NSaved=   2.
 NSaved= 2 IEnMin= 2 EnMin= -1151.97134295194     IErMin= 2 ErrMin= 1.20D-02
 ErrMax= 1.20D-02 EMaxC= 1.00D-01 BMatC= 2.21D-01 BMatP= 8.81D-01
 IDIUse=3 WtCom= 8.80D-01 WtEn= 1.20D-01
 Coeff-Com: -0.772D+00 0.177D+01
 Coeff-En:   0.000D+00 0.100D+01
 Coeff:     -0.679D+00 0.168D+01
 Gap=     0.263 Goal=   None    Shift=    0.000
 Gap=     0.099 Goal=   None    Shift=    0.000
 RMSDP=7.83D-03 MaxDP=3.26D-01 DE=-8.22D-02 OVMax= 1.89D-01

 Cycle   3  Pass 1  IDiag  1:
 RMSU=  7.02D-03    CP:  1.09D+00  5.70D-01
 E= -1152.10751717632     Delta-E=       -0.136174224380 Rises=F Damp=F
 DIIS: error= 7.56D-03 at cycle   3 NSaved=   3.
 NSaved= 3 IEnMin= 3 EnMin= -1152.10751717632     IErMin= 3 ErrMin= 7.56D-03
 ErrMax= 7.56D-03 EMaxC= 1.00D-01 BMatC= 3.20D-02 BMatP= 2.21D-01
 IDIUse=3 WtCom= 9.24D-01 WtEn= 7.56D-02
 Coeff-Com: -0.342D+00 0.714D+00 0.628D+00
 Coeff-En:   0.000D+00 0.000D+00 0.100D+01
 Coeff:     -0.316D+00 0.660D+00 0.656D+00
 Gap=     0.213 Goal=   None    Shift=    0.000
 Gap=     0.096 Goal=   None    Shift=    0.000
 RMSDP=3.43D-03 MaxDP=2.45D-01 DE=-1.36D-01 OVMax= 6.95D-02

 Cycle   4  Pass 1  IDiag  1:
 RMSU=  2.39D-03    CP:  1.07D+00  4.99D-01  7.12D-01
 E= -1152.11160890396     Delta-E=       -0.004091727643 Rises=F Damp=F
 DIIS: error= 6.67D-03 at cycle   4 NSaved=   4.
 NSaved= 4 IEnMin= 4 EnMin= -1152.11160890396     IErMin= 4 ErrMin= 6.67D-03
 ErrMax= 6.67D-03 EMaxC= 1.00D-01 BMatC= 1.77D-02 BMatP= 3.20D-02
 IDIUse=3 WtCom= 9.33D-01 WtEn= 6.67D-02
 Coeff-Com: -0.116D+00 0.223D+00 0.419D+00 0.474D+00
 Coeff-En:   0.000D+00 0.000D+00 0.373D+00 0.627D+00
 Coeff:     -0.108D+00 0.209D+00 0.416D+00 0.484D+00
 Gap=     0.206 Goal=   None    Shift=    0.000
 Gap=     0.092 Goal=   None    Shift=    0.000
 RMSDP=1.58D-03 MaxDP=1.02D-01 DE=-4.09D-03 OVMax= 5.22D-02

 Cycle   5  Pass 1  IDiag  1:
 RMSU=  1.13D-03    CP:  1.07D+00  7.08D-01  7.76D-01  8.86D-01
 E= -1152.11645624323     Delta-E=       -0.004847339265 Rises=F Damp=F
 DIIS: error= 1.46D-03 at cycle   5 NSaved=   5.
 NSaved= 5 IEnMin= 5 EnMin= -1152.11645624323     IErMin= 5 ErrMin= 1.46D-03
 ErrMax= 1.46D-03 EMaxC= 1.00D-01 BMatC= 8.19D-04 BMatP= 1.77D-02
 IDIUse=3 WtCom= 9.85D-01 WtEn= 1.46D-02
 Coeff-Com: -0.157D-01 0.229D-01 0.109D+00 0.227D+00 0.656D+00
 Coeff-En:   0.000D+00 0.000D+00 0.000D+00 0.000D+00 0.100D+01
 Coeff:     -0.155D-01 0.226D-01 0.108D+00 0.224D+00 0.661D+00
 Gap=     0.205 Goal=   None    Shift=    0.000
 Gap=     0.093 Goal=   None    Shift=    0.000
 RMSDP=5.82D-04 MaxDP=4.12D-02 DE=-4.85D-03 OVMax= 6.89D-03

 Cycle   6  Pass 1  IDiag  1:
 RMSU=  2.43D-04    CP:  1.07D+00  6.11D-01  7.94D-01  9.51D-01  7.55D-01
 E= -1152.11666842636     Delta-E=       -0.000212183138 Rises=F Damp=F
 DIIS: error= 4.47D-04 at cycle   6 NSaved=   6.
 NSaved= 6 IEnMin= 6 EnMin= -1152.11666842636     IErMin= 6 ErrMin= 4.47D-04
 ErrMax= 4.47D-04 EMaxC= 1.00D-01 BMatC= 1.14D-04 BMatP= 8.19D-04
 IDIUse=3 WtCom= 9.96D-01 WtEn= 4.47D-03
 Coeff-Com:  0.290D-02-0.105D-01 0.148D-01 0.720D-01 0.336D+00 0.585D+00
 Coeff-En:   0.000D+00 0.000D+00 0.000D+00 0.000D+00 0.000D+00 0.100D+01
 Coeff:      0.288D-02-0.104D-01 0.147D-01 0.716D-01 0.334D+00 0.587D+00
 Gap=     0.206 Goal=   None    Shift=    0.000
 Gap=     0.094 Goal=   None    Shift=    0.000
 RMSDP=1.70D-04 MaxDP=1.25D-02 DE=-2.12D-04 OVMax= 4.81D-03

 Cycle   7  Pass 1  IDiag  1:
 RMSU=  9.71D-05    CP:  1.07D+00  6.33D-01  7.86D-01  9.70D-01  8.09D-01
                    CP:  1.01D+00
 E= -1152.11669912385     Delta-E=       -0.000030697488 Rises=F Damp=F
 DIIS: error= 2.86D-04 at cycle   7 NSaved=   7.
 NSaved= 7 IEnMin= 7 EnMin= -1152.11669912385     IErMin= 7 ErrMin= 2.86D-04
 ErrMax= 2.86D-04 EMaxC= 1.00D-01 BMatC= 3.32D-05 BMatP= 1.14D-04
 IDIUse=3 WtCom= 9.97D-01 WtEn= 2.86D-03
 Coeff-Com:  0.320D-02-0.621D-02-0.145D-01-0.809D-02 0.317D-01 0.348D+00
 Coeff-Com:  0.646D+00
 Coeff-En:   0.000D+00 0.000D+00 0.000D+00 0.000D+00 0.000D+00 0.104D+00
 Coeff-En:   0.896D+00
 Coeff:      0.319D-02-0.619D-02-0.144D-01-0.807D-02 0.316D-01 0.347D+00
 Coeff:      0.647D+00
 Gap=     0.206 Goal=   None    Shift=    0.000
 Gap=     0.094 Goal=   None    Shift=    0.000
 RMSDP=1.59D-04 MaxDP=1.00D-02 DE=-3.07D-05 OVMax= 5.53D-03

 Cycle   8  Pass 1  IDiag  1:
 RMSU=  7.43D-05    CP:  1.07D+00  6.16D-01  7.81D-01  9.76D-01  7.57D-01
                    CP:  1.15D+00  8.48D-01
 E= -1152.11671443243     Delta-E=       -0.000015308581 Rises=F Damp=F
 DIIS: error= 1.48D-04 at cycle   8 NSaved=   8.
 NSaved= 8 IEnMin= 8 EnMin= -1152.11671443243     IErMin= 8 ErrMin= 1.48D-04
 ErrMax= 1.48D-04 EMaxC= 1.00D-01 BMatC= 1.06D-05 BMatP= 3.32D-05
 IDIUse=3 WtCom= 9.99D-01 WtEn= 1.48D-03
 Coeff-Com:  0.192D-02-0.234D-02-0.134D-01-0.255D-01-0.904D-01-0.374D-01
 Coeff-Com:  0.397D+00 0.770D+00
 Coeff-En:   0.000D+00 0.000D+00 0.000D+00 0.000D+00 0.000D+00 0.000D+00
 Coeff-En:   0.000D+00 0.100D+01
 Coeff:      0.191D-02-0.234D-02-0.134D-01-0.255D-01-0.903D-01-0.373D-01
 Coeff:      0.397D+00 0.770D+00
 Gap=     0.206 Goal=   None    Shift=    0.000
 Gap=     0.095 Goal=   None    Shift=    0.000
 RMSDP=8.59D-05 MaxDP=6.42D-03 DE=-1.53D-05 OVMax= 1.49D-03

 Cycle   9  Pass 1  IDiag  1:
 RMSU=  2.30D-05    CP:  1.07D+00  6.25D-01  7.81D-01  9.87D-01  7.89D-01
                    CP:  1.21D+00  1.07D+00  8.49D-01
 E= -1152.11672084740     Delta-E=       -0.000006414972 Rises=F Damp=F
 DIIS: error= 5.69D-05 at cycle   9 NSaved=   9.
 NSaved= 9 IEnMin= 9 EnMin= -1152.11672084740     IErMin= 9 ErrMin= 5.69D-05
 ErrMax= 5.69D-05 EMaxC= 1.00D-01 BMatC= 1.17D-06 BMatP= 1.06D-05
 IDIUse=1 WtCom= 1.00D+00 WtEn= 0.00D+00
 Coeff-Com: -0.285D-04 0.404D-03-0.654D-03-0.476D-02-0.314D-01-0.990D-01
 Coeff-Com:  0.704D-03 0.211D+00 0.924D+00
 Coeff:     -0.285D-04 0.404D-03-0.654D-03-0.476D-02-0.314D-01-0.990D-01
 Coeff:      0.704D-03 0.211D+00 0.924D+00
 Gap=     0.206 Goal=   None    Shift=    0.000
 Gap=     0.095 Goal=   None    Shift=    0.000
 RMSDP=1.72D-05 MaxDP=8.24D-04 DE=-6.41D-06 OVMax= 8.94D-04

 Cycle  10  Pass 1  IDiag  1:
 RMSU=  1.04D-05    CP:  1.07D+00  6.23D-01  7.82D-01  9.88D-01  7.89D-01
                    CP:  1.24D+00  1.15D+00  8.53D-01  1.17D+00
 E= -1152.11672224314     Delta-E=       -0.000001395736 Rises=F Damp=F
 DIIS: error= 3.06D-05 at cycle  10 NSaved=  10.
 NSaved=10 IEnMin=10 EnMin= -1152.11672224314     IErMin=10 ErrMin= 3.06D-05
 ErrMax= 3.06D-05 EMaxC= 1.00D-01 BMatC= 5.57D-07 BMatP= 1.17D-06
 IDIUse=1 WtCom= 1.00D+00 WtEn= 0.00D+00
 Coeff-Com: -0.896D-03 0.147D-02 0.526D-02 0.658D-02 0.185D-01-0.382D-01
 Coeff-Com: -0.171D+00-0.148D+00 0.498D+00 0.828D+00
 Coeff:     -0.896D-03 0.147D-02 0.526D-02 0.658D-02 0.185D-01-0.382D-01
 Coeff:     -0.171D+00-0.148D+00 0.498D+00 0.828D+00
 Gap=     0.206 Goal=   None    Shift=    0.000
 Gap=     0.095 Goal=   None    Shift=    0.000
 RMSDP=1.29D-05 MaxDP=7.44D-04 DE=-1.40D-06 OVMax= 6.44D-04

 Cycle  11  Pass 1  IDiag  1:
 RMSU=  6.16D-06    CP:  1.07D+00  6.24D-01  7.81D-01  9.85D-01  7.86D-01
                    CP:  1.24D+00  1.17D+00  9.25D-01  1.42D+00  1.21D+00
 E= -1152.11672274517     Delta-E=       -0.000000502031 Rises=F Damp=F
 DIIS: error= 1.41D-05 at cycle  11 NSaved=  11.
 NSaved=11 IEnMin=11 EnMin= -1152.11672274517     IErMin=11 ErrMin= 1.41D-05
 ErrMax= 1.41D-05 EMaxC= 1.00D-01 BMatC= 1.49D-07 BMatP= 5.57D-07
 IDIUse=1 WtCom= 1.00D+00 WtEn= 0.00D+00
 Coeff-Com: -0.160D-03 0.156D-03 0.206D-02 0.235D-02 0.147D-01 0.168D-01
 Coeff-Com: -0.756D-01-0.694D-01-0.686D-01 0.242D+00 0.936D+00
 Coeff:     -0.160D-03 0.156D-03 0.206D-02 0.235D-02 0.147D-01 0.168D-01
 Coeff:     -0.756D-01-0.694D-01-0.686D-01 0.242D+00 0.936D+00
 Gap=     0.206 Goal=   None    Shift=    0.000
 Gap=     0.095 Goal=   None    Shift=    0.000
 RMSDP=9.11D-06 MaxDP=5.54D-04 DE=-5.02D-07 OVMax= 2.78D-04

 Cycle  12  Pass 1  IDiag  1:
 RMSU=  4.07D-06    CP:  1.07D+00  6.23D-01  7.82D-01  9.86D-01  7.88D-01
                    CP:  1.24D+00  1.13D+00  9.46D-01  1.50D+00  1.46D+00
                    CP:  1.17D+00
 E= -1152.11672283544     Delta-E=       -0.000000090273 Rises=F Damp=F
 DIIS: error= 3.23D-06 at cycle  12 NSaved=  12.
 NSaved=12 IEnMin=12 EnMin= -1152.11672283544     IErMin=12 ErrMin= 3.23D-06
 ErrMax= 3.23D-06 EMaxC= 1.00D-01 BMatC= 1.07D-08 BMatP= 1.49D-07
 IDIUse=1 WtCom= 1.00D+00 WtEn= 0.00D+00
 Coeff-Com:  0.381D-04-0.764D-04 0.230D-03 0.635D-05 0.293D-02 0.974D-02
 Coeff-Com: -0.103D-01-0.140D-02-0.755D-01-0.493D-02 0.253D+00 0.826D+00
 Coeff:      0.381D-04-0.764D-04 0.230D-03 0.635D-05 0.293D-02 0.974D-02
 Coeff:     -0.103D-01-0.140D-02-0.755D-01-0.493D-02 0.253D+00 0.826D+00
 Gap=     0.206 Goal=   None    Shift=    0.000
 Gap=     0.095 Goal=   None    Shift=    0.000
 RMSDP=3.29D-06 MaxDP=1.53D-04 DE=-9.03D-08 OVMax= 9.16D-05

 Cycle  13  Pass 1  IDiag  1:
 RMSU=  8.92D-07    CP:  1.07D+00  6.23D-01  7.82D-01  9.85D-01  7.87D-01
                    CP:  1.24D+00  1.13D+00  9.51D-01  1.50D+00  1.55D+00
                    CP:  1.32D+00  9.11D-01
 E= -1152.11672284139     Delta-E=       -0.000000005941 Rises=F Damp=F
 DIIS: error= 1.19D-06 at cycle  13 NSaved=  13.
 NSaved=13 IEnMin=13 EnMin= -1152.11672284139     IErMin=13 ErrMin= 1.19D-06
 ErrMax= 1.19D-06 EMaxC= 1.00D-01 BMatC= 1.05D-09 BMatP= 1.07D-08
 IDIUse=1 WtCom= 1.00D+00 WtEn= 0.00D+00
 Coeff-Com:  0.354D-04-0.520D-04-0.104D-03-0.210D-03-0.649D-03 0.265D-03
 Coeff-Com:  0.364D-02 0.682D-02-0.114D-01-0.207D-01-0.410D-01 0.291D+00
 Coeff-Com:  0.772D+00
 Coeff:      0.354D-04-0.520D-04-0.104D-03-0.210D-03-0.649D-03 0.265D-03
 Coeff:      0.364D-02 0.682D-02-0.114D-01-0.207D-01-0.410D-01 0.291D+00
 Coeff:      0.772D+00
 Gap=     0.206 Goal=   None    Shift=    0.000
 Gap=     0.095 Goal=   None    Shift=    0.000
 RMSDP=7.75D-07 MaxDP=5.56D-05 DE=-5.94D-09 OVMax= 3.47D-05

 Cycle  14  Pass 1  IDiag  1:
 RMSU=  3.08D-07    CP:  1.07D+00  6.23D-01  7.82D-01  9.85D-01  7.87D-01
                    CP:  1.24D+00  1.12D+00  9.53D-01  1.50D+00  1.57D+00
                    CP:  1.35D+00  9.80D-01  1.12D+00
 E= -1152.11672284208     Delta-E=       -0.000000000692 Rises=F Damp=F
 DIIS: error= 6.50D-07 at cycle  14 NSaved=  14.
 NSaved=14 IEnMin=14 EnMin= -1152.11672284208     IErMin=14 ErrMin= 6.50D-07
 ErrMax= 6.50D-07 EMaxC= 1.00D-01 BMatC= 3.02D-10 BMatP= 1.05D-09
 IDIUse=1 WtCom= 1.00D+00 WtEn= 0.00D+00
 Coeff-Com:  0.117D-04-0.142D-04-0.716D-04-0.968D-04-0.639D-03-0.992D-03
 Coeff-Com:  0.295D-02 0.359D-02 0.304D-02-0.103D-01-0.512D-01 0.301D-01
 Coeff-Com:  0.379D+00 0.645D+00
 Coeff:      0.117D-04-0.142D-04-0.716D-04-0.968D-04-0.639D-03-0.992D-03
 Coeff:      0.295D-02 0.359D-02 0.304D-02-0.103D-01-0.512D-01 0.301D-01
 Coeff:      0.379D+00 0.645D+00
 Gap=     0.206 Goal=   None    Shift=    0.000
 Gap=     0.095 Goal=   None    Shift=    0.000
 RMSDP=3.28D-07 MaxDP=1.57D-05 DE=-6.92D-10 OVMax= 2.37D-05

 Cycle  15  Pass 1  IDiag  1:
 RMSU=  1.09D-07    CP:  1.07D+00  6.23D-01  7.82D-01  9.85D-01  7.87D-01
                    CP:  1.24D+00  1.12D+00  9.54D-01  1.50D+00  1.57D+00
                    CP:  1.36D+00  1.02D+00  1.19D+00  1.37D+00
 E= -1152.11672284230     Delta-E=       -0.000000000222 Rises=F Damp=F
 DIIS: error= 3.72D-07 at cycle  15 NSaved=  15.
 NSaved=15 IEnMin=15 EnMin= -1152.11672284230     IErMin=15 ErrMin= 3.72D-07
 ErrMax= 3.72D-07 EMaxC= 1.00D-01 BMatC= 5.01D-11 BMatP= 3.02D-10
 IDIUse=1 WtCom= 1.00D+00 WtEn= 0.00D+00
 Coeff-Com: -0.854D-05 0.135D-04 0.208D-04 0.304D-04 0.664D-04-0.168D-03
 Coeff-Com: -0.758D-03-0.892D-03 0.355D-02 0.338D-02 0.657D-02-0.773D-01
 Coeff-Com: -0.139D+00 0.110D+00 0.109D+01
 Coeff:     -0.854D-05 0.135D-04 0.208D-04 0.304D-04 0.664D-04-0.168D-03
 Coeff:     -0.758D-03-0.892D-03 0.355D-02 0.338D-02 0.657D-02-0.773D-01
 Coeff:     -0.139D+00 0.110D+00 0.109D+01
 Gap=     0.206 Goal=   None    Shift=    0.000
 Gap=     0.095 Goal=   None    Shift=    0.000
 RMSDP=2.95D-07 MaxDP=1.28D-05 DE=-2.22D-10 OVMax= 2.80D-05

 Cycle  16  Pass 1  IDiag  1:
 RMSU=  6.99D-08    CP:  1.07D+00  6.23D-01  7.82D-01  9.85D-01  7.87D-01
                    CP:  1.24D+00  1.12D+00  9.55D-01  1.50D+00  1.58D+00
                    CP:  1.36D+00  1.03D+00  1.33D+00  1.86D+00  2.01D+00
 E= -1152.11672284243     Delta-E=       -0.000000000125 Rises=F Damp=F
 DIIS: error= 2.17D-07 at cycle  16 NSaved=  16.
 NSaved=16 IEnMin=16 EnMin= -1152.11672284243     IErMin=16 ErrMin= 2.17D-07
 ErrMax= 2.17D-07 EMaxC= 1.00D-01 BMatC= 1.17D-11 BMatP= 5.01D-11
 IDIUse=1 WtCom= 1.00D+00 WtEn= 0.00D+00
 Coeff-Com: -0.291D-05 0.380D-05 0.175D-04 0.251D-04 0.130D-03 0.185D-03
 Coeff-Com: -0.610D-03-0.860D-03-0.287D-03 0.233D-02 0.118D-01-0.188D-01
 Coeff-Com: -0.105D+00-0.124D+00 0.140D+00 0.109D+01
 Coeff:     -0.291D-05 0.380D-05 0.175D-04 0.251D-04 0.130D-03 0.185D-03
 Coeff:     -0.610D-03-0.860D-03-0.287D-03 0.233D-02 0.118D-01-0.188D-01
 Coeff:     -0.105D+00-0.124D+00 0.140D+00 0.109D+01
 Gap=     0.206 Goal=   None    Shift=    0.000
 Gap=     0.095 Goal=   None    Shift=    0.000
 RMSDP=2.23D-07 MaxDP=1.15D-05 DE=-1.25D-10 OVMax= 1.96D-05

 Cycle  17  Pass 1  IDiag  1:
 RMSU=  4.49D-08    CP:  1.07D+00  6.23D-01  7.82D-01  9.85D-01  7.87D-01
                    CP:  1.24D+00  1.12D+00  9.56D-01  1.51D+00  1.58D+00
                    CP:  1.37D+00  1.03D+00  1.39D+00  2.28D+00  2.59D+00
                    CP:  1.36D+00
 E= -1152.11672284247     Delta-E=       -0.000000000045 Rises=F Damp=F
 DIIS: error= 1.24D-07 at cycle  17 NSaved=  17.
 NSaved=17 IEnMin=17 EnMin= -1152.11672284247     IErMin=17 ErrMin= 1.24D-07
 ErrMax= 1.24D-07 EMaxC= 1.00D-01 BMatC= 4.49D-12 BMatP= 1.17D-11
 IDIUse=1 WtCom= 1.00D+00 WtEn= 0.00D+00
 Coeff-Com:  0.263D-05-0.438D-05-0.326D-05-0.216D-05 0.756D-05 0.943D-04
 Coeff-Com:  0.177D-03 0.995D-05-0.145D-02-0.410D-03 0.143D-02 0.220D-01
 Coeff-Com:  0.179D-01-0.612D-01-0.340D+00 0.253D+00 0.111D+01
 Coeff:      0.263D-05-0.438D-05-0.326D-05-0.216D-05 0.756D-05 0.943D-04
 Coeff:      0.177D-03 0.995D-05-0.145D-02-0.410D-03 0.143D-02 0.220D-01
 Coeff:      0.179D-01-0.612D-01-0.340D+00 0.253D+00 0.111D+01
 Gap=     0.206 Goal=   None    Shift=    0.000
 Gap=     0.095 Goal=   None    Shift=    0.000
 RMSDP=1.41D-07 MaxDP=6.05D-06 DE=-4.50D-11 OVMax= 1.32D-05

 Cycle  18  Pass 1  IDiag  1:
 RMSU=  2.63D-08    CP:  1.07D+00  6.23D-01  7.82D-01  9.85D-01  7.87D-01
                    CP:  1.24D+00  1.12D+00  9.57D-01  1.51D+00  1.59D+00
                    CP:  1.38D+00  1.03D+00  1.44D+00  2.52D+00  3.00D+00
                    CP:  1.91D+00  1.33D+00
 E= -1152.11672284249     Delta-E=       -0.000000000016 Rises=F Damp=F
 DIIS: error= 5.45D-08 at cycle  18 NSaved=  18.
 NSaved=18 IEnMin=18 EnMin= -1152.11672284249     IErMin=18 ErrMin= 5.45D-08
 ErrMax= 5.45D-08 EMaxC= 1.00D-01 BMatC= 1.58D-12 BMatP= 4.49D-12
 IDIUse=1 WtCom= 1.00D+00 WtEn= 0.00D+00
 Coeff-Com:  0.185D-05-0.294D-05-0.518D-05-0.569D-05-0.184D-04 0.231D-04
 Coeff-Com:  0.224D-03 0.153D-03-0.813D-03-0.668D-03-0.918D-03 0.153D-01
 Coeff-Com:  0.269D-01-0.117D-01-0.208D+00-0.458D-01 0.595D+00 0.631D+00
 Coeff:      0.185D-05-0.294D-05-0.518D-05-0.569D-05-0.184D-04 0.231D-04
 Coeff:      0.224D-03 0.153D-03-0.813D-03-0.668D-03-0.918D-03 0.153D-01
 Coeff:      0.269D-01-0.117D-01-0.208D+00-0.458D-01 0.595D+00 0.631D+00
 Gap=     0.206 Goal=   None    Shift=    0.000
 Gap=     0.095 Goal=   None    Shift=    0.000
 RMSDP=4.23D-08 MaxDP=1.91D-06 DE=-1.59D-11 OVMax= 3.48D-06

 Cycle  19  Pass 1  IDiag  1:
 RMSU=  2.23D-08    CP:  1.07D+00  6.23D-01  7.82D-01  9.85D-01  7.87D-01
                    CP:  1.24D+00  1.12D+00  9.57D-01  1.51D+00  1.59D+00
                    CP:  1.38D+00  1.03D+00  1.45D+00  2.59D+00  3.00D+00
                    CP:  2.02D+00  1.53D+00  1.00D+00
 E= -1152.11672284249     Delta-E=       -0.000000000003 Rises=F Damp=F
 DIIS: error= 3.13D-08 at cycle  19 NSaved=  19.
 NSaved=19 IEnMin=19 EnMin= -1152.11672284249     IErMin=19 ErrMin= 3.13D-08
 ErrMax= 3.13D-08 EMaxC= 1.00D-01 BMatC= 5.01D-13 BMatP= 1.58D-12
 IDIUse=1 WtCom= 1.00D+00 WtEn= 0.00D+00
 Coeff-Com: -0.166D-06 0.359D-06-0.212D-05-0.307D-05-0.163D-04-0.270D-04
 Coeff-Com:  0.777D-04 0.101D-03 0.134D-03-0.298D-03-0.108D-02-0.111D-02
 Coeff-Com:  0.757D-02 0.224D-01 0.354D-01-0.149D+00-0.180D+00 0.414D+00
 Coeff-Com:  0.851D+00
 Coeff:     -0.166D-06 0.359D-06-0.212D-05-0.307D-05-0.163D-04-0.270D-04
 Coeff:      0.777D-04 0.101D-03 0.134D-03-0.298D-03-0.108D-02-0.111D-02
 Coeff:      0.757D-02 0.224D-01 0.354D-01-0.149D+00-0.180D+00 0.414D+00
 Coeff:      0.851D+00
 Gap=     0.206 Goal=   None    Shift=    0.000
 Gap=     0.095 Goal=   None    Shift=    0.000
 RMSDP=3.10D-08 MaxDP=1.62D-06 DE=-2.50D-12 OVMax= 2.61D-06

 Cycle  20  Pass 1  IDiag  1:
 Restarting incremental Fock formation.
 E= -1152.11672284249     Delta-E=        0.000000000000 Rises=F Damp=F
 DIIS: error= 5.94D-09 at cycle  20 NSaved=  20.
 NSaved=20 IEnMin=19 EnMin= -1152.11672284249     IErMin=20 ErrMin= 5.94D-09
 ErrMax= 5.94D-09 EMaxC= 1.00D-01 BMatC= 1.87D-14 BMatP= 5.01D-13
 IDIUse=1 WtCom= 1.00D+00 WtEn= 0.00D+00
 Coeff-Com: -0.125D-06 0.223D-06 0.447D-08-0.223D-06-0.225D-05-0.650D-05
 Coeff-Com: -0.718D-06 0.331D-05 0.942D-04 0.166D-05-0.126D-03-0.161D-02
 Coeff-Com: -0.168D-02 0.526D-02 0.264D-01-0.249D-01-0.925D-01 0.159D-01
 Coeff-Com:  0.158D+00 0.916D+00
 Coeff:     -0.125D-06 0.223D-06 0.447D-08-0.223D-06-0.225D-05-0.650D-05
 Coeff:     -0.718D-06 0.331D-05 0.942D-04 0.166D-05-0.126D-03-0.161D-02
 Coeff:     -0.168D-02 0.526D-02 0.264D-01-0.249D-01-0.925D-01 0.159D-01
 Coeff:      0.158D+00 0.916D+00
 Gap=     0.206 Goal=   None    Shift=    0.000
 Gap=     0.095 Goal=   None    Shift=    0.000
 RMSDP=1.39D-08 MaxDP=7.28D-07 DE= 0.00D+00 OVMax= 5.40D-07

 Cycle  21  Pass 1  IDiag  1:
 RMSU=  1.28D-08    CP:  1.00D+00
 E= -1152.11672284249     Delta-E=       -0.000000000005 Rises=F Damp=F
 DIIS: error= 2.08D-09 at cycle  21 NSaved=  20.
 NSaved=20 IEnMin=20 EnMin= -1152.11672284249     IErMin=20 ErrMin= 2.08D-09
 ErrMax= 2.08D-09 EMaxC= 1.00D-01 BMatC= 1.96D-15 BMatP= 1.87D-14
 IDIUse=1 WtCom= 1.00D+00 WtEn= 0.00D+00
 Coeff-Com:  0.214D-09 0.391D-06 0.502D-06 0.194D-05 0.156D-05-0.121D-04
 Coeff-Com: -0.169D-04 0.642D-05 0.546D-04 0.129D-03-0.207D-03-0.163D-02
 Coeff-Com: -0.194D-02 0.599D-03 0.169D-01 0.928D-02-0.560D-01-0.940D-01
 Coeff-Com:  0.150D+00 0.977D+00
 Coeff:      0.214D-09 0.391D-06 0.502D-06 0.194D-05 0.156D-05-0.121D-04
 Coeff:     -0.169D-04 0.642D-05 0.546D-04 0.129D-03-0.207D-03-0.163D-02
 Coeff:     -0.194D-02 0.599D-03 0.169D-01 0.928D-02-0.560D-01-0.940D-01
 Coeff:      0.150D+00 0.977D+00
 Gap=     0.206 Goal=   None    Shift=    0.000
 Gap=     0.095 Goal=   None    Shift=    0.000
 RMSDP=2.19D-09 MaxDP=1.16D-07 DE=-5.23D-12 OVMax= 6.42D-08

 SCF Done:  E(UB+HF-LYP) =  -1152.11672284     A.U. after   21 cycles
             Convg  =    0.2189D-08             -V/T =  2.0028
             S**2   =   0.7589
 KE= 1.148931366329D+03 PE=-3.626816751955D+03 EE= 8.748672348894D+02
 Annihilation of the first spin contaminant:
 S**2 before annihilation     0.7589,   after     0.7501
 Leave Link  502 at Thu Aug 24 18:44:57 2006, MaxMem=    6291456 cpu:    3996.8
 (Enter /usr/local/Gaussian/g03/l601.exe)
 Copying SCF densities to generalized density rwf, ISCF=1 IROHF=0.

 **********************************************************************

            Population analysis using the SCF density.

 **********************************************************************

 Orbital symmetries:
 Alpha Orbitals:
       Occupied  (A) (A) (A) (A) (A) (A) (A) (A) (A) (A) (A) (A)
                 (A) (A) (A) (A) (A) (A) (A) (A) (A) (A) (A) (A)
                 (A) (A) (A) (A) (A) (A) (A) (A) (A) (A) (A) (A)
                 (A) (A)
       Virtual   (A) (A) (A) (A) (A) (A) (A) (A) (A) (A) (A) (A)
                 (A) (A) (A) (A) (A) (A) (A) (A) (A) (A) (A) (A)
                 (A) (A) (A) (A) (A) (A) (A) (A) (A) (A) (A) (A)
                 (A) (A) (A) (A) (A) (A) (A) (A) (A) (A) (A) (A)
                 (A) (A) (A) (A) (A) (A) (A) (A) (A) (A) (A) (A)
                 (A) (A) (A) (A) (A) (A) (A) (A) (A) (A) (A) (A)
                 (A) (A) (A) (A) (A) (A) (A) (A) (A) (A) (A) (A)
                 (A) (A) (A) (A) (A) (A) (A) (A) (A) (A) (A) (A)
                 (A) (A) (A) (A) (A) (A) (A) (A) (A) (A) (A) (A)
                 (A) (A) (A) (A) (A) (A) (A) (A) (A) (A) (A) (A)
                 (A) (A) (A) (A) (A) (A) (A) (A) (A) (A) (A) (A)
                 (A) (A) (A) (A) (A) (A) (A) (A) (A) (A) (A) (A)
                 (A) (A) (A) (A) (A) (A) (A) (A) (A) (A) (A) (A)
                 (A) (A) (A) (A) (A) (A) (A) (A) (A) (A) (A) (A)
                 (A) (A) (A) (A) (A) (A) (A) (A) (A) (A) (A) (A)
                 (A) (A) (A) (A)
 Beta  Orbitals:
       Occupied  (A) (A) (A) (A) (A) (A) (A) (A) (A) (A) (A) (A)
                 (A) (A) (A) (A) (A) (A) (A) (A) (A) (A) (A) (A)
                 (A) (A) (A) (A) (A) (A) (A) (A) (A) (A) (A) (A)
                 (A)
       Virtual   (A) (A) (A) (A) (A) (A) (A) (A) (A) (A) (A) (A)
                 (A) (A) (A) (A) (A) (A) (A) (A) (A) (A) (A) (A)
                 (A) (A) (A) (A) (A) (A) (A) (A) (A) (A) (A) (A)
                 (A) (A) (A) (A) (A) (A) (A) (A) (A) (A) (A) (A)
                 (A) (A) (A) (A) (A) (A) (A) (A) (A) (A) (A) (A)
                 (A) (A) (A) (A) (A) (A) (A) (A) (A) (A) (A) (A)
                 (A) (A) (A) (A) (A) (A) (A) (A) (A) (A) (A) (A)
                 (A) (A) (A) (A) (A) (A) (A) (A) (A) (A) (A) (A)
                 (A) (A) (A) (A) (A) (A) (A) (A) (A) (A) (A) (A)
                 (A) (A) (A) (A) (A) (A) (A) (A) (A) (A) (A) (A)
                 (A) (A) (A) (A) (A) (A) (A) (A) (A) (A) (A) (A)
                 (A) (A) (A) (A) (A) (A) (A) (A) (A) (A) (A) (A)
                 (A) (A) (A) (A) (A) (A) (A) (A) (A) (A) (A) (A)
                 (A) (A) (A) (A) (A) (A) (A) (A) (A) (A) (A) (A)
                 (A) (A) (A) (A) (A) (A) (A) (A) (A) (A) (A) (A)
                 (A) (A) (A) (A) (A)
 The electronic state is 2-A.
 Alpha  occ. eigenvalues -- -101.58157-101.52157 -10.27697 -10.22962 -10.22103
 Alpha  occ. eigenvalues --  -10.22101 -10.21553 -10.21552  -9.49617  -9.43356
 Alpha  occ. eigenvalues --   -7.26058  -7.25162  -7.25038  -7.20350  -7.18772
 Alpha  occ. eigenvalues --   -7.18764  -0.92900  -0.87403  -0.79611  -0.78382
 Alpha  occ. eigenvalues --   -0.76206  -0.65397  -0.63780  -0.55986  -0.50652
 Alpha  occ. eigenvalues --   -0.50023  -0.46880  -0.46532  -0.43655  -0.40039
 Alpha  occ. eigenvalues --   -0.39398  -0.38228  -0.34219  -0.32627  -0.31015
 Alpha  occ. eigenvalues --   -0.29363  -0.28634  -0.26326
 Alpha virt. eigenvalues --   -0.05704  -0.05136  -0.01386   0.00191   0.01318
 Alpha virt. eigenvalues --    0.01774   0.03832   0.04230   0.04269   0.05140
 Alpha virt. eigenvalues --    0.06310   0.07658   0.07730   0.07976   0.09213
 Alpha virt. eigenvalues --    0.10529   0.10983   0.11389   0.12098   0.12170
 Alpha virt. eigenvalues --    0.12446   0.12619   0.14608   0.14860   0.15510
 Alpha virt. eigenvalues --    0.16027   0.16166   0.17378   0.17730   0.18769
 Alpha virt. eigenvalues --    0.19002   0.19515   0.20391   0.20600   0.22437
 Alpha virt. eigenvalues --    0.22544   0.23606   0.23912   0.25601   0.26225
 Alpha virt. eigenvalues --    0.27731   0.28084   0.28347   0.29175   0.31017
 Alpha virt. eigenvalues --    0.39786   0.42939   0.44425   0.44644   0.45729
 Alpha virt. eigenvalues --    0.46036   0.48264   0.48731   0.49395   0.50925
 Alpha virt. eigenvalues --    0.51979   0.53118   0.53889   0.55596   0.56517
 Alpha virt. eigenvalues --    0.56911   0.59897   0.59972   0.62747   0.63062
 Alpha virt. eigenvalues --    0.66343   0.66428   0.67884   0.69065   0.70688
 Alpha virt. eigenvalues --    0.71668   0.76836   0.78545   0.79969   0.80243
 Alpha virt. eigenvalues --    0.81137   0.81366   0.81633   0.82797   0.83722
 Alpha virt. eigenvalues --    0.84808   0.88416   0.89086   0.91211   0.91474
 Alpha virt. eigenvalues --    0.92264   0.94299   0.97025   0.97220   0.98407
 Alpha virt. eigenvalues --    1.01326   1.04486   1.04728   1.10207   1.10388
 Alpha virt. eigenvalues --    1.14981   1.17095   1.19260   1.27992   1.31749
 Alpha virt. eigenvalues --    1.35227   1.44844   1.46578   1.47983   1.53632
 Alpha virt. eigenvalues --    1.53909   1.58194   1.59082   1.62142   1.62173
 Alpha virt. eigenvalues --    1.66128   1.69354   1.73279   1.74088   1.79016
 Alpha virt. eigenvalues --    1.84465   1.86620   1.88935   1.89872   1.92703
 Alpha virt. eigenvalues --    1.92930   1.94405   1.98471   1.99518   2.02419
 Alpha virt. eigenvalues --    2.05335   2.20532   2.23686   2.27403   2.29021
 Alpha virt. eigenvalues --    2.30054   2.30803   2.34606   2.36544   2.39316
 Alpha virt. eigenvalues --    2.39754   2.42792   2.48395   2.51872   2.58723
 Alpha virt. eigenvalues --    2.61268   2.61952   2.68534   2.69176   2.73213
 Alpha virt. eigenvalues --    2.73647   2.75802   2.75887   2.78303   2.80944
 Alpha virt. eigenvalues --    2.83019   2.86366   2.89798   2.90397   3.04068
 Alpha virt. eigenvalues --    3.08713   3.17476   3.28415   3.36097   3.46000
 Alpha virt. eigenvalues --    3.48394   3.58844   3.74301   3.94906   4.00713
 Alpha virt. eigenvalues --    4.09531   4.10724   4.78954   9.70082   9.75744
 Alpha virt. eigenvalues --   23.50437  23.88177  23.89769  23.99315  24.08099
 Alpha virt. eigenvalues --   24.14933  25.80400  25.88183  25.88528  26.08069
 Alpha virt. eigenvalues --   26.09740  26.56625 215.67941 215.74757
  Beta  occ. eigenvalues -- -101.58131-101.51674 -10.27452 -10.22804 -10.21933
  Beta  occ. eigenvalues --  -10.21931 -10.21631 -10.21631  -9.49592  -9.42891
  Beta  occ. eigenvalues --   -7.26052  -7.25071  -7.25023  -7.18821  -7.18483
  Beta  occ. eigenvalues --   -7.18477  -0.92591  -0.87053  -0.79460  -0.77034
  Beta  occ. eigenvalues --   -0.73722  -0.65146  -0.63473  -0.55866  -0.50487
  Beta  occ. eigenvalues --   -0.49858  -0.46842  -0.46341  -0.42649  -0.39913
  Beta  occ. eigenvalues --   -0.39265  -0.36502  -0.34161  -0.30382  -0.29072
  Beta  occ. eigenvalues --   -0.28227  -0.27789
  Beta virt. eigenvalues --   -0.18299  -0.04495  -0.04463  -0.01272   0.00298
  Beta virt. eigenvalues --    0.01331   0.01815   0.03906   0.04248   0.04365
  Beta virt. eigenvalues --    0.05241   0.06546   0.07710   0.07738   0.07979
  Beta virt. eigenvalues --    0.09455   0.10720   0.11141   0.11402   0.12156
  Beta virt. eigenvalues --    0.12334   0.12491   0.12626   0.14735   0.14998
  Beta virt. eigenvalues --    0.15590   0.16061   0.16211   0.17415   0.17885
  Beta virt. eigenvalues --    0.18806   0.19101   0.19596   0.20568   0.20610
  Beta virt. eigenvalues --    0.22515   0.22631   0.23738   0.23938   0.25634
  Beta virt. eigenvalues --    0.26368   0.27896   0.28239   0.28377   0.29331
  Beta virt. eigenvalues --    0.31180   0.39864   0.42966   0.44610   0.44800
  Beta virt. eigenvalues --    0.46073   0.47216   0.48535   0.49108   0.49838
  Beta virt. eigenvalues --    0.51020   0.52463   0.53340   0.54113   0.55657
  Beta virt. eigenvalues --    0.56789   0.57278   0.60526   0.60603   0.62944
  Beta virt. eigenvalues --    0.63948   0.66477   0.66584   0.68067   0.69134
  Beta virt. eigenvalues --    0.70849   0.72341   0.76966   0.79386   0.80251
  Beta virt. eigenvalues --    0.80562   0.81157   0.81667   0.81844   0.82870
  Beta virt. eigenvalues --    0.83963   0.84935   0.89831   0.90591   0.91883
  Beta virt. eigenvalues --    0.92226   0.92713   0.95934   0.97521   0.98395
  Beta virt. eigenvalues --    0.99752   1.02129   1.04741   1.05692   1.10766
  Beta virt. eigenvalues --    1.10925   1.15203   1.17144   1.20589   1.28406
  Beta virt. eigenvalues --    1.32307   1.35531   1.44912   1.46645   1.48273
  Beta virt. eigenvalues --    1.53738   1.54204   1.58508   1.59393   1.62214
  Beta virt. eigenvalues --    1.62512   1.66490   1.69272   1.73585   1.74173
  Beta virt. eigenvalues --    1.79137   1.84724   1.87035   1.89301   1.90120
  Beta virt. eigenvalues --    1.93076   1.93123   1.94662   1.98764   1.99578
  Beta virt. eigenvalues --    2.02666   2.05544   2.20935   2.23776   2.27769
  Beta virt. eigenvalues --    2.29499   2.30679   2.31332   2.35848   2.36556
  Beta virt. eigenvalues --    2.39412   2.41174   2.42933   2.48536   2.51991
  Beta virt. eigenvalues --    2.58798   2.61526   2.62363   2.68544   2.69222
  Beta virt. eigenvalues --    2.73238   2.73675   2.76148   2.76207   2.78501
  Beta virt. eigenvalues --    2.80980   2.83762   2.86753   2.90217   2.90438
  Beta virt. eigenvalues --    3.04643   3.08855   3.17678   3.28609   3.36221
  Beta virt. eigenvalues --    3.46075   3.48594   3.58975   3.74359   3.95015
  Beta virt. eigenvalues --    4.00994   4.09660   4.11003   4.79288   9.70974
  Beta virt. eigenvalues --    9.75804  23.50571  23.88417  23.89849  23.99449
  Beta virt. eigenvalues --   24.08139  24.15003  25.80513  25.88601  25.88932
  Beta virt. eigenvalues --   26.09761  26.10063  26.56640 215.68381 215.74784
          Condensed to atoms (all electrons):
              1          2          3          4          5          6
     1  C    9.054682  -1.327179   0.858571  -2.104776   0.859623  -1.327016
     2  C   -1.327179   7.408759   0.489443  -0.150906  -1.764488   0.991021
     3  C    0.858571   0.489443  11.756742  -1.243480  -3.876436  -1.764897
     4  C   -2.104776  -0.150906  -1.243480  10.785480  -1.244911  -0.151820
     5  C    0.859623  -1.764488  -3.876436  -1.244911  11.756471   0.489439
     6  C   -1.327016   0.991021  -1.764897  -0.151820   0.489439   7.409870
     7  H    0.394732  -0.030328   0.008989   0.007951   0.009002  -0.030336
     8  H   -0.026868   0.418804  -0.052454   0.020283  -0.015304   0.009504
     9  H   -0.009534  -0.016236   0.289319   0.050268   0.028030   0.007750
    10  Cl  -0.150312   0.210992   0.010285  -0.721466   0.010213   0.211037
    11  H   -0.009559   0.007747   0.028026   0.050289   0.289323  -0.016222
    12  H   -0.026853   0.009489  -0.015286   0.020285  -0.052444   0.418769
    13  Cl  -0.328785   0.102259   0.054519  -0.025031   0.054456   0.102314
              7          8          9         10         11         12
     1  C    0.394732  -0.026868  -0.009534  -0.150312  -0.009559  -0.026853
     2  C   -0.030328   0.418804  -0.016236   0.210992   0.007747   0.009489
     3  C    0.008989  -0.052454   0.289319   0.010285   0.028026  -0.015286
     4  C    0.007951   0.020283   0.050268  -0.721466   0.050289   0.020285
     5  C    0.009002  -0.015304   0.028030   0.010213   0.289323  -0.052444
     6  C   -0.030336   0.009504   0.007750   0.211037  -0.016222   0.418769
     7  H    0.478649  -0.006794  -0.000171   0.000652  -0.000171  -0.006797
     8  H   -0.006794   0.506603  -0.007980   0.002317   0.000040  -0.000166
     9  H   -0.000171  -0.007980   0.501527  -0.002548  -0.000261   0.000040
    10  Cl   0.000652   0.002317  -0.002548  17.075329  -0.002545   0.002317
    11  H   -0.000171   0.000040  -0.000261  -0.002545   0.501523  -0.007981
    12  H   -0.006797  -0.000166   0.000040   0.002317  -0.007981   0.506619
    13  Cl  -0.022177   0.000004  -0.000807  -0.000460  -0.000807   0.000003
             13
     1  C   -0.328785
     2  C    0.102259
     3  C    0.054519
     4  C   -0.025031
     5  C    0.054456
     6  C    0.102314
     7  H   -0.022177
     8  H    0.000004
     9  H   -0.000807
    10  Cl  -0.000460
    11  H   -0.000807
    12  H    0.000003
    13  Cl  17.306728
 Mulliken atomic charges:
              1
     1  C    0.143276
     2  C   -0.349377
     3  C   -0.543338
     4  C    0.707834
     5  C   -0.542975
     6  C   -0.349414
     7  H    0.196800
     8  H    0.152012
     9  H    0.160605
    10  Cl   0.354189
    11  H    0.160600
    12  H    0.152004
    13  Cl  -0.242215
 Sum of Mulliken charges=   0.00000
 Atomic charges with hydrogens summed into heavy atoms:
              1
     1  C    0.340076
     2  C   -0.197365
     3  C   -0.382733
     4  C    0.707834
     5  C   -0.382375
     6  C   -0.197410
     7  H    0.000000
     8  H    0.000000
     9  H    0.000000
    10  Cl   0.354189
    11  H    0.000000
    12  H    0.000000
    13  Cl  -0.242215
 Sum of Mulliken charges=   0.00000
          Atomic-Atomic Spin Densities.
              1          2          3          4          5          6
     1  C   -0.081722  -0.118285   0.187287  -0.081760   0.187236  -0.118299
     2  C   -0.118285   0.369999  -0.205642   0.102169  -0.127110   0.194625
     3  C    0.187287  -0.205642   0.053275  -0.074936   0.070765  -0.127167
     4  C   -0.081760   0.102169  -0.074936   0.237094  -0.074825   0.102146
     5  C    0.187236  -0.127110   0.070765  -0.074825   0.053083  -0.205546
     6  C   -0.118299   0.194625  -0.127167   0.102146  -0.205546   0.369981
     7  H    0.026755  -0.003638  -0.003179  -0.000950  -0.003177  -0.003640
     8  H    0.008746  -0.006074   0.003119  -0.002206  -0.000241  -0.001863
     9  H    0.000797   0.000059  -0.001237   0.000551   0.000679  -0.000280
    10  Cl   0.019126  -0.008791   0.005192  -0.024712   0.005194  -0.008790
    11  H    0.000799  -0.000281   0.000680   0.000550  -0.001235   0.000057
    12  H    0.008745  -0.001862  -0.000242  -0.002205   0.003116  -0.006070
    13  Cl   0.011812  -0.072526   0.026330  -0.014425   0.026306  -0.072507
              7          8          9         10         11         12
     1  C    0.026755   0.008746   0.000797   0.019126   0.000799   0.008745
     2  C   -0.003638  -0.006074   0.000059  -0.008791  -0.000281  -0.001862
     3  C   -0.003179   0.003119  -0.001237   0.005192   0.000680  -0.000242
     4  C   -0.000950  -0.002206   0.000551  -0.024712   0.000550  -0.002205
     5  C   -0.003177  -0.000241   0.000679   0.005194  -0.001235   0.003116
     6  C   -0.003640  -0.001863  -0.000280  -0.008790   0.000057  -0.006070
     7  H    0.004655  -0.000428   0.000001  -0.000173   0.000001  -0.000427
     8  H   -0.000428  -0.008249   0.000076  -0.000096  -0.000002   0.000002
     9  H    0.000001   0.000076   0.002423  -0.000329   0.000000  -0.000002
    10  Cl  -0.000173  -0.000096  -0.000329   0.046113  -0.000329  -0.000096
    11  H    0.000001  -0.000002   0.000000  -0.000329   0.002422   0.000076
    12  H   -0.000427   0.000002  -0.000002  -0.000096   0.000076  -0.008249
    13  Cl  -0.011897   0.000731  -0.000114  -0.000171  -0.000114   0.000731
             13
     1  C    0.011812
     2  C   -0.072526
     3  C    0.026330
     4  C   -0.014425
     5  C    0.026306
     6  C   -0.072507
     7  H   -0.011897
     8  H    0.000731
     9  H   -0.000114
    10  Cl  -0.000171
    11  H   -0.000114
    12  H    0.000731
    13  Cl   0.746019
 Mulliken atomic spin densities:
              1
     1  C    0.051237
     2  C    0.122644
     3  C   -0.065756
     4  C    0.166489
     5  C   -0.065756
     6  C    0.122647
     7  H    0.003904
     8  H   -0.006485
     9  H    0.002623
    10  Cl   0.032139
    11  H    0.002623
    12  H   -0.006485
    13  Cl   0.640177
 Sum of Mulliken spin densities=   1.00000
 Electronic spatial extent (au):  <R**2>=  1625.0609
 Charge=     0.0000 electrons
 Dipole moment (field-independent basis, Debye):
    X=     2.0566    Y=     0.0004    Z=     2.6853  Tot=     3.3824
 Quadrupole moment (field-independent basis, Debye-Ang):
   XX=   -70.2081   YY=   -54.1858   ZZ=   -62.6591
   XY=    -0.0009   XZ=    -6.4003   YZ=    -0.0008
 Traceless Quadrupole moment (field-independent basis, Debye-Ang):
   XX=    -7.8571   YY=     8.1652   ZZ=    -0.3081
   XY=    -0.0009   XZ=    -6.4003   YZ=    -0.0008
 Octapole moment (field-independent basis, Debye-Ang**2):
  XXX=    29.4410  YYY=     0.0021  ZZZ=    -6.8594  XYY=     2.7410
  XXY=     0.0027  XXZ=     8.9531  XZZ=    -2.1773  YZZ=    -0.0024
  YYZ=     3.1717  XYZ=    -0.0002
 Hexadecapole moment (field-independent basis, Debye-Ang**3):
 XXXX= -1612.5134 YYYY=  -286.9198 ZZZZ=  -290.7313 XXXY=    -0.0022
 XXXZ=   -39.5531 YYYX=    -0.0049 YYYZ=    -0.0041 ZZZX=    -7.6453
 ZZZY=    -0.0025 XXYY=  -309.8236 XXZZ=  -294.5922 YYZZ=  -103.9657
 XXYZ=     0.0010 YYXZ=    -9.3968 ZZXY=     0.0020
 N-N= 4.509014278935D+02 E-N=-3.626816752020D+03  KE= 1.148931366329D+03
                          Isotropic Fermi Contact Couplings
        Atom                 a.u.       MegaHertz       Gauss      10(-4) cm-1
     1  C(13)              0.02539      28.54777      10.18656       9.52251
     2  C(13)              0.00582       6.54434       2.33518       2.18296
     3  C(13)             -0.00894     -10.04927      -3.58583      -3.35208
     4  C(13)              0.01259      14.15906       5.05230       4.72295
     5  C(13)             -0.00894     -10.04874      -3.58564      -3.35190
     6  C(13)              0.00582       6.54216       2.33440       2.18223
     7  H(1)               0.00275      12.27431       4.37978       4.09427
     8  H(1)              -0.00180      -8.06567      -2.87803      -2.69042
     9  H(1)               0.00062       2.76851       0.98787       0.92348
    10  Cl(35)             0.00435       1.90601       0.68011       0.63578
    11  H(1)               0.00062       2.76825       0.98778       0.92339
    12  H(1)              -0.00180      -8.06537      -2.87793      -2.69032
    13  Cl(35)             0.05688      24.94015       8.89927       8.31914
 --------------------------------------------------------
       Center         ----  Spin Dipole Couplings  ----
                      3XX-RR        3YY-RR        3ZZ-RR
 --------------------------------------------------------
     1   Atom        0.005300     -0.061839      0.056540
     2   Atom       -0.039723     -0.068059      0.107782
     3   Atom        0.018332      0.024840     -0.043172
     4   Atom       -0.051376     -0.102658      0.154034
     5   Atom        0.018325      0.024835     -0.043160
     6   Atom       -0.039699     -0.068062      0.107761
     7   Atom       -0.000755     -0.012018      0.012773
     8   Atom       -0.006692      0.009541     -0.002849
     9   Atom        0.001613      0.001033     -0.002646
    10   Atom       -0.085744     -0.114561      0.200305
    11   Atom        0.001613      0.001033     -0.002645
    12   Atom       -0.006691      0.009537     -0.002845
    13   Atom        0.621221     -2.038530      1.417309
 --------------------------------------------------------
                        XY            XZ            YZ
 --------------------------------------------------------
     1   Atom        0.000010      0.095387      0.000013
     2   Atom        0.005157      0.081893      0.006262
     3   Atom       -0.000133     -0.029330      0.000797
     4   Atom        0.000002      0.101662      0.000007
     5   Atom        0.000130     -0.029330     -0.000800
     6   Atom       -0.005127      0.081915     -0.006195
     7   Atom       -0.000002     -0.009485      0.000005
     8   Atom       -0.004662      0.003430      0.005511
     9   Atom       -0.000664     -0.000881      0.000940
    10   Atom        0.000004      0.149929      0.000008
    11   Atom        0.000663     -0.000881     -0.000941
    12   Atom        0.004663      0.003428     -0.005516
    13   Atom        0.000344      3.043747      0.000390
 --------------------------------------------------------


 ---------------------------------------------------------------------------------
              Anisotropic Spin Dipole Couplings in Principal Axis System
 ---------------------------------------------------------------------------------

       Atom             a.u.   MegaHertz   Gauss  10(-4) cm-1        Axes

              Baa    -0.0678    -9.105    -3.249    -3.037  0.7935  0.0000 -0.6085
     1 C(13)  Bbb    -0.0618    -8.298    -2.961    -2.768 -0.0001  1.0000  0.0000
              Bcc     0.1297    17.403     6.210     5.805  0.6085  0.0001  0.7935
 
              Baa    -0.0767   -10.297    -3.674    -3.435  0.8882 -0.2495 -0.3857
     2 C(13)  Bbb    -0.0678    -9.097    -3.246    -3.034  0.2135  0.9677 -0.1341
              Bcc     0.1445    19.394     6.920     6.469  0.4067  0.0368  0.9128
 
              Baa    -0.0549    -7.370    -2.630    -2.458  0.3717 -0.0087  0.9283
     3 C(13)  Bbb     0.0248     3.330     1.188     1.111  0.0769  0.9968 -0.0215
              Bcc     0.0301     4.040     1.442     1.348  0.9252 -0.0794 -0.3711
 
              Baa    -0.1027   -13.776    -4.916    -4.595  0.0001  1.0000 -0.0001
     4 C(13)  Bbb    -0.0932   -12.504    -4.462    -4.171  0.9249 -0.0001 -0.3803
              Bcc     0.1958    26.280     9.377     8.766  0.3803  0.0000  0.9249
 
              Baa    -0.0549    -7.369    -2.629    -2.458  0.3717  0.0087  0.9283
     5 C(13)  Bbb     0.0248     3.329     1.188     1.110 -0.0768  0.9968  0.0214
              Bcc     0.0301     4.040     1.442     1.348  0.9252  0.0792 -0.3712
 
              Baa    -0.0767   -10.297    -3.674    -3.435  0.8882  0.2493 -0.3860
     6 C(13)  Bbb    -0.0678    -9.096    -3.246    -3.034 -0.2135  0.9677  0.1338
              Bcc     0.1445    19.394     6.920     6.469  0.4069 -0.0364  0.9128
 
              Baa    -0.0120    -6.412    -2.288    -2.139  0.0000  1.0000 -0.0002
     7 H(1)   Bbb    -0.0056    -3.010    -1.074    -1.004  0.8890  0.0001  0.4579
              Bcc     0.0177     9.422     3.362     3.143 -0.4579  0.0002  0.8890
 
              Baa    -0.0110    -5.880    -2.098    -1.961  0.7761  0.3214 -0.5425
     8 H(1)   Bbb    -0.0012    -0.629    -0.224    -0.210  0.6055 -0.1395  0.7835
              Bcc     0.0122     6.509     2.323     2.171 -0.1761  0.9366  0.3028
 
              Baa    -0.0030    -1.592    -0.568    -0.531  0.1565 -0.2006  0.9671
     9 H(1)   Bbb     0.0006     0.331     0.118     0.110  0.5961  0.7999  0.0695
              Bcc     0.0024     1.261     0.450     0.421  0.7875 -0.5656 -0.2447
 
              Baa    -0.1499    -7.847    -2.800    -2.617  0.9193  0.0000 -0.3935
    10 Cl(35) Bbb    -0.1146    -5.996    -2.139    -2.000  0.0000  1.0000  0.0000
              Bcc     0.2645    13.843     4.939     4.617  0.3935  0.0000  0.9193
 
              Baa    -0.0030    -1.592    -0.568    -0.531  0.1564  0.2008  0.9671
    11 H(1)   Bbb     0.0006     0.331     0.118     0.110 -0.5963  0.7998 -0.0696
              Bcc     0.0024     1.261     0.450     0.421  0.7874  0.5658 -0.2448
 
              Baa    -0.0110    -5.880    -2.098    -1.961  0.7761 -0.3216 -0.5425
    12 H(1)   Bbb    -0.0012    -0.629    -0.225    -0.210  0.6056  0.1398  0.7834
              Bcc     0.0122     6.509     2.323     2.171  0.1761  0.9365 -0.3032
 
              Baa    -2.0504  -107.313   -38.292   -35.796  0.7516 -0.0001 -0.6597
    13 Cl(35) Bbb    -2.0385  -106.692   -38.070   -35.589  0.0000  1.0000 -0.0002
              Bcc     4.0889   214.005    76.362    71.384  0.6597  0.0001  0.7516
 

 ---------------------------------------------------------------------------------

 No NMR shielding tensors so no spin-rotation constants.
 Leave Link  601 at Thu Aug 24 18:45:06 2006, MaxMem=    6291456 cpu:       2.4
 (Enter /usr/local/Gaussian/g03/l701.exe)
 Compute integral first derivatives.
 ... and contract with generalized density number  0.
 Leave Link  701 at Thu Aug 24 18:45:09 2006, MaxMem=    6291456 cpu:       1.2
 (Enter /usr/local/Gaussian/g03/l702.exe)
 L702 exits ... SP integral derivatives will be done elsewhere.
 Leave Link  702 at Thu Aug 24 18:45:09 2006, MaxMem=    6291456 cpu:       0.0
 (Enter /usr/local/Gaussian/g03/l703.exe)
 Compute integral first derivatives, UseDBF=F.
 Integral derivatives from FoFDir, PRISM(SPDF).
 Symmetry not used in FoFDir.
 MinBra= 0 MaxBra= 2 Meth= 1.
 IRaf=       0 NMat=   1 IRICut=       1 DoRegI=T DoRafI=F ISym2E= 0 JSym2E=0.
 Leave Link  703 at Thu Aug 24 19:14:51 2006, MaxMem=    6291456 cpu:     566.6
 (Enter /usr/local/Gaussian/g03/l716.exe)
 Dipole        = 8.09131563D-01 1.51014612D-04 1.05648415D+00
 ***** Axes restored to original set *****
 -------------------------------------------------------------------
 Center     Atomic                   Forces (Hartrees/Bohr)
 Number     Number              X              Y              Z
 -------------------------------------------------------------------
    1          6          -0.002228379    0.000335282   -0.001227689
    2          6          -0.002107848   -0.000101683    0.000897388
    3          6           0.000050430   -0.000078868    0.002768267
    4          6           0.001434166    0.000133388    0.000863044
    5          6           0.002490216   -0.000137457   -0.001290897
    6          6          -0.000266622   -0.000154000   -0.002370476
    7          1          -0.000130607   -0.000017285   -0.000085041
    8          1          -0.000216710    0.000014132    0.000157279
    9          1          -0.000062835    0.000008330    0.000285573
   10         17           0.000844160    0.000014115    0.000482953
   11          1           0.000207614   -0.000005108   -0.000197225
   12          1           0.000039167    0.000017018   -0.000253096
   13         17          -0.000052752   -0.000027864   -0.000030081
 -------------------------------------------------------------------
 Cartesian Forces:  Max     0.002768267 RMS     0.000976866
 Leave Link  716 at Thu Aug 24 19:14:52 2006, MaxMem=    6291456 cpu:       0.0
 (Enter /usr/local/Gaussian/g03/l103.exe)

 GradGradGradGradGradGradGradGradGradGradGradGradGradGradGradGradGradGrad
 Berny optimization.
 Internal  Forces:  Max     0.002897430 RMS     0.000770639
 Search for a local minimum.
 Step number   1 out of a maximum of  87
 All quantities printed in internal units (Hartrees-Bohrs-Radians)
 Second derivative matrix not updated -- first step.
     Eigenvalues ---    0.02040   0.02130   0.02144   0.02195   0.02235
     Eigenvalues ---    0.02272   0.02285   0.02909   0.03149   0.03270
     Eigenvalues ---    0.03576   0.06709   0.09410   0.11538   0.12600
     Eigenvalues ---    0.15753   0.16000   0.16000   0.18054   0.22892
     Eigenvalues ---    0.25000   0.31141   0.32440   0.34447   0.35703
     Eigenvalues ---    0.35706   0.35782   0.35784   0.38814   0.43112
     Eigenvalues ---    0.44203   0.47070   0.490321000.000001000.00000
     Eigenvalues --- 1000.000001000.000001000.000001000.000001000.00000
     Eigenvalues --- 1000.000001000.000001000.000001000.000001000.00000
     Eigenvalues --- 1000.000001000.000001000.000001000.000001000.00000
     Eigenvalues --- 1000.000001000.000001000.000001000.000001000.00000
     Eigenvalues --- 1000.000001000.000001000.000001000.000001000.00000
     Eigenvalues --- 1000.000001000.000001000.000001000.000001000.00000
     Eigenvalues --- 1000.000001000.000001000.000001000.000001000.00000
     Eigenvalues --- 1000.000001000.000001000.000001000.000001000.00000
     Eigenvalues --- 1000.000001000.00000
 RFO step:  Lambda=-1.04161575D-04.
 Linear search not attempted -- first point.
 Iteration  1 RMS(Cart)=  0.00270416 RMS(Int)=  0.00000175
 Iteration  2 RMS(Cart)=  0.00000141 RMS(Int)=  0.00000062
 Iteration  3 RMS(Cart)=  0.00000000 RMS(Int)=  0.00000062
 Variable       Old X    -DE/DX   Delta X   Delta X   Delta X     New X
                                 (Linear)    (Quad)   (Total)
    R1        2.66153   0.00220   0.00000   0.00558   0.00558   2.66711
    R2        2.66137   0.00225   0.00000   0.00570   0.00570   2.66707
    R3        2.04212   0.00003   0.00000   0.00036   0.00036   2.04248
    R4        4.87341  -0.00052   0.00000  -0.00152  -0.00152   4.87189
    R5        2.60860   0.00286   0.00000   0.00582   0.00582   2.61442
    R6        2.04544   0.00027   0.00000   0.00075   0.00075   2.04618
    R7        5.86101   0.00039   0.00000   0.00427   0.00427   5.86528
    R8        2.63779   0.00284   0.00000   0.00618   0.00618   2.64397
    R9        2.04421   0.00028   0.00000   0.00080   0.00080   2.04500
   R10        2.63775   0.00285   0.00000   0.00621   0.00621   2.64396
   R11        3.29445   0.00097   0.00000   0.00312   0.00312   3.29757
   R12        2.60850   0.00290   0.00000   0.00592   0.00592   2.61442
   R13        2.04423   0.00028   0.00000   0.00077   0.00077   2.04500
   R14        2.04548   0.00025   0.00000   0.00071   0.00071   2.04619
   R15        5.86093   0.00039   0.00000   0.00427   0.00427   5.86521
   R16        5.02739   0.00008   0.00000  -0.00135  -0.00135   5.02604
    A1        2.08535  -0.00001   0.00000  -0.00034  -0.00034   2.08501
    A2        2.09322   0.00002   0.00000   0.00005   0.00004   2.09326
    A3        2.09337   0.00000   0.00000  -0.00006  -0.00006   2.09331
    A4        2.10090   0.00021   0.00000   0.00050   0.00050   2.10140
    A5        2.08666  -0.00011   0.00000  -0.00013  -0.00013   2.08653
    A6        2.09552  -0.00010   0.00000  -0.00039  -0.00039   2.09513
    A7        2.02229  -0.00004   0.00000   0.00031   0.00031   2.02260
    A8        1.68920   0.00020   0.00000   0.00020   0.00020   1.68940
    A9        2.07676  -0.00015   0.00000  -0.00036  -0.00036   2.07640
   A10        2.11398   0.00001   0.00000  -0.00024  -0.00024   2.11373
   A11        2.09245   0.00014   0.00000   0.00061   0.00061   2.09305
   A12        2.12535  -0.00008   0.00000   0.00009   0.00009   2.12544
   A13        2.07885   0.00005   0.00000   0.00001   0.00001   2.07886
   A14        2.07899   0.00003   0.00000  -0.00010  -0.00010   2.07889
   A15        2.07672  -0.00016   0.00000  -0.00034  -0.00034   2.07638
   A16        2.09241   0.00015   0.00000   0.00064   0.00064   2.09305
   A17        2.11405   0.00001   0.00000  -0.00030  -0.00030   2.11376
   A18        2.10102   0.00019   0.00000   0.00040   0.00040   2.10143
   A19        2.08653  -0.00009   0.00000  -0.00002  -0.00002   2.08651
   A20        2.09553  -0.00010   0.00000  -0.00040  -0.00040   2.09513
   A21        2.02225  -0.00004   0.00000   0.00033   0.00033   2.02258
   A22        1.68926   0.00020   0.00000   0.00017   0.00017   1.68942
   A23        0.80610   0.00065   0.00000   0.00110   0.00110   0.80721
   A24        0.75425   0.00037   0.00000   0.00068   0.00067   0.75493
   A25        0.75427   0.00037   0.00000   0.00067   0.00067   0.75494
    D1        0.02460  -0.00006   0.00000   0.00255   0.00255   0.02715
    D2       -3.13209  -0.00012   0.00000   0.00099   0.00099  -3.13111
    D3        3.00547   0.00005   0.00000   0.00007   0.00007   3.00554
    D4       -0.15122  -0.00001   0.00000  -0.00150  -0.00150  -0.15272
    D5       -0.02471   0.00007   0.00000  -0.00249  -0.00249  -0.02720
    D6        3.13190   0.00012   0.00000  -0.00087  -0.00087   3.13103
    D7       -3.00557  -0.00005   0.00000  -0.00001  -0.00001  -3.00558
    D8        0.15104   0.00001   0.00000   0.00160   0.00160   0.15264
    D9       -0.01236   0.00001   0.00000  -0.00039  -0.00039  -0.01274
   D10        3.12845  -0.00005   0.00000  -0.00144  -0.00144   3.12701
   D11       -3.13877   0.00007   0.00000   0.00118   0.00118  -3.13759
   D12        0.00203   0.00000   0.00000   0.00013   0.00013   0.00216
   D13       -1.12084   0.00024   0.00000   0.00142   0.00141  -1.11943
   D14        2.01996   0.00017   0.00000   0.00036   0.00036   2.02032
   D15        1.36516   0.00008   0.00000  -0.00006  -0.00006   1.36509
   D16        2.46493  -0.00001   0.00000  -0.00016  -0.00015   2.46477
   D17       -2.68056   0.00007   0.00000  -0.00024  -0.00024  -2.68079
   D18       -1.58078  -0.00001   0.00000  -0.00033  -0.00033  -1.58111
   D19        0.00004   0.00004   0.00000  -0.00192  -0.00192  -0.00188
   D20        3.14154  -0.00004   0.00000  -0.00090  -0.00090   3.14064
   D21       -3.14078   0.00010   0.00000  -0.00088  -0.00088   3.14153
   D22        0.00072   0.00002   0.00000   0.00014   0.00014   0.00087
   D23       -0.00015  -0.00004   0.00000   0.00198   0.00198   0.00184
   D24        3.14066  -0.00010   0.00000   0.00093   0.00093  -3.14159
   D25        3.14154   0.00004   0.00000   0.00096   0.00096  -3.14069
   D26       -0.00084  -0.00002   0.00000  -0.00009  -0.00009  -0.00093
   D27        0.01258  -0.00002   0.00000   0.00026   0.00026   0.01284
   D28        3.13907  -0.00007   0.00000  -0.00136  -0.00136   3.13772
   D29        1.12110  -0.00024   0.00000  -0.00155  -0.00155   1.11955
   D30       -3.12822   0.00005   0.00000   0.00133   0.00133  -3.12690
   D31       -0.00173   0.00000   0.00000  -0.00029  -0.00029  -0.00202
   D32       -2.01970  -0.00017   0.00000  -0.00049  -0.00048  -2.02019
   D33       -1.36530  -0.00007   0.00000   0.00016   0.00016  -1.36514
   D34       -2.46505   0.00002   0.00000   0.00025   0.00025  -2.46480
   D35        2.68038  -0.00007   0.00000   0.00037   0.00037   2.68074
   D36        1.58064   0.00002   0.00000   0.00045   0.00045   1.58109
         Item               Value     Threshold  Converged?
 Maximum Force            0.002897     0.000450     NO 
 RMS     Force            0.000771     0.000300     NO 
 Maximum Displacement     0.008070     0.001800     NO 
 RMS     Displacement     0.002704     0.001200     NO 
 Predicted change in Energy=-5.209809D-05
 GradGradGradGradGradGradGradGradGradGradGradGradGradGradGradGradGradGrad

[...]
 Second derivative matrix not updated -- analytic derivatives used.
     Eigenvalues ---    0.00306   0.00490   0.00781   0.01202   0.01359
     Eigenvalues ---    0.01462   0.01717   0.01847   0.02014   0.02079
     Eigenvalues ---    0.02236   0.02947   0.04956   0.06552   0.08480
     Eigenvalues ---    0.11115   0.11770   0.13290   0.13911   0.16272
     Eigenvalues ---    0.19619   0.24679   0.27223   0.30764   0.32334
     Eigenvalues ---    0.35750   0.36095   0.36133   0.36311   0.37470
     Eigenvalues ---    0.40515   0.42711   0.502791000.000001000.00000
     Eigenvalues --- 1000.000001000.000001000.000001000.000001000.00000
     Eigenvalues --- 1000.000001000.000001000.000001000.000001000.00000
     Eigenvalues --- 1000.000001000.000001000.000001000.000001000.00000
     Eigenvalues --- 1000.000001000.000001000.000001000.000001000.00000
     Eigenvalues --- 1000.000001000.000001000.000001000.000001000.00000
     Eigenvalues --- 1000.000001000.000001000.000001000.000001000.00000
     Eigenvalues --- 1000.000001000.000001000.000001000.000001000.00000
     Eigenvalues --- 1000.000001000.000001000.000001000.000001000.00000
     Eigenvalues --- 1000.000001000.00000
 Angle between quadratic step and forces=  73.42 degrees.
 Linear search not attempted -- first point.
 Iteration  1 RMS(Cart)=  0.00231359 RMS(Int)=  0.00000714
 Iteration  2 RMS(Cart)=  0.00000484 RMS(Int)=  0.00000202
 Iteration  3 RMS(Cart)=  0.00000000 RMS(Int)=  0.00000202
 Variable       Old X    -DE/DX   Delta X   Delta X   Delta X     New X
                                 (Linear)    (Quad)   (Total)
    R1        2.66711  -0.00004   0.00000   0.00025   0.00025   2.66736
    R2        2.66707  -0.00003   0.00000   0.00029   0.00029   2.66736
    R3        2.04248  -0.00001   0.00000  -0.00016  -0.00016   2.04232
    R4        4.87189  -0.00005   0.00000  -0.01066  -0.01066   4.86124
    R5        2.61442  -0.00027   0.00000  -0.00063  -0.00063   2.61378
    R6        2.04618  -0.00004   0.00000  -0.00010  -0.00010   2.04609
    R7        5.86528   0.00000   0.00000  -0.00320  -0.00320   5.86208
    R8        2.64397  -0.00020   0.00000  -0.00038  -0.00038   2.64359
    R9        2.04500  -0.00006   0.00000  -0.00017  -0.00017   2.04483
   R10        2.64396  -0.00020   0.00000  -0.00037  -0.00037   2.64359
   R11        3.29757  -0.00003   0.00000   0.00006   0.00006   3.29764
   R12        2.61442  -0.00027   0.00000  -0.00063  -0.00063   2.61378
   R13        2.04500  -0.00006   0.00000  -0.00017  -0.00017   2.04483
   R14        2.04619  -0.00004   0.00000  -0.00011  -0.00011   2.04609
   R15        5.86521   0.00000   0.00000  -0.00311  -0.00311   5.86210
   R16        5.02604  -0.00007   0.00000  -0.01302  -0.01302   5.01302
    A1        2.08501  -0.00003   0.00000  -0.00027  -0.00027   2.08473
    A2        2.09326   0.00002   0.00000  -0.00018  -0.00018   2.09308
    A3        2.09331   0.00001   0.00000  -0.00023  -0.00023   2.09308
    A4        2.10140   0.00001   0.00000   0.00013   0.00014   2.10154
    A5        2.08653   0.00001   0.00000  -0.00007  -0.00007   2.08646
    A6        2.09513  -0.00001   0.00000  -0.00006  -0.00006   2.09507
    A7        2.02260   0.00003   0.00000   0.00436   0.00436   2.02696
    A8        1.68940   0.00000   0.00000  -0.00128  -0.00128   1.68812
    A9        2.07640  -0.00006   0.00000  -0.00028  -0.00028   2.07611
   A10        2.11373   0.00003   0.00000   0.00018   0.00018   2.11391
   A11        2.09305   0.00003   0.00000   0.00011   0.00011   2.09316
   A12        2.12544   0.00014   0.00000   0.00056   0.00056   2.12600
   A13        2.07886  -0.00007   0.00000  -0.00026  -0.00026   2.07859
   A14        2.07889  -0.00007   0.00000  -0.00030  -0.00030   2.07859
   A15        2.07638  -0.00006   0.00000  -0.00027  -0.00027   2.07611
   A16        2.09305   0.00003   0.00000   0.00011   0.00012   2.09316
   A17        2.11376   0.00002   0.00000   0.00015   0.00016   2.11391
   A18        2.10143   0.00000   0.00000   0.00011   0.00011   2.10154
   A19        2.08651   0.00001   0.00000  -0.00005  -0.00005   2.08646
   A20        2.09513  -0.00001   0.00000  -0.00006  -0.00006   2.09507
   A21        2.02258   0.00003   0.00000   0.00438   0.00438   2.02696
   A22        1.68942   0.00000   0.00000  -0.00130  -0.00130   1.68813
   A23        0.80721  -0.00002   0.00000   0.00048   0.00048   0.80768
   A24        0.75493   0.00000   0.00000   0.00081   0.00081   0.75574
   A25        0.75494   0.00000   0.00000   0.00080   0.00080   0.75574
    D1        0.02715   0.00002   0.00000   0.00078   0.00078   0.02793
    D2       -3.13111   0.00003   0.00000   0.00107   0.00107  -3.13004
    D3        3.00554  -0.00004   0.00000  -0.00393  -0.00393   3.00161
    D4       -0.15272  -0.00003   0.00000  -0.00363  -0.00363  -0.15635
    D5       -0.02720  -0.00002   0.00000  -0.00073  -0.00073  -0.02793
    D6        3.13103  -0.00003   0.00000  -0.00099  -0.00099   3.13003
    D7       -3.00558   0.00004   0.00000   0.00397   0.00397  -3.00161
    D8        0.15264   0.00003   0.00000   0.00371   0.00371   0.15635
    D9       -0.01274  -0.00001   0.00000  -0.00019  -0.00019  -0.01293
   D10        3.12701   0.00000   0.00000   0.00022   0.00022   3.12722
   D11       -3.13759  -0.00002   0.00000  -0.00049  -0.00049  -3.13808
   D12        0.00216  -0.00001   0.00000  -0.00008  -0.00008   0.00208
   D13       -1.11943   0.00001   0.00000   0.00147   0.00147  -1.11796
   D14        2.02032   0.00001   0.00000   0.00187   0.00188   2.02220
   D15        1.36509  -0.00003   0.00000  -0.00247  -0.00247   1.36262
   D16        2.46477  -0.00001   0.00000  -0.00200  -0.00200   2.46277
   D17       -2.68079  -0.00002   0.00000  -0.00113  -0.00113  -2.68192
   D18       -1.58111  -0.00001   0.00000  -0.00066  -0.00066  -1.58177
   D19       -0.00188  -0.00001   0.00000  -0.00047  -0.00047  -0.00235
   D20        3.14064  -0.00001   0.00000  -0.00037  -0.00037   3.14027
   D21        3.14153  -0.00001   0.00000  -0.00087  -0.00087   3.14066
   D22        0.00087  -0.00001   0.00000  -0.00077  -0.00077   0.00010
   D23        0.00184   0.00001   0.00000   0.00052   0.00052   0.00235
   D24       -3.14159   0.00001   0.00000   0.00094   0.00094  -3.14066
   D25       -3.14069   0.00001   0.00000   0.00041   0.00041  -3.14027
   D26       -0.00093   0.00001   0.00000   0.00083   0.00083  -0.00010
   D27        0.01284   0.00000   0.00000   0.00009   0.00009   0.01293
   D28        3.13772   0.00001   0.00000   0.00036   0.00036   3.13808
   D29        1.11955  -0.00001   0.00000  -0.00159  -0.00160   1.11795
   D30       -3.12690   0.00000   0.00000  -0.00033  -0.00033  -3.12722
   D31       -0.00202   0.00001   0.00000  -0.00006  -0.00006  -0.00208
   D32       -2.02019  -0.00001   0.00000  -0.00201  -0.00202  -2.02221
   D33       -1.36514   0.00003   0.00000   0.00252   0.00253  -1.36262
   D34       -2.46480   0.00002   0.00000   0.00202   0.00203  -2.46277
   D35        2.68074   0.00002   0.00000   0.00118   0.00118   2.68192
   D36        1.58109   0.00001   0.00000   0.00068   0.00068   1.58177
         Item               Value     Threshold  Converged?
 Maximum Force            0.000269     0.000450     YES
 RMS     Force            0.000062     0.000300     YES
 Maximum Displacement     0.011813     0.001800     NO 
 RMS     Displacement     0.002312     0.001200     NO 
 Predicted change in Energy=-1.659813D-06
 GradGradGradGradGradGradGradGradGradGradGradGradGradGradGradGradGradGrad

 Leave Link  103 at Fri Aug 25 21:21:25 2006, MaxMem=    6291456 cpu:       0.2
 (Enter /usr/local/Gaussian/g03/l9999.exe)
 1\1\GINC-PUBLIX\Freq\UB3LYP\6-311+G(d,p)\C6H5Cl2(2)\NOBODY\25-Aug-2006
 \0\\#P GEOM=ALLCHECK GUESS=READ SCRF=CHECK GENCHK UB3LYP/6-311+G(D,P) 
 FREQ\\chlorobz/cl complex basis\\0,2\C,-1.3953646679,-0.553360371,-0.8
 058137729\C,-1.3951308178,-0.5550906019,0.6055588979\C,-0.2017539423,-
 0.5553831079,1.3054838105\C,1.0020012237,-0.5695377655,0.592511405\C,1
 .0297632445,-0.5856052343,-0.8062417237\C,-0.1670769859,-0.5852856818,
 -1.5002274293\H,-2.3233817733,-0.6801814234,-1.345170954\H,-2.33687426
 3,-0.5404953593,1.139739947\H,-0.188184729,-0.5431898572,2.387499746\C
 l,2.5093882022,-0.5685029017,1.4716077604\H,1.978193695,-0.5962950947,
 -1.3272569138\H,-0.165866325,-0.5939518556,-2.5829905355\Cl,-1.9328302
 569,1.9437787937,-1.1551047261\\Version=Sun64-SVR4-Unix-G03RevB.04\Sta
 te=2-A\HF=-1152.1167719\S2=0.759167\S2-1=0.\S2A=0.750061\RMSD=7.701e-0
 9\RMSF=9.062e-05\Dipole=0.2955771,-1.2865936,0.1908453\DipoleDeriv=-0.
 1388027,0.3220986,-0.0579835,0.1798693,-0.258607,0.1081696,-0.0540669,
 0.1892226,-0.0834245,0.3297202,-0.2033529,0.0402328,-0.07353,-0.102929
 8,0.0054031,0.3744517,-0.5517607,0.210978,-0.7617713,0.4164954,-0.2002
 283,-0.0192615,-0.0699882,0.00154,-0.0252267,-0.0424223,0.0472192,1.31
 81448,-0.2960712,0.6308597,0.0127698,0.0120353,0.0096732,0.6233325,-0.
 1667808,0.6118033,-0.2477377,0.1687313,-0.3237777,-0.0183429,-0.062579
 1,-0.0219993,-0.4865325,0.3803472,-0.4776251,0.4106366,-0.5809455,0.33
 79654,-0.0376159,-0.0948691,-0.0661494,-0.0088711,0.1009662,0.1225814,
 0.0525225,-0.0382473,-0.0150081,-0.0476469,0.1651794,-0.0290064,-0.015
 0531,-0.0232822,0.0706981,0.0020157,-0.0157079,0.0446937,0.0262159,0.1
 080633,0.0044203,0.0279256,0.0191856,0.0416008,0.0792277,0.0093322,-0.
 0155972,0.0054385,0.1413945,-0.0042843,-0.0111731,0.0097895,-0.0127792
 ,-0.8457573,0.2324159,-0.4585475,0.0035767,-0.0381283,0.001646,-0.4547
 322,0.134785,-0.3330483,-0.0018773,0.0152041,0.034684,0.0014322,0.1413
 015,0.0049373,0.0306948,0.0012922,0.0682112,0.0637007,0.0090597,-0.006
 4795,0.0173094,0.107836,0.0179003,0.0097194,-0.0259273,-0.0197193,-0.2
 600219,-0.0390124,-0.0108139,-0.0502145,-0.0487084,-0.0322503,-0.01046
 84,-0.0254149,-0.2464955\Polar=138.8105798,-38.2193923,106.199631,29.3
 220622,-22.5945926,107.078015\PG=C01 [X(C6H5Cl2)]\NImag=0\\0.68983767,
 0.04450291,0.11482780,0.04664015,0.03303422,0.63541960,-0.12149167,-0.
 00733650,0.02505995,0.73415873,-0.00671330,-0.05623735,0.00094389,-0.0
 0147929,0.13554607,-0.01599670,-0.01614120,-0.30363812,-0.02613379,0.0
 0544142,0.64958764,0.01870563,0.00844417,-0.05503692,-0.28981581,-0.00
 394231,-0.06699732,0.63495355,0.00105365,0.00738266,-0.00022981,0.0004
 3642,-0.05969700,0.00010002,-0.00490680,0.12655831,-0.03142721,-0.0006
 3213,-0.02506445,-0.13214116,0.00020875,-0.18890832,0.02194697,0.00644
 132,0.75251432,-0.00892615,-0.00387574,0.02034157,-0.06551780,0.003131
 08,-0.02900079,-0.22941219,0.00334672,0.12542452,0.52456603,0.00019866
 ,-0.00844055,-0.00039378,0.00032356,0.00549921,0.00062588,0.00143074,-
 0.06272150,-0.00200900,-0.00227241,0.12712743,0.02029477,-0.00275867,-
 0.03187325,0.02654931,-0.00315105,0.05700200,0.05345944,-0.00291144,-0
 .17972568,-0.05263184,0.00564053,0.58418049,-0.05146260,0.00453261,0.0
 0823573,-0.01463980,0.00073999,-0.02184536,0.03340459,0.00083491,0.028
 74999,-0.11505178,0.00089263,0.06079549,0.74275984,0.00072062,0.007533
 83,0.00173214,-0.00029591,-0.00336955,-0.00096754,0.00126067,0.0080546
 6,-0.00011213,-0.00046083,-0.06269053,-0.00132848,-0.00528986,0.126521
 23,-0.01523252,0.00865394,0.04494880,-0.02518670,0.00143117,-0.0403976
 1,0.06942273,-0.00034508,-0.02212872,-0.01118997,-0.00257019,-0.294095
 64,-0.03910606,0.00410961,0.64472522,-0.25580665,-0.01388930,0.0601318
 2,0.02633430,0.00154549,0.05625262,-0.05429377,-0.00035344,0.00059833,
 0.02619539,-0.00127156,-0.08085497,-0.29871464,0.00193915,-0.06202256,
 0.64773882,0.00217056,-0.05621003,-0.00948416,-0.00093050,0.00729400,0
 .00118855,0.00218966,-0.00338150,-0.00001242,-0.00200483,0.00561278,0.
 00441944,-0.00151063,-0.05979085,-0.00534025,-0.00188018,0.13561835,0.
 10094011,-0.00211779,-0.16936086,0.03256369,-0.00246819,-0.02390793,-0
 .00278816,0.00031091,-0.00072400,-0.02531955,-0.00057509,-0.03484039,-
 0.12708166,-0.00066273,-0.17989697,0.02277623,0.00862790,0.73593635,-0
 .27048943,-0.03258360,-0.12324692,0.00456387,0.00142308,0.00142156,0.0
 0212024,-0.00073064,0.00085498,-0.00035610,0.00009828,0.00102573,-0.00
 273616,-0.00054395,0.00389551,-0.01828631,-0.00247173,-0.01475564,0.28
 373368,-0.03437902,-0.03321874,-0.02040930,0.00131213,0.00309675,0.002
 91975,-0.00099905,0.00515433,0.00007008,0.00050308,-0.00040336,0.00026
 691,-0.00025812,0.00513402,-0.00107330,0.00376034,0.00314554,0.0000807
 7,0.03144740,0.03301015,-0.12321877,-0.01936186,-0.12992665,-0.0277451
 5,-0.00358880,-0.01072543,0.00115034,-0.00042107,-0.00541728,0.0010205
 8,0.00003193,-0.00151751,0.00360170,-0.00059384,-0.00053757,0.01432181
 ,0.00301902,0.01207638,0.13134158,0.01869379,0.13406167,0.00467713,0.0
 0006539,-0.00251037,-0.27336232,0.00319149,0.12164381,-0.01789200,0.00
 043252,0.01476455,-0.00220005,0.00013150,-0.00287863,0.00010347,-0.000
 02803,-0.00071874,0.00138595,0.00003212,-0.00077477,0.00052591,0.00000
 796,0.00030644,0.28688054,-0.00045281,0.00264799,0.00096623,0.00360412
 ,-0.03799416,-0.00405577,0.00047264,0.00552453,0.00017858,-0.00042534,
 0.00792941,0.00026447,-0.00011331,-0.00112689,-0.00027437,0.00030736,0
 .00536196,0.00007535,0.00044211,-0.00285389,0.00040644,-0.00379787,0.0
 2505051,0.02816581,-0.00022223,-0.01081218,0.12180878,-0.00179003,-0.1
 2713110,-0.01627902,0.00005986,0.01161234,-0.00263425,-0.00015736,-0.0
 0091478,-0.00063583,-0.00000811,-0.00035446,-0.00117022,0.00017571,-0.
 00577179,-0.00026566,-0.00009290,0.00098071,-0.12961140,0.00239957,0.1
 3192778,-0.00473572,-0.00010654,-0.00213770,0.00439639,0.00001781,-0.0
 2813651,-0.05665293,-0.00005568,-0.00347576,0.00241169,0.00039943,0.02
 808751,-0.00479873,0.00008133,0.00193322,-0.00088081,0.00006625,-0.000
 23451,0.00014493,-0.00003295,-0.00127847,0.00092065,0.00000570,0.00039
 354,0.05780313,0.00048187,0.00777192,0.00033231,0.00011944,0.00399803,
 -0.00034203,-0.00006270,-0.03615437,-0.00362352,0.00009143,0.00228283,
 -0.00042438,0.00009521,0.00537644,0.00010822,-0.00009293,-0.00100617,0
 .00000489,-0.00020569,0.00003188,0.00024956,-0.00013640,-0.00457095,0.
 00008142,-0.00017710,0.02479582,-0.00251363,-0.00025024,0.00069006,0.0
 0170598,0.00001691,-0.00976209,-0.00074870,-0.00342938,-0.34292249,-0.
 00342100,-0.00013498,-0.01201903,0.00250821,-0.00006417,0.00064382,0.0
 0011256,-0.00000371,0.00062659,0.00022969,0.00004556,-0.00048050,-0.00
 009512,0.00008873,0.00074630,0.00281962,0.00376861,0.36158172,-0.00200
 438,0.00164258,-0.00171537,0.00143746,-0.00035462,0.00934355,-0.043657
 56,-0.00032870,-0.02447871,-0.12907577,-0.00013823,-0.05129536,-0.0166
 8837,-0.00031684,-0.01457062,0.00581746,-0.00032160,-0.00061784,0.0002
 9342,-0.00023824,0.00000421,-0.00112499,0.00005463,-0.00117903,0.00097
 099,0.00001293,-0.00048804,0.18354197,-0.00021560,-0.00071459,-0.00010
 206,-0.00002829,0.00442469,-0.00014446,0.00044997,0.00546303,0.0000438
 4,-0.00016207,-0.02478672,-0.00032777,-0.00031506,0.00546406,-0.000027
 21,-0.00000918,0.00442114,-0.00011492,0.00008994,-0.00051462,0.0000639
 2,0.00001696,-0.00028722,0.00004736,-0.00004835,-0.00227792,0.00007282
 ,0.00021610,0.01135738,-0.00169064,0.00098027,-0.00010312,0.00185768,-
 0.00013546,0.00088321,0.00068667,-0.00013245,0.00542010,-0.05129437,-0
 .00031549,-0.07103738,-0.03974709,-0.00030345,-0.02155596,0.00686434,-
 0.00049712,-0.00348650,-0.00000073,-0.00012699,0.00029262,0.00017232,0
 .00003909,-0.00004433,0.00061522,0.00009677,0.00124781,0.08473517,0.00
 051063,0.08764933,-0.00262758,-0.00022085,-0.00370761,0.00021936,0.000
 00041,-0.00050572,0.00122870,0.00002426,-0.00089720,0.00205037,0.00000
 108,-0.00321698,-0.27532370,0.00258857,0.12297020,-0.01765253,0.000592
 05,0.01418831,-0.00077813,0.00005077,0.00074638,-0.00002365,-0.0000132
 8,0.00007024,0.00024557,-0.00000479,-0.00012630,0.00123329,-0.00001794
 ,-0.00063840,0.29034521,0.00058503,0.00777037,0.00010431,-0.00007538,-
 0.00100550,-0.00006578,0.00016184,0.00537192,-0.00019082,0.00028116,0.
 00228902,0.00003153,0.00234942,-0.03614647,-0.00167796,-0.00030348,0.0
 0400699,0.00027407,0.00010952,0.00002276,-0.00030202,-0.00001806,-0.00
 075374,-0.00000383,0.00002671,0.00040807,-0.00001969,0.00005717,-0.002
 27998,0.00004124,-0.00285084,0.02478709,-0.00334079,-0.00012537,-0.001
 42708,-0.00085482,0.00008316,-0.00046422,-0.00147671,-0.00011317,-0.00
 538268,0.02829131,-0.00022797,-0.01166735,0.12024617,-0.00173928,-0.12
 425513,-0.01565268,0.00038091,0.01227687,-0.00075834,-0.00003300,0.000
 45046,0.00006391,0.00000290,0.00007136,0.00135779,-0.00000248,-0.00045
 080,0.00046551,-0.00001383,0.00098542,-0.12875050,0.00181450,0.1290529
 8,0.00394716,0.00043406,0.02856739,-0.00486178,0.00034688,0.00236419,-
 0.00082568,-0.00002670,-0.00010830,-0.00359153,0.00003162,-0.00185797,
 0.00381347,-0.00032599,-0.02855062,-0.05827026,0.00026856,0.00012005,0
 .00089309,-0.00013339,-0.00046578,0.00012317,-0.00001255,0.00137527,0.
 00010544,-0.00002312,-0.00000275,-0.00073633,0.00002553,-0.00139812,0.
 00091711,-0.00005625,0.00039666,0.05840486,0.00055629,0.00261605,-0.00
 149901,0.00040433,0.00535564,0.00009867,-0.00030557,-0.00112131,0.0000
 7314,0.00012143,0.00791772,-0.00063494,0.00046506,0.00553162,0.0003448
 5,-0.00150460,-0.03792924,-0.00140197,0.00052695,-0.00285318,0.0002649
 4,-0.00001323,0.00053766,-0.00004656,-0.00001494,-0.00075353,0.0000020
 1,0.00006516,-0.00028798,0.00004216,0.00001008,-0.00457285,0.00006995,
 -0.00020511,0.02501387,-0.00210120,-0.00007994,-0.01004961,0.00275282,
 -0.00019782,0.00048021,-0.00018347,0.00001825,0.00057502,-0.00209005,0
 .00006158,0.00047864,0.00247298,-0.00002368,-0.01009926,-0.00002336,-0
 .00287102,-0.34228513,0.00009156,0.00012575,0.00061196,-0.00021797,-0.
 00000841,-0.00053123,-0.00000935,0.00000111,-0.00005610,-0.00004727,-0
 .00001091,-0.00043163,-0.00009753,-0.00004305,0.00075414,-0.00035196,0
 .00271629,0.36043638,0.00037661,-0.00160919,-0.00062171,-0.00142094,0.
 00209328,-0.00240954,0.00213723,0.00027347,0.00018900,-0.00109211,0.00
 017470,0.00252350,-0.00066559,0.00067107,-0.00164387,-0.00356693,0.003
 80028,0.00098372,0.00037100,-0.00104091,0.00021513,-0.00001380,-0.0000
 7141,-0.00003824,0.00006940,-0.00009815,0.00001949,-0.00000716,-0.0000
 0201,-0.00016205,0.00016597,-0.00026684,0.00001248,0.00008127,-0.00010
 585,-0.00019520,0.00356505,-0.00850885,0.00427063,-0.00499498,0.003945
 86,-0.00691084,0.01134249,-0.00419326,-0.00043376,-0.00043569,0.001726
 31,0.00038425,0.00091388,-0.00242286,-0.00049158,-0.00333942,0.0117523
 2,-0.00714296,-0.00203319,0.00239834,-0.00975164,0.00153800,0.00011565
 ,0.00053478,-0.00044290,-0.00016168,0.00009796,-0.00009247,-0.00035032
 ,0.00001873,-0.00019920,-0.00015953,0.00010232,-0.00009632,-0.00032354
 ,0.00054552,0.00031186,-0.00381845,0.01877657,-0.00051938,-0.00097900,
 0.00119685,-0.00023660,0.00320606,-0.00301824,-0.00315586,0.00065204,0
 .00015183,0.00250385,0.00002395,-0.00397013,0.00180573,-0.00003834,0.0
 0300347,-0.00133391,0.00039715,-0.00064260,0.00016669,-0.00046711,0.00
 013115,-0.00014405,-0.00008280,0.00022136,0.00006538,-0.00025047,0.000
 15469,-0.00015621,0.00000260,0.00018044,-0.00003489,0.00003750,0.00005
 602,-0.00008806,-0.00002953,0.00011661,0.00112730,-0.00247205,0.002418
 53\\0.00002399,-0.00019613,-0.00000005,-0.00022190,-0.00001415,-0.0000
 7995,0.00001292,0.00002565,0.00006275,0.00031677,0.00000920,0.00017957
 ,0.00005778,0.00002373,-0.00002487,-0.00018480,-0.00001288,-0.00013665
 ,-0.00003252,0.00001149,-0.00001611,-0.00004481,0.00000943,0.00000076,
 0.00000228,0.00001347,0.00005852,0.00002264,-0.00001633,0.00001561,0.0
 0005341,0.00001564,-0.00002552,-0.00002270,0.00000502,-0.00004195,0.00
 001694,0.00012585,0.00000789\\\@


 THE POLHOLDE ROLLS WITHOUT SLIPPING ON THE HERPOLHOLDE LYING IN
 THE INVARIABLE PLANE.
 H.GOLDSTEIN, "CLASSICAL MECHANICS", PG 161
 Job cpu time:  0 days  7 hours 21 minutes 48.8 seconds.
 File lengths (MBytes):  RWF=    166 Int=      0 D2E=      0 Chk=     13 Scr=      1
 Normal termination of Gaussian 03 at Fri Aug 25 21:21:27 2006.
