<?xml version="1.0" encoding="UTF-8"?>
<module cmlx:templateRef="gaussian.log" xmlns="http://www.xml-cml.org/schema" xmlns:cmlx="http://www.xml-cml.org/schema/cmlx"> Entering Gaussian System, Link 0=/usr/local/Gaussian/g03/g03 Initial command: /usr/local/Gaussian/g03/l1.exe /export/scratch//webmo/3304/Gau-10288.inp -scrdir=/export/scratch//webmo/3304/ Entering Link 1 = /usr/local/Gaussian/g03/l1.exe PID=     10290.  <module cmlx:lineCount="60" cmlx:templateRef="l1.legal"><scalar dataType="xsd:string" dictRef="g:l1.legal">Copyright (c) 1988,1990,1992,1993,1995,1998,2003, Gaussian, Inc.</scalar></module>  <module cmlx:lineCount="20" cmlx:templateRef="l1.citation"><list cmlx:templateRef="citation"><scalar dataType="xsd:string" dictRef="g:l1.citation">Cite this work as:</scalar></list></module> <module cmlx:lineCount="25" cmlx:templateRef="l1.end"><scalar dataType="xsd:string" dictRef="cc:run.date">30-Aug-2006</scalar><scalar dataType="xsd:string" dictRef="cc:program">Gaussian 03</scalar><scalar dataType="xsd:string" dictRef="cc:version">Sun64-SVR4-Unix-G03RevB.04</scalar><scalar dataType="xsd:string" dictRef="cc:program.date">2-Jun-2003</scalar><list cmlx:templateRef="control"><scalar dataType="xsd:string" dictRef="g:control">1/14=-1,18=20,26=3,38=1/1,3</scalar><scalar dataType="xsd:string" dictRef="g:control">2/9=110,17=6,18=5,40=1/2</scalar><scalar dataType="xsd:string" dictRef="g:control">3/5=4,6=6,7=111,11=2,16=1,25=1,30=1,74=-5/1,2,3</scalar><scalar dataType="xsd:string" dictRef="g:control">4//1</scalar><scalar dataType="xsd:string" dictRef="g:control">5/5=2,38=5/2</scalar><scalar dataType="xsd:string" dictRef="g:control">6/7=2,8=2,9=2,10=2,28=1/1</scalar><scalar dataType="xsd:string" dictRef="g:control">7//1,2,3,16</scalar><scalar dataType="xsd:string" dictRef="g:control">1/14=-1,18=20/3(1)</scalar><scalar dataType="xsd:string" dictRef="g:control">99//99</scalar><scalar dataType="xsd:string" dictRef="g:control">2/9=110/2</scalar><scalar dataType="xsd:string" dictRef="g:control">3/5=4,6=6,7=111,11=2,16=1,25=1,30=1,74=-5/1,2,3</scalar><scalar dataType="xsd:string" dictRef="g:control">4/5=5,16=3/1</scalar><scalar dataType="xsd:string" dictRef="g:control">5/5=2,38=5/2</scalar><scalar dataType="xsd:string" dictRef="g:control">7//1,2,3,16</scalar><scalar dataType="xsd:string" dictRef="g:control">1/14=-1,18=20/3(-5)</scalar><scalar dataType="xsd:string" dictRef="g:control">2/9=110/2</scalar><scalar dataType="xsd:string" dictRef="g:control">6/7=2,8=2,9=2,10=2,19=2,28=1/1</scalar><scalar dataType="xsd:string" dictRef="g:control">99/9=1/99</scalar></list></module><module cmlx:lineCount="3" cmlx:templateRef="l101.title"><scalar dataType="xsd:string" dictRef="cc:title" cmlx:templateRef="title">toluene basis2</scalar></module><module cmlx:lineCount="58" cmlx:templateRef="l101"><list cmlx:templateRef="rest"><scalar dataType="xsd:string" dictRef="x:l101"/></list></module>                    Isotopes and Nuclear Properties:<module cmlx:lineCount="8" cmlx:templateRef="l101.isotope">  Atom         1           2           3           4           5           6           7           8           9          10 IAtWgt=          12          12          12          12          12          12          12           1           1           1 AtmWgt=  12.0000000  12.0000000  12.0000000  12.0000000  12.0000000  12.0000000  12.0000000   1.0078250   1.0078250   1.0078250 IAtSpn=           0           0           0           0           0           0           0           1           1           1 AtZEff=   0.0000000   0.0000000   0.0000000   0.0000000   0.0000000   0.0000000   0.0000000   0.0000000   0.0000000   0.0000000 AtQMom=   0.0000000   0.0000000   0.0000000   0.0000000   0.0000000   0.0000000   0.0000000   0.0000000   0.0000000   0.0000000 AtGFac=   0.0000000   0.0000000   0.0000000   0.0000000   0.0000000   0.0000000   0.0000000   2.7928460   2.7928460   2.7928460</module><module cmlx:lineCount="8" cmlx:templateRef="l101.isotope">  Atom        11          12          13          14          15 IAtWgt=           1           1           1           1           1 AtmWgt=   1.0078250   1.0078250   1.0078250   1.0078250   1.0078250 IAtSpn=           1           1           1           1           1 AtZEff=   0.0000000   0.0000000   0.0000000   0.0000000   0.0000000 AtQMom=   0.0000000   0.0000000   0.0000000   0.0000000   0.0000000 AtGFac=   2.7928460   2.7928460   2.7928460   2.7928460   2.7928460</module><module cmlx:lineCount="82" cmlx:templateRef="l103"><list cmlx:templateRef="berny"><scalar dataType="xsd:string" dictRef="g:optimization">Initialization pass.</scalar></list><module cmlx:lineCount="75" cmlx:templateRef="l103.init"><list cmlx:templateRef="length"><array dataType="xsd:string" size="15" dictRef="g:symbol">R1 R2 R3 R4 R5 R6 R7 R8 R9 R10 R11 R12 R13 R14 R15</array><array dataType="xsd:integer" size="15" dictRef="g:atom1">1 1 1 2 2 3 3 4 4 5 5 6 7 7 7</array><array dataType="xsd:integer" size="15" dictRef="g:atom2">2 6 7 3 8 4 9 5 10 6 11 12 13 14 15</array><array dataType="xsd:double" size="15" dictRef="cc:distance">1.3964 1.3963 1.508 1.3904 1.0855 1.3907 1.0845 1.3906 1.084 1.3905 1.0845 1.0855 1.0956 1.0925 1.0924</array><array delimiter="|" dataType="xsd:string" size="15" dictRef="g:deriv">|estimate D2E/DX2|estimate D2E/DX2|estimate D2E/DX2|estimate D2E/DX2|estimate D2E/DX2|estimate D2E/DX2|estimate D2E/DX2|estimate D2E/DX2|estimate D2E/DX2|estimate D2E/DX2|estimate D2E/DX2|estimate D2E/DX2|estimate D2E/DX2|estimate D2E/DX2|estimate D2E/DX2|</array></list><list cmlx:templateRef="angle"><array dataType="xsd:string" size="24" dictRef="g:symbol">A1 A2 A3 A4 A5 A6 A7 A8 A9 A10 A11 A12 A13 A14 A15 A16 A17 A18 A19 A20 A21 A22 A23 A24</array><array dataType="xsd:integer" size="24" dictRef="g:atom1">2 2 6 1 1 3 2 2 4 3 3 5 4 4 6 1 1 5 1 1 1 13 13 14</array><array dataType="xsd:integer" size="24" dictRef="g:atom2">1 1 1 2 2 2 3 3 3 4 4 4 5 5 5 6 6 6 7 7 7 7 7 7</array><array dataType="xsd:integer" size="24" dictRef="g:atom3">6 7 7 3 8 8 4 9 9 5 10 10 6 11 11 5 12 12 13 14 15 14 15 15</array><array dataType="xsd:double" size="24" dictRef="cc:angle">118.2006 120.8831 120.9061 121.0123 119.3722 119.6153 120.1724 119.7794 120.0478 119.4291 120.284 120.2862 120.1714 120.0508 119.7775 121.0135 119.3716 119.6148 111.041 111.4657 111.4641 107.2996 107.317 108.0497</array><array delimiter="|" dataType="xsd:string" size="24" dictRef="g:deriv">|estimate D2E/DX2|estimate D2E/DX2|estimate D2E/DX2|estimate D2E/DX2|estimate D2E/DX2|estimate D2E/DX2|estimate D2E/DX2|estimate D2E/DX2|estimate D2E/DX2|estimate D2E/DX2|estimate D2E/DX2|estimate D2E/DX2|estimate D2E/DX2|estimate D2E/DX2|estimate D2E/DX2|estimate D2E/DX2|estimate D2E/DX2|estimate D2E/DX2|estimate D2E/DX2|estimate D2E/DX2|estimate D2E/DX2|estimate D2E/DX2|estimate D2E/DX2|estimate D2E/DX2|</array></list><list cmlx:templateRef="dihed"><array dataType="xsd:string" size="29" dictRef="g:symbol">D1 D2 D3 D4 D5 D6 D7 D8 D9 D10 D11 D12 D13 D14 D15 D16 D17 D18 D19 D20 D21 D22 D23 D24 D25 D26 D27 D28 D29</array><array dataType="xsd:integer" size="29" dictRef="g:atom1">6 6 7 7 2 2 7 7 2 2 2 6 6 6 1 1 8 8 2 2 9 9 3 3 10 10 4 4 11</array><array dataType="xsd:integer" size="29" dictRef="g:atom2">1 1 1 1 1 1 1 1 1 1 1 1 1 1 2 2 2 2 3 3 3 3 4 4 4 4 5 5 5</array><array dataType="xsd:integer" size="29" dictRef="g:atom3">2 2 2 2 6 6 6 6 7 7 7 7 7 7 3 3 3 3 4 4 4 4 5 5 5 5 6 6 6</array><array dataType="xsd:integer" size="29" dictRef="g:atom4">3 8 3 8 5 12 5 12 13 14 15 13 14 15 4 9 4 9 5 10 5 10 6 11 6 11 1 12 1</array><array dataType="xsd:double" size="29" dictRef="cc:dihed">0.271 -179.5924 -178.5767 1.5599 -0.2712 179.5924 178.5763 -1.5602 88.7185 -30.8607 -151.6814 -90.098 150.3229 29.5021 -0.0825 -179.8728 179.7806 -0.0097 -0.1122 -179.8126 179.6776 -0.0229 0.1121 -179.6777 179.8125 0.0227 0.0828 -179.7804 179.8731</array><array delimiter="|" dataType="xsd:string" size="29" dictRef="g:deriv">|estimate D2E/DX2|estimate D2E/DX2|estimate D2E/DX2|estimate D2E/DX2|estimate D2E/DX2|estimate D2E/DX2|estimate D2E/DX2|estimate D2E/DX2|estimate D2E/DX2|estimate D2E/DX2|estimate D2E/DX2|estimate D2E/DX2|estimate D2E/DX2|estimate D2E/DX2|estimate D2E/DX2|estimate D2E/DX2|estimate D2E/DX2|estimate D2E/DX2|estimate D2E/DX2|estimate D2E/DX2|estimate D2E/DX2|estimate D2E/DX2|estimate D2E/DX2|estimate D2E/DX2|estimate D2E/DX2|estimate D2E/DX2|estimate D2E/DX2|estimate D2E/DX2|estimate D2E/DX2|</array></list> ! D30   D(11,5,6,12)            0.0099         estimate D2E/DX2                !</module> --------------------------------------------------------------------------------<module cmlx:lineCount="2" cmlx:templateRef="l103.trust"><scalar dataType="xsd:double" dictRef="g:trustrad">0.3</scalar><scalar dataType="xsd:double" dictRef="g:fncerr">1.0E-7</scalar><scalar dataType="xsd:double" dictRef="g:grderr">1.0E-6</scalar><scalar dataType="xsd:integer" dictRef="g:nstep">79</scalar><scalar dataType="xsd:integer" dictRef="g:allowedstep">100</scalar></module> GradGradGradGradGradGradGradGradGradGradGradGradGradGradGradGradGradGrad</module><module cmlx:lineCount="21" cmlx:templateRef="l202.orient"><molecule id="mol.l202.orient" cmlx:templateRef="atom"><atomArray><atom id="a1" elementType="C" x3="0.0" y3="0.0" z3="0.0"><scalar dataType="xsd:integer" dictRef="cc:serial">1</scalar><scalar dataType="xsd:integer" dictRef="g:atomicType">0</scalar><scalar dataType="xsd:integer" dictRef="compchem:atomicNumber">6</scalar></atom><atom id="a2" elementType="C" x3="0.0" y3="0.0" z3="1.396373"><scalar dataType="xsd:integer" dictRef="cc:serial">2</scalar><scalar dataType="xsd:integer" dictRef="g:atomicType">0</scalar><scalar dataType="xsd:integer" dictRef="compchem:atomicNumber">6</scalar></atom><atom id="a3" elementType="C" x3="1.191657" y3="0.0" z3="2.112742"><scalar dataType="xsd:integer" dictRef="cc:serial">3</scalar><scalar dataType="xsd:integer" dictRef="g:atomicType">0</scalar><scalar dataType="xsd:integer" dictRef="compchem:atomicNumber">6</scalar></atom><atom id="a4" elementType="C" x3="2.410188" y3="-0.001731" z3="1.442429"><scalar dataType="xsd:integer" dictRef="cc:serial">4</scalar><scalar dataType="xsd:integer" dictRef="g:atomicType">0</scalar><scalar dataType="xsd:integer" dictRef="compchem:atomicNumber">6</scalar></atom><atom id="a5" elementType="C" x3="2.425086" y3="-0.005831" z3="0.051887"><scalar dataType="xsd:integer" dictRef="cc:serial">5</scalar><scalar dataType="xsd:integer" dictRef="g:atomicType">0</scalar><scalar dataType="xsd:integer" dictRef="compchem:atomicNumber">6</scalar></atom><atom id="a6" elementType="C" x3="1.230505" y3="-0.00582" z3="-0.659814"><scalar dataType="xsd:integer" dictRef="cc:serial">6</scalar><scalar dataType="xsd:integer" dictRef="g:atomicType">0</scalar><scalar dataType="xsd:integer" dictRef="compchem:atomicNumber">6</scalar></atom><atom id="a7" elementType="C" x3="-1.293768" y3="0.032145" z3="-0.774026"><scalar dataType="xsd:integer" dictRef="cc:serial">7</scalar><scalar dataType="xsd:integer" dictRef="g:atomicType">0</scalar><scalar dataType="xsd:integer" dictRef="compchem:atomicNumber">6</scalar></atom><atom id="a8" elementType="H" x3="-0.945942" y3="-0.002255" z3="1.928782"><scalar dataType="xsd:integer" dictRef="cc:serial">8</scalar><scalar dataType="xsd:integer" dictRef="g:atomicType">0</scalar><scalar dataType="xsd:integer" dictRef="compchem:atomicNumber">1</scalar></atom><atom id="a9" elementType="H" x3="1.168325" y3="-0.002089" z3="3.196949"><scalar dataType="xsd:integer" dictRef="cc:serial">9</scalar><scalar dataType="xsd:integer" dictRef="g:atomicType">0</scalar><scalar dataType="xsd:integer" dictRef="compchem:atomicNumber">1</scalar></atom><atom id="a10" elementType="H" x3="3.340335" y3="-0.004795" z3="1.999131"><scalar dataType="xsd:integer" dictRef="cc:serial">10</scalar><scalar dataType="xsd:integer" dictRef="g:atomicType">0</scalar><scalar dataType="xsd:integer" dictRef="compchem:atomicNumber">1</scalar></atom><atom id="a11" elementType="H" x3="3.369524" y3="-0.012492" z3="-0.481069"><scalar dataType="xsd:integer" dictRef="cc:serial">11</scalar><scalar dataType="xsd:integer" dictRef="g:atomicType">0</scalar><scalar dataType="xsd:integer" dictRef="compchem:atomicNumber">1</scalar></atom><atom id="a12" elementType="H" x3="1.252668" y3="-0.012654" z3="-1.745034"><scalar dataType="xsd:integer" dictRef="cc:serial">12</scalar><scalar dataType="xsd:integer" dictRef="g:atomicType">0</scalar><scalar dataType="xsd:integer" dictRef="compchem:atomicNumber">1</scalar></atom><atom id="a13" elementType="H" x3="-1.617588" y3="1.062782" z3="-0.956303"><scalar dataType="xsd:integer" dictRef="cc:serial">13</scalar><scalar dataType="xsd:integer" dictRef="g:atomicType">0</scalar><scalar dataType="xsd:integer" dictRef="compchem:atomicNumber">1</scalar></atom><atom id="a14" elementType="H" x3="-2.097548" y3="-0.469559" z3="-0.230225"><scalar dataType="xsd:integer" dictRef="cc:serial">14</scalar><scalar dataType="xsd:integer" dictRef="g:atomicType">0</scalar><scalar dataType="xsd:integer" dictRef="compchem:atomicNumber">1</scalar></atom><atom id="a15" elementType="H" x3="-1.189458" y3="-0.452861" z3="-1.747281"><scalar dataType="xsd:integer" dictRef="cc:serial">15</scalar><scalar dataType="xsd:integer" dictRef="g:atomicType">0</scalar><scalar dataType="xsd:integer" dictRef="compchem:atomicNumber">1</scalar></atom></atomArray><formula formalCharge="0" concise="C 7 H 8"><atomArray elementType="C H" count="7.0 8.0"/></formula><bondArray><bond atomRefs2="a1 a2" id="a1_a2" order="2"/><bond atomRefs2="a1 a6" id="a1_a6" order="S"/><bond atomRefs2="a1 a7" id="a1_a7" order="S"/><bond atomRefs2="a2 a3" id="a2_a3" order="S"/><bond atomRefs2="a2 a8" id="a2_a8" order="S"/><bond atomRefs2="a3 a4" id="a3_a4" order="2"/><bond atomRefs2="a3 a9" id="a3_a9" order="S"/><bond atomRefs2="a4 a5" id="a4_a5" order="S"/><bond atomRefs2="a4 a10" id="a4_a10" order="S"/><bond atomRefs2="a5 a6" id="a5_a6" order="2"/><bond atomRefs2="a5 a11" id="a5_a11" order="S"/><bond atomRefs2="a6 a12" id="a6_a12" order="S"/><bond atomRefs2="a7 a13" id="a7_a13" order="S"/><bond atomRefs2="a7 a14" id="a7_a14" order="S"/><bond atomRefs2="a7 a15" id="a7_a15" order="S"/></bondArray><property dictRef="cml:molmass"><scalar dataType="xsd:double" units="unit:dalton" xmlns:unit="http://www.xml-cml.org/unit/si/">92.13842</scalar></property></molecule></module><module cmlx:lineCount="34" cmlx:templateRef="l202.distmat"><array dataType="xsd:double" size="105" dictRef="cc:distance">0.0 1.396373 0.0 2.42564 1.390407 0.0 2.808845 2.410628 1.390733 0.0 2.425648 2.772854 2.401771 1.390627 0.0 1.396256 2.396264 2.772834 2.410621 1.390519 0.0 1.507974 2.526955 3.809436 4.316608 3.809652 2.527141 0.0 2.148258 1.085482 2.145502 3.391187 3.858313 3.381977 2.725314 0.0 3.403744 2.146407 1.08446 2.14955 3.386868 3.857266 4.672442 2.465436 0.0 3.892864 3.394286 2.151685 1.084021 2.151613 3.394315 5.400618 4.286856 2.480404 0.0 3.403715 3.857284 3.386904 2.149485 1.084459 2.146485 4.672699 4.942747 4.286398 2.480384 2.148134 3.381977 3.858279 3.391148 2.145585 1.085467 2.725655 4.281462 4.942714 4.286862 2.158845 3.046503 4.294229 4.807295 4.301348 3.056379 1.09558 3.147877 5.113195 5.869865 2.161758 2.695555 4.06557 4.830768 4.555091 3.387556 1.092469 2.491161 4.757098 5.895474 2.161685 3.391526 4.557913 4.830653 4.062237 2.690474 1.0924 3.711574 5.496157 5.89537</array></module><module cmlx:lineCount="6" cmlx:templateRef="l202.stoich"><scalar dataType="xsd:string" dictRef="cc:formula" cmlx:templateRef="stoich">C7H8</scalar><scalar dataType="xsd:string" dictRef="cc:frameworkgroup" cmlx:templateRef="framework">C1[X(C7H8)]</scalar><scalar dataType="xsd:integer" dictRef="cc:degfreedom" cmlx:templateRef="degfreedom">39</scalar><scalar dataType="xsd:string" dictRef="cc:pointgroup">C1</scalar><scalar dataType="xsd:integer" dictRef="cc:operatorcount">1</scalar><scalar dataType="xsd:string" dictRef="cc:largestabelian">C1</scalar><scalar dataType="xsd:integer" dictRef="cc:operatorcount">1</scalar><scalar dataType="xsd:string" dictRef="cc:largestconciseabelian">C1</scalar><scalar dataType="xsd:integer" dictRef="cc:operatorcount">1</scalar></module><module cmlx:lineCount="21" cmlx:templateRef="l202.orient"><molecule id="a15" cmlx:templateRef="atom"><atomArray><atom id="a1" elementType="C" x3="-0.910457" y3="2.04E-4" z3="-0.011388"><scalar dataType="xsd:integer" dictRef="cc:serial">1</scalar><scalar dataType="xsd:integer" dictRef="g:atomicType">0</scalar><scalar dataType="xsd:integer" dictRef="compchem:atomicNumber">6</scalar></atom><atom id="a2" elementType="C" x3="-0.193521" y3="-1.198067" z3="-0.008773"><scalar dataType="xsd:integer" dictRef="cc:serial">2</scalar><scalar dataType="xsd:integer" dictRef="g:atomicType">0</scalar><scalar dataType="xsd:integer" dictRef="compchem:atomicNumber">6</scalar></atom><atom id="a3" elementType="C" x3="1.196842" y3="-1.200979" z3="0.001933"><scalar dataType="xsd:integer" dictRef="cc:serial">3</scalar><scalar dataType="xsd:integer" dictRef="g:atomicType">0</scalar><scalar dataType="xsd:integer" dictRef="compchem:atomicNumber">6</scalar></atom><atom id="a4" elementType="C" x3="1.898317" y3="-1.34E-4" z3="0.008522"><scalar dataType="xsd:integer" dictRef="cc:serial">4</scalar><scalar dataType="xsd:integer" dictRef="g:atomicType">0</scalar><scalar dataType="xsd:integer" dictRef="compchem:atomicNumber">6</scalar></atom><atom id="a5" elementType="C" x3="1.197191" y3="1.200792" z3="0.001936"><scalar dataType="xsd:integer" dictRef="cc:serial">5</scalar><scalar dataType="xsd:integer" dictRef="g:atomicType">0</scalar><scalar dataType="xsd:integer" dictRef="compchem:atomicNumber">6</scalar></atom><atom id="a6" elementType="C" x3="-0.193284" y3="1.198197" z3="-0.008774"><scalar dataType="xsd:integer" dictRef="cc:serial">6</scalar><scalar dataType="xsd:integer" dictRef="g:atomicType">0</scalar><scalar dataType="xsd:integer" dictRef="compchem:atomicNumber">6</scalar></atom><atom id="a7" elementType="C" x3="-2.418291" y3="9.0E-5" z3="0.00914"><scalar dataType="xsd:integer" dictRef="cc:serial">7</scalar><scalar dataType="xsd:integer" dictRef="g:atomicType">0</scalar><scalar dataType="xsd:integer" dictRef="compchem:atomicNumber">6</scalar></atom><atom id="a8" elementType="H" x3="-0.731863" y3="-2.140609" z3="-0.017464"><scalar dataType="xsd:integer" dictRef="cc:serial">8</scalar><scalar dataType="xsd:integer" dictRef="g:atomicType">0</scalar><scalar dataType="xsd:integer" dictRef="compchem:atomicNumber">1</scalar></atom><atom id="a9" elementType="H" x3="1.733497" y3="-2.143345" z3="0.001691"><scalar dataType="xsd:integer" dictRef="cc:serial">9</scalar><scalar dataType="xsd:integer" dictRef="g:atomicType">0</scalar><scalar dataType="xsd:integer" dictRef="compchem:atomicNumber">1</scalar></atom><atom id="a10" elementType="H" x3="2.982325" y3="-2.9E-4" z3="0.01381"><scalar dataType="xsd:integer" dictRef="cc:serial">10</scalar><scalar dataType="xsd:integer" dictRef="g:atomicType">0</scalar><scalar dataType="xsd:integer" dictRef="compchem:atomicNumber">1</scalar></atom><atom id="a11" elementType="H" x3="1.734029" y3="2.143053" z3="0.001698"><scalar dataType="xsd:integer" dictRef="cc:serial">11</scalar><scalar dataType="xsd:integer" dictRef="g:atomicType">0</scalar><scalar dataType="xsd:integer" dictRef="compchem:atomicNumber">1</scalar></atom><atom id="a12" elementType="H" x3="-0.731395" y3="2.140853" z3="-0.017466"><scalar dataType="xsd:integer" dictRef="cc:serial">12</scalar><scalar dataType="xsd:integer" dictRef="g:atomicType">0</scalar><scalar dataType="xsd:integer" dictRef="compchem:atomicNumber">1</scalar></atom><atom id="a13" elementType="H" x3="-2.797688" y3="-0.012252" z3="1.036857"><scalar dataType="xsd:integer" dictRef="cc:serial">13</scalar><scalar dataType="xsd:integer" dictRef="g:atomicType">0</scalar><scalar dataType="xsd:integer" dictRef="compchem:atomicNumber">1</scalar></atom><atom id="a14" elementType="H" x3="-2.824946" y3="-0.878025" z3="-0.497846"><scalar dataType="xsd:integer" dictRef="cc:serial">14</scalar><scalar dataType="xsd:integer" dictRef="g:atomicType">0</scalar><scalar dataType="xsd:integer" dictRef="compchem:atomicNumber">1</scalar></atom><atom id="a15" elementType="H" x3="-2.824741" y3="0.890003" z3="-0.476854"><scalar dataType="xsd:integer" dictRef="cc:serial">15</scalar><scalar dataType="xsd:integer" dictRef="g:atomicType">0</scalar><scalar dataType="xsd:integer" dictRef="compchem:atomicNumber">1</scalar></atom></atomArray><formula formalCharge="0" concise="C 7 H 8"><atomArray elementType="C H" count="7.0 8.0"/></formula><bondArray><bond atomRefs2="a1 a2" id="a1_a2" order="2"/><bond atomRefs2="a1 a6" id="a1_a6" order="S"/><bond atomRefs2="a1 a7" id="a1_a7" order="S"/><bond atomRefs2="a2 a3" id="a2_a3" order="S"/><bond atomRefs2="a2 a8" id="a2_a8" order="S"/><bond atomRefs2="a3 a4" id="a3_a4" order="2"/><bond atomRefs2="a3 a9" id="a3_a9" order="S"/><bond atomRefs2="a4 a5" id="a4_a5" order="S"/><bond atomRefs2="a4 a10" id="a4_a10" order="S"/><bond atomRefs2="a5 a6" id="a5_a6" order="2"/><bond atomRefs2="a5 a11" id="a5_a11" order="S"/><bond atomRefs2="a6 a12" id="a6_a12" order="S"/><bond atomRefs2="a7 a13" id="a7_a13" order="S"/><bond atomRefs2="a7 a14" id="a7_a14" order="S"/><bond atomRefs2="a7 a15" id="a7_a15" order="S"/></bondArray><property dictRef="cml:molmass"><scalar dataType="xsd:double" units="unit:dalton" xmlns:unit="http://www.xml-cml.org/unit/si/">92.13842</scalar></property></molecule></module><module cmlx:lineCount="1" cmlx:templateRef="l202.rotconst"><array dataType="xsd:double" size="3" dictRef="cc:rotconst" cmlx:templateRef="rotconst">5.57179 2.5247611 1.756404</array></module><scalar dataType="xsd:integer" dictRef="g:buffer" cmlx:templateRef="buffer">131072</scalar><scalar dataType="xsd:string" dictRef="g:raffenetti" cmlx:templateRef="raff">Raffenetti</scalar><scalar dataType="xsd:string" dictRef="g:twoe" cmlx:templateRef="twoe">Two-electron</scalar><module cmlx:lineCount="12" cmlx:templateRef="l301.basis"><scalar dataType="xsd:string" dictRef="cc:basis">6-311+G(d,p)</scalar><scalar dataType="xsd:string" dictRef="cc:diffuse">(5D, 7F)</scalar><list cmlx:lineCount="1" cmlx:templateRef="symmadapt"><array dataType="xsd:integer" dictRef="cc:adapted" size="1">202</array><array dataType="xsd:string" dictRef="cc:symm" size="1">A</array></list><scalar dataType="xsd:integer" dictRef="cc:basiscount">202</scalar><scalar dataType="xsd:integer" dictRef="g:primbasis">316</scalar><scalar dataType="xsd:integer" dictRef="cc:cartesianbasis">209</scalar><scalar dataType="xsd:integer" dictRef="cc:alphae">25</scalar><scalar dataType="xsd:integer" dictRef="cc:betae">25</scalar> IExCor= 402 DFT=T Ex=B+HF Corr=LYP ExCW=0 ScaHFX=  0.200000 ScaDFX=  0.800000  0.720000  1.000000  0.810000 IRadAn=      0 IRanWt=     -1 IRanGd=            0 ICorTp=0 NAtoms=   15 NActive=   15 NUniq=   15 SFac= 1.00D+00 NAtFMM=   60 Big=F</module> NPDir=0 NMtPBC=     1 NCelOv=     1 NCel=       1 NClECP=     1 NCelD=      1         NCelK=      1 NCelE2=     1 NClLst=     1 CellRange=     0.0.<module cmlx:lineCount="1" cmlx:templateRef="l302.basis"><list cmlx:templateRef="onee"><scalar dataType="xsd:string" dictRef="g:onee">One-electron integrals</scalar></list></module> NBasis=   202 RedAO= T  NBF=   202 NBsUse=   202 1.00D-06 NBFU=   202 Precomputing XC quadrature grid using IXCGrd= 2 IRadAn=           0 IRanWt=          -1 IRanGd=           0. NRdTot=     965 NPtTot=      122250 NUsed=      129066 NTot=      129098 NSgBfM=   209   209   209   209.<module cmlx:lineCount="1" cmlx:templateRef="l303.basis"><list cmlx:templateRef="l303"><scalar dataType="xsd:integer" dictRef="g:dipdrv">1</scalar></list></module> Harris functional with IExCor=  402 diagonalized for initial guess. ExpMin= 4.38D-02 ExpMax= 4.56D+03 ExpMxC= 6.82D+02 IAcc=2 IRadAn=         4 AccDes= 0.00D+00 HarFok:  IExCor= 402 AccDes= 0.00D+00 IRadAn=         4 IDoV=1 ScaDFX=  1.000000  1.000000  1.000000  1.000000 Harris En= -271.783832265379     Initial guess orbital symmetries:       Occupied  (A) (A) (A) (A) (A) (A) (A) (A) (A) (A) (A) (A)                 (A) (A) (A) (A) (A) (A) (A) (A) (A) (A) (A) (A)                 (A)       Virtual   (A) (A) (A) (A) (A) (A) (A) (A) (A) (A) (A) (A)                 (A) (A) (A) (A) (A) (A) (A) (A) (A) (A) (A) (A)                 (A) (A) (A) (A) (A) (A) (A) (A) (A) (A) (A) (A)                 (A) (A) (A) (A) (A) (A) (A) (A) (A) (A) (A) (A)                 (A) (A) (A) (A) (A) (A) (A) (A) (A) (A) (A) (A)                 (A) (A) (A) (A) (A) (A) (A) (A) (A) (A) (A) (A)                 (A) (A) (A) (A) (A) (A) (A) (A) (A) (A) (A) (A)                 (A) (A) (A) (A) (A) (A) (A) (A) (A) (A) (A) (A)                 (A) (A) (A) (A) (A) (A) (A) (A) (A) (A) (A) (A)                 (A) (A) (A) (A) (A) (A) (A) (A) (A) (A) (A) (A)                 (A) (A) (A) (A) (A) (A) (A) (A) (A) (A) (A) (A)                 (A) (A) (A) (A) (A) (A) (A) (A) (A) (A) (A) (A)                 (A) (A) (A) (A) (A) (A) (A) (A) (A) (A) (A) (A)                 (A) (A) (A) (A) (A) (A) (A) (A) (A) (A) (A) (A)                 (A) (A) (A) (A) (A) (A) (A) (A) (A) The electronic state of the initial guess is 1-A.<module cmlx:lineCount="189" cmlx:templateRef="l502"><list cmlx:templateRef="l502.type"><scalar dataType="xsd:string" dictRef="g:l502.type">Closed</scalar></list> Requested convergence on RMS density matrix=1.00D-08 within 128 cycles. Requested convergence on MAX density matrix=1.00D-06. Requested convergence on             energy=1.00D-06. No special actions if energy rises. Using DIIS extrapolation, IDIIS=  1040. Integral symmetry usage will be decided dynamically.       129065 words used for storage of precomputed grid. IEnd=    301557 IEndB=    301557 NGot=   6291456 MDV=   6050430 LenX=   6050430 Fock matrices will be formed incrementally for  20 cycles.<module cmlx:lineCount="172" cmlx:templateRef="l502.cycle"><list cmlx:templateRef="cycle"><list><scalar dataType="xsd:integer" dictRef="cc:cycle">1</scalar><scalar dataType="xsd:integer" dictRef="g:pass">1</scalar><scalar dataType="xsd:integer" dictRef="g:idiag">1</scalar></list></list><module cmlx:lineCount="1" cmlx:templateRef="l502.e"><list cmlx:templateRef="l502.e"><scalar dataType="xsd:double" dictRef="g:l502.e">-271.351887903471</scalar></list></module> Cycle   2  Pass 1  IDiag  1:<module cmlx:lineCount="1" cmlx:templateRef="l502.ediff"><list cmlx:templateRef="l502.ediff"><list><scalar dataType="xsd:double" dictRef="g:l502.e">-271.472665476998</scalar><scalar dataType="xsd:double" dictRef="g:l502.deltae">-0.120777573527</scalar></list></list></module> Cycle   3  Pass 1  IDiag  1:<module cmlx:lineCount="1" cmlx:templateRef="l502.ediff"><list cmlx:templateRef="l502.ediff"><list><scalar dataType="xsd:double" dictRef="g:l502.e">-271.634932433436</scalar><scalar dataType="xsd:double" dictRef="g:l502.deltae">-0.162266956439</scalar></list></list></module> Cycle   4  Pass 1  IDiag  1:<module cmlx:lineCount="1" cmlx:templateRef="l502.ediff"><list cmlx:templateRef="l502.ediff"><list><scalar dataType="xsd:double" dictRef="g:l502.e">-271.637985543289</scalar><scalar dataType="xsd:double" dictRef="g:l502.deltae">-0.003053109853</scalar></list></list></module> Cycle   5  Pass 1  IDiag  1:<module cmlx:lineCount="1" cmlx:templateRef="l502.ediff"><list cmlx:templateRef="l502.ediff"><list><scalar dataType="xsd:double" dictRef="g:l502.e">-271.638616927061</scalar><scalar dataType="xsd:double" dictRef="g:l502.deltae">-6.31383772E-4</scalar></list></list></module> Cycle   6  Pass 1  IDiag  1:<module cmlx:lineCount="1" cmlx:templateRef="l502.ediff"><list cmlx:templateRef="l502.ediff"><list><scalar dataType="xsd:double" dictRef="g:l502.e">-271.638739063474</scalar><scalar dataType="xsd:double" dictRef="g:l502.deltae">-1.22136413E-4</scalar></list></list></module> Cycle   7  Pass 1  IDiag  1:                    CP:  7.22D-01<module cmlx:lineCount="1" cmlx:templateRef="l502.ediff"><list cmlx:templateRef="l502.ediff"><list><scalar dataType="xsd:double" dictRef="g:l502.e">-271.638755564032</scalar><scalar dataType="xsd:double" dictRef="g:l502.deltae">-1.6500558E-5</scalar></list></list></module> Cycle   8  Pass 1  IDiag  1:                    CP:  7.06D-01  1.05D+00<module cmlx:lineCount="1" cmlx:templateRef="l502.ediff"><list cmlx:templateRef="l502.ediff"><list><scalar dataType="xsd:double" dictRef="g:l502.e">-271.638755679558</scalar><scalar dataType="xsd:double" dictRef="g:l502.deltae">-1.15526E-7</scalar></list></list></module> Cycle   9  Pass 1  IDiag  1:                    CP:  7.13D-01  1.06D+00  8.91D-01<module cmlx:lineCount="1" cmlx:templateRef="l502.ediff"><list cmlx:templateRef="l502.ediff"><list><scalar dataType="xsd:double" dictRef="g:l502.e">-271.638755705639</scalar><scalar dataType="xsd:double" dictRef="g:l502.deltae">-2.608E-8</scalar></list></list></module> Cycle  10  Pass 1  IDiag  1:                    CP:  7.14D-01  1.05D+00  8.68D-01  8.60D-01<module cmlx:lineCount="1" cmlx:templateRef="l502.ediff"><list cmlx:templateRef="l502.ediff"><list><scalar dataType="xsd:double" dictRef="g:l502.e">-271.638755706712</scalar><scalar dataType="xsd:double" dictRef="g:l502.deltae">-1.074E-9</scalar></list></list></module> Cycle  11  Pass 1  IDiag  1:                    CP:  7.13D-01  1.06D+00  8.81D-01  8.71D-01  8.66D-01<module cmlx:lineCount="1" cmlx:templateRef="l502.ediff"><list cmlx:templateRef="l502.ediff"><list><scalar dataType="xsd:double" dictRef="g:l502.e">-271.638755706734</scalar><scalar dataType="xsd:double" dictRef="g:l502.deltae">-2.2E-11</scalar></list></list></module> Cycle  12  Pass 1  IDiag  1:                    CP:  7.13D-01  1.06D+00  8.82D-01  8.76D-01  8.74D-01                    CP:  8.18D-01<module cmlx:lineCount="1" cmlx:templateRef="l502.ediff"><list cmlx:templateRef="l502.ediff"><list><scalar dataType="xsd:double" dictRef="g:l502.e">-271.638755706728</scalar><scalar dataType="xsd:double" dictRef="g:l502.deltae">6.0E-12</scalar></list></list></module> RMSDP=4.82D-09 MaxDP=1.77D-07 DE= 6.48D-12 OVMax= 2.52D-07</module><module cmlx:lineCount="4" cmlx:templateRef="l502.footer"><list cmlx:templateRef="l502"><scalar dataType="xsd:string" dictRef="g:l502">SCF Done:  E(RB+HF-LYP) =  -271.638755707     A.U. after   12 cycles</scalar><scalar dataType="xsd:string" dictRef="g:l502">Convg  =    0.4820D-08             -V/T =  2.0046</scalar><scalar dataType="xsd:string" dictRef="g:l502">S**2   =   0.0000</scalar><scalar dataType="xsd:string" dictRef="g:l502">KE= 2.703895691388D+02 PE=-1.168579154050D+03 EE= 3.570202403265D+02</scalar></list></module></module> Copying SCF densities to generalized density rwf, ISCF=0 IROHF=0.<module cmlx:lineCount="172" cmlx:templateRef="l601.popanal"> Orbital symmetries:<module cmlx:lineCount="3" cmlx:templateRef="l4601.occupied"><list cmlx:templateRef="occ"><scalar dataType="xsd:string" dictRef="g:occorbs">(A) (A) (A) (A) (A) (A) (A) (A) (A) (A) (A) (A)</scalar></list><list cmlx:templateRef="occ"><scalar dataType="xsd:string" dictRef="g:occorbs">(A) (A) (A) (A) (A) (A) (A) (A) (A) (A) (A) (A)</scalar><scalar dataType="xsd:string" dictRef="g:occorbs">(A)</scalar></list></module><module cmlx:lineCount="15" cmlx:templateRef="l4601.virtual"><list cmlx:templateRef="virt"><scalar dataType="xsd:string" dictRef="g:virtorbs">(A) (A) (A) (A) (A) (A) (A) (A) (A) (A) (A) (A)</scalar></list><list cmlx:templateRef="virt"><scalar dataType="xsd:string" dictRef="g:virtorbs">(A) (A) (A) (A) (A) (A) (A) (A) (A) (A) (A) (A)</scalar><scalar dataType="xsd:string" dictRef="g:virtorbs">(A) (A) (A) (A) (A) (A) (A) (A) (A) (A) (A) (A)</scalar><scalar dataType="xsd:string" dictRef="g:virtorbs">(A) (A) (A) (A) (A) (A) (A) (A) (A) (A) (A) (A)</scalar><scalar dataType="xsd:string" dictRef="g:virtorbs">(A) (A) (A) (A) (A) (A) (A) (A) (A) (A) (A) (A)</scalar><scalar dataType="xsd:string" dictRef="g:virtorbs">(A) (A) (A) (A) (A) (A) (A) (A) (A) (A) (A) (A)</scalar><scalar dataType="xsd:string" dictRef="g:virtorbs">(A) (A) (A) (A) (A) (A) (A) (A) (A) (A) (A) (A)</scalar><scalar dataType="xsd:string" dictRef="g:virtorbs">(A) (A) (A) (A) (A) (A) (A) (A) (A) (A) (A) (A)</scalar><scalar dataType="xsd:string" dictRef="g:virtorbs">(A) (A) (A) (A) (A) (A) (A) (A) (A) (A) (A) (A)</scalar><scalar dataType="xsd:string" dictRef="g:virtorbs">(A) (A) (A) (A) (A) (A) (A) (A) (A) (A) (A) (A)</scalar><scalar dataType="xsd:string" dictRef="g:virtorbs">(A) (A) (A) (A) (A) (A) (A) (A) (A) (A) (A) (A)</scalar><scalar dataType="xsd:string" dictRef="g:virtorbs">(A) (A) (A) (A) (A) (A) (A) (A) (A) (A) (A) (A)</scalar><scalar dataType="xsd:string" dictRef="g:virtorbs">(A) (A) (A) (A) (A) (A) (A) (A) (A) (A) (A) (A)</scalar><scalar dataType="xsd:string" dictRef="g:virtorbs">(A) (A) (A) (A) (A) (A) (A) (A) (A) (A) (A) (A)</scalar><scalar dataType="xsd:string" dictRef="g:virtorbs">(A) (A) (A) (A) (A) (A) (A) (A) (A)</scalar></list></module><module cmlx:lineCount="1" cmlx:templateRef="l601.state"><scalar dataType="xsd:string" dictRef="g:l601.state">1-A.</scalar></module><array dataType="xsd:double" size="25" dictRef="g:alphaocc">-10.1842 -10.1746 -10.17454 -10.17233 -10.17199 -10.17197 -10.16936 -0.86175 -0.77589 -0.7486 -0.68918 -0.60875 -0.58789 -0.51578 -0.4652 -0.45693 -0.4243 -0.42371 -0.41273 -0.38933 -0.36024 -0.34643 -0.34322 -0.25711 -0.24798</array><array dataType="xsd:double" size="177" dictRef="g:alphavirt">-0.01526 -0.01296 0.00351 0.01729 0.02253 0.04044 0.04659 0.04752 0.06035 0.06744 0.07756 0.07867 0.08674 0.09792 0.11673 0.12382 0.12818 0.13137 0.1358 0.14545 0.15687 0.15799 0.17392 0.17575 0.18067 0.18367 0.19535 0.20309 0.20803 0.21123 0.21494 0.22302 0.23569 0.23909 0.24466 0.24873 0.25825 0.25961 0.27303 0.30644 0.32736 0.32795 0.33997 0.34101 0.41252 0.44945 0.46393 0.49837 0.50558 0.52926 0.53813 0.54043 0.54196 0.56518 0.57304 0.57794 0.60008 0.62097 0.6318 0.63957 0.64444 0.64502 0.67631 0.68859 0.69839 0.69917 0.72655 0.74022 0.74976 0.78719 0.82618 0.82892 0.83258 0.85631 0.86038 0.86723 0.89165 0.91894 0.95245 0.98132 1.01354 1.01813 1.03818 1.06536 1.08422 1.13165 1.14228 1.30565 1.34789 1.36207 1.37933 1.46489 1.48345 1.51405 1.51744 1.52825 1.56321 1.56754 1.5748 1.59926 1.6086 1.62955 1.65218 1.68074 1.69167 1.71614 1.73852 1.77612 1.79978 1.82858 1.84066 1.87801 1.92501 1.92974 1.93995 1.94502 1.95757 2.00148 2.01476 2.05201 2.05534 2.08426 2.16563 2.22245 2.23395 2.33166 2.36805 2.37938 2.3951 2.40323 2.42106 2.43833 2.54305 2.54521 2.58882 2.59395 2.63917 2.66627 2.67047 2.70026 2.70746 2.72115 2.74961 2.75914 2.77318 2.80475 2.82671 2.84287 2.89686 2.89923 2.93095 2.93938 2.95181 3.09365 3.15959 3.21606 3.35026 3.38097 3.49464 3.52219 3.62698 3.68437 3.80495 3.82309 3.98592 4.04015 4.14333 4.1491 4.33421 4.85094 23.58712 23.92138 23.96574 23.98395 24.09305 24.10879 24.20879</array><module cmlx:lineCount="41" cmlx:templateRef="l601.alphabetaeigen"/><module cmlx:lineCount="48" cmlx:templateRef="l601.condensed"><array dataType="xsd:double" size="15" dictRef="x:floatArr">6.669251 -0.399004 0.37206 -0.544231 0.371355 -0.40393 -0.778189 -0.026375 0.012933 0.025639 0.013182 -0.026058 0.068868 -0.123344 -0.124899</array><array dataType="xsd:double" size="15" dictRef="x:floatArr">-0.399004 6.833366 0.07784 0.23069 -0.466331 -0.183277 0.12608 0.332106 -0.030668 -0.02725 -0.007345 -0.009616 -0.041541 0.130525 -0.087541</array><array dataType="xsd:double" size="15" dictRef="x:floatArr">0.37206 0.07784 5.3572 0.289687 0.278086 -0.468241 -0.230618 0.006497 0.375411 0.002558 -0.007424 -0.001895 0.006746 0.026336 -0.005133</array><array dataType="xsd:double" size="15" dictRef="x:floatArr">-0.544231 0.23069 0.289687 5.173891 0.290109 0.230941 0.137381 -0.002307 -0.003795 0.372542 -0.003973 -0.002325 -0.00655 9.72E-4 8.91E-4</array><array dataType="xsd:double" size="15" dictRef="x:floatArr">0.371355 -0.466331 0.278086 0.290109 5.354896 0.077418 -0.227949 -0.00196 -0.00734 0.002805 0.375015 0.0074 0.006803 -0.0052 0.026615</array><array dataType="xsd:double" size="15" dictRef="x:floatArr">-0.40393 -0.183277 -0.468241 0.230941 0.077418 6.839729 0.135109 -0.009455 -0.007489 -0.027127 -0.030389 0.331231 -0.040979 -0.087399 0.130831</array><array dataType="xsd:double" size="15" dictRef="x:floatArr">-0.778189 0.12608 -0.230618 0.137381 -0.227949 0.135109 6.177263 0.041965 0.007759 7.58E-4 0.007751 0.041647 0.361059 0.423426 0.424917</array><array dataType="xsd:double" size="15" dictRef="x:floatArr">-0.026375 0.332106 0.006497 -0.002307 -0.00196 -0.009455 0.041965 0.550899 -0.008394 -2.65E-4 7.9E-5 -2.95E-4 3.72E-4 0.001006 2.31E-4</array><array dataType="xsd:double" size="15" dictRef="x:floatArr">0.012933 -0.030668 0.375411 -0.003795 -0.00734 -0.007489 0.007759 -0.008394 0.54663 -0.00818 -2.88E-4 7.8E-5 8.0E-6 -1.6E-5 1.5E-5</array><array dataType="xsd:double" size="15" dictRef="x:floatArr">0.025639 -0.02725 0.002558 0.372542 0.002805 -0.027127 7.58E-4 -2.65E-4 -0.00818 0.544145 -0.008185 -2.65E-4 0.0 -1.0E-6 -1.0E-6</array><array dataType="xsd:double" size="15" dictRef="x:floatArr">0.013182 -0.007345 -0.007424 -0.003973 0.375015 -0.030389 0.007751 7.9E-5 -2.88E-4 -0.008185 0.546645 -0.008392 8.0E-6 1.5E-5 -1.7E-5</array><array dataType="xsd:double" size="15" dictRef="x:floatArr">-0.026058 -0.009616 -0.001895 -0.002325 0.0074 0.331231 0.041647 -2.95E-4 7.8E-5 -2.65E-4 -0.008392 0.551094 3.65E-4 2.3E-4 0.001083</array><array dataType="xsd:double" size="15" dictRef="x:floatArr">0.068868 -0.041541 0.006746 -0.00655 0.006803 -0.040979 0.361059 3.72E-4 8.0E-6 0.0 8.0E-6 3.65E-4 0.536169 -0.028641 -0.02833</array><array dataType="xsd:double" size="15" dictRef="x:floatArr">-0.123344 0.130525 0.026336 9.72E-4 -0.0052 -0.087399 0.423426 0.001006 -1.6E-5 -1.0E-6 1.5E-5 2.3E-4 -0.028641 0.551225 -0.028602</array><array dataType="xsd:double" size="12" dictRef="x:floatArr">-0.124899 -0.087541 -0.005133 8.91E-4 0.026615 0.130831 0.424917 2.31E-4 1.5E-5 -1.0E-6 -1.7E-5 0.001083</array></module><list cmlx:templateRef="popanal"><scalar dataType="xsd:string" dictRef="x:popanal">15  H   -0.028330  -0.028602   0.550761</scalar></list><module cmlx:lineCount="38" cmlx:templateRef="mulliken"><module cmlx:lineCount="18" cmlx:templateRef="l601.mullik"><scalar dataType="xsd:string" dictRef="g:title">Mulliken atomic charges:</scalar><scalar dataType="xsd:integer" dictRef="cc:serial">1</scalar><list cmlx:lineCount="15" cmlx:templateRef="row"><array dataType="xsd:integer" dictRef="cc:serial" size="15">1 2 3 4 5 6 7 8 9 10 11 12 13 14 15</array><array dataType="xsd:string" dictRef="cc:elementType" size="15">C C C C C C C H H H H H H H H</array><array dataType="xsd:double" dictRef="x:charge" size="15">0.892743 -0.478035 -0.079109 -0.163923 -0.081723 -0.486974 -0.64836 0.115894 0.123335 0.122827 0.123318 0.115719 0.165642 0.139468 0.139178</array></list><scalar dataType="xsd:string" dictRef="x:type">Mulliken</scalar><scalar dataType="xsd:double" dictRef="x:charge.sum">0.0</scalar></module><module cmlx:lineCount="18" cmlx:templateRef="l601.mullik"><scalar dataType="xsd:string" dictRef="g:title">Atomic charges with hydrogens summed into heavy atoms:</scalar><scalar dataType="xsd:integer" dictRef="cc:serial">1</scalar><list cmlx:lineCount="15" cmlx:templateRef="row"><array dataType="xsd:integer" dictRef="cc:serial" size="15">1 2 3 4 5 6 7 8 9 10 11 12 13 14 15</array><array dataType="xsd:string" dictRef="cc:elementType" size="15">C C C C C C C H H H H H H H H</array><array dataType="xsd:double" dictRef="x:charge" size="15">0.892743 -0.362141 0.044226 -0.041096 0.041596 -0.371256 -0.204071 0.0 0.0 0.0 0.0 0.0 0.0 0.0 0.0</array></list><scalar dataType="xsd:string" dictRef="x:type">Mulliken</scalar><scalar dataType="xsd:double" dictRef="x:charge.sum">0.0</scalar></module><scalar dataType="xsd:double" dictRef="g:electextent2">717.7257</scalar> Charge=     0.0000 electrons</module><module cmlx:lineCount="18" cmlx:templateRef="multipole"><array dataType="xsd:double" size="3" dictRef="cc:dipole">-0.401 -0.0017 0.0356</array><scalar dataType="xsd:double" dictRef="x:dipole">0.4026</scalar><array dataType="xsd:double" size="3" dictRef="cc:quadrupole">-38.7192 -39.1182 -46.5298</array><array dataType="xsd:double" size="3" dictRef="cc:quadrupole">0.0027 -0.0357 1.0E-4</array><array dataType="xsd:double" size="6" dictRef="cc:quadrupole">2.7365 2.3375 -5.0741 0.0027 -0.0357 1.0E-4</array><array dataType="xsd:double" size="10" dictRef="cc:octapole">4.0307 0.0166 0.7137 0.9475 -0.0062 0.1265 -4.0174 -0.0232 -0.638 -6.0E-4</array><array dataType="xsd:double" size="15" dictRef="cc:hexadecapole">-617.4623 -291.5749 -63.0769 0.0026 0.226 -0.0535 7.0E-4 -1.9716 -0.0013 -148.5311 -122.2242 -69.743 0.0025 1.8078 0.0656</array></module></module><module cmlx:lineCount="2" cmlx:templateRef="l601.nonmr"> Leave Link  601 at Thu Aug 31 00:05:29 2006, MaxMem=    6291456 cpu:       1.2</module><module cmlx:lineCount="1" cmlx:templateRef="l701"/> ... and contract with generalized density number  0.<module cmlx:lineCount="1" cmlx:templateRef="l702"/><module cmlx:lineCount="1" cmlx:templateRef="l701"/> Integral derivatives from FoFDir, PRISM(SPDF). Symmetry not used in FoFDir. MinBra= 0 MaxBra= 2 Meth= 1. IRaf=       0 NMat=   1 IRICut=       1 DoRegI=T DoRafI=F ISym2E= 0 JSym2E=0.<module cmlx:lineCount="2" cmlx:templateRef="l716.dipole"><array dataType="xsd:double" size="3" dictRef="x:d" cmlx:templateRef="dipole">-0.157769447 -6.59053001E-4 0.0139969123</array> ***** Axes restored to original set *****</module> ------------------------------------------------------------------- Center     Atomic                   Forces (Hartrees/Bohr) Number     Number              X              Y              Z -------------------------------------------------------------------    1          6          -0.001624433    0.000026729   -0.000965213    2          6          -0.002460866   -0.000018255    0.001120636    3          6           0.000049202    0.000061224    0.002944870    4          6           0.002559359   -0.000068203    0.001536193    5          6           0.002616371    0.000048156   -0.001354114    6          6          -0.000166530   -0.000026336   -0.002700092    7          6          -0.001172920    0.000071025   -0.000698926    8          1          -0.000109680   -0.000022404    0.000117830    9          1          -0.000020423   -0.000004119    0.000147668   10          1           0.000131497    0.000008968    0.000078534   11          1           0.000120697   -0.000004992   -0.000087007   12          1           0.000051239   -0.000023913   -0.000152383   13          1           0.000049202    0.000129008    0.000028380   14          1          -0.000064988   -0.000089242    0.000082708   15          1           0.000042271   -0.000087647   -0.000099085 ------------------------------------------------------------------- Cartesian Forces:  Max     0.002944870 RMS     0.001016803<module cmlx:lineCount="103" cmlx:templateRef="l103"><list cmlx:templateRef="berny"><scalar dataType="xsd:string" dictRef="g:optimization">Internal  Forces:  Max     0.003181219 RMS     0.000914109</scalar></list> Search for a local minimum. Step number   1 out of a maximum of  79 All quantities printed in internal units (Hartrees-Bohrs-Radians) Second derivative matrix not updated -- first step.     Eigenvalues ---    0.00660   0.01535   0.02147   0.02173   0.02179     Eigenvalues ---    0.02199   0.02212   0.02213   0.02213   0.02214     Eigenvalues ---    0.07064   0.07159   0.16000   0.16000   0.16000     Eigenvalues ---    0.16000   0.16000   0.16000   0.16000   0.16000     Eigenvalues ---    0.22000   0.22000   0.23470   0.24994   0.31555     Eigenvalues ---    0.34176   0.34529   0.34537   0.35340   0.35342     Eigenvalues ---    0.35461   0.35461   0.35513   0.42483   0.42545     Eigenvalues ---    0.46439   0.46762   0.47208   0.472391000.00000     Eigenvalues --- 1000.000001000.000001000.000001000.000001000.00000     Eigenvalues --- 1000.000001000.000001000.000001000.000001000.00000     Eigenvalues --- 1000.000001000.000001000.000001000.000001000.00000     Eigenvalues --- 1000.000001000.000001000.000001000.000001000.00000     Eigenvalues --- 1000.000001000.000001000.000001000.000001000.00000     Eigenvalues --- 1000.000001000.000001000.000001000.00000<module cmlx:lineCount="4" cmlx:templateRef="rfo"><list cmlx:templateRef="rfo"><scalar dataType="xsd:double" dictRef="g:lambda">-1.25284114E-4</scalar></list><list cmlx:templateRef="nolinear"><scalar dataType="xsd:string" dictRef="g:linear">Linear search</scalar></list><list cmlx:lineCount="2" cmlx:templateRef="iteration"><array dataType="xsd:integer" dictRef="cc:serial" size="2">1 2</array><array dataType="xsd:double" dictRef="g:rmscart" size="2">0.00360675 6.3E-7</array><array dataType="xsd:double" dictRef="g:rmsint" size="2">6.7E-7 7.0E-8</array></list></module><module cmlx:lineCount="71" cmlx:templateRef="l103.deltas"><list cmlx:lineCount="69" cmlx:templateRef="delta"><array dataType="xsd:string" dictRef="cc:variable" size="69">R1 R2 R3 R4 R5 R6 R7 R8 R9 R10 R11 R12 R13 R14 R15 A1 A2 A3 A4 A5 A6 A7 A8 A9 A10 A11 A12 A13 A14 A15 A16 A17 A18 A19 A20 A21 A22 A23 A24 D1 D2 D3 D4 D5 D6 D7 D8 D9 D10 D11 D12 D13 D14 D15 D16 D17 D18 D19 D20 D21 D22 D23 D24 D25 D26 D27 D28 D29 D30</array><array dataType="xsd:double" dictRef="g:lastval" size="69">2.63876 2.63854 2.84966 2.62749 2.05126 2.62811 2.04933 2.6279 2.0485 2.6277 2.04933 2.05124 2.07035 2.06447 2.06434 2.06299 2.10981 2.11021 2.11206 2.08344 2.08768 2.0974 2.09055 2.09523 2.08443 2.09935 2.09939 2.09739 2.09528 2.09051 2.11208 2.08343 2.08767 1.93803 1.94544 1.94542 1.87273 1.87304 1.88582 0.00473 -3.13448 -3.11675 0.02722 -0.00473 3.13448 3.11674 -0.02723 1.54843 -0.53862 -2.64734 -1.57251 2.62363 0.51491 -0.00144 -3.13937 3.13776 -1.7E-4 -0.00196 -3.13832 3.13596 -4.0E-4 0.00196 -3.13597 3.13832 4.0E-4 0.00145 -3.13776 3.13938 1.7E-4</array><array dataType="xsd:double" dictRef="cc:deriv" size="69">0.00293 0.00294 0.00134 0.00318 1.5E-4 0.00301 1.5E-4 0.00301 1.5E-4 0.00318 1.5E-4 1.5E-4 1.0E-4 1.3E-4 1.3E-4 -1.4E-4 7.0E-5 7.0E-5 1.1E-4 0.0 -1.0E-4 1.0E-5 -2.0E-5 1.0E-5 -1.0E-4 5.0E-5 5.0E-5 1.0E-5 1.0E-5 -2.0E-5 1.1E-4 0.0 -1.0E-4 -1.2E-4 -3.0E-5 -3.0E-5 8.0E-5 8.0E-5 2.0E-5 1.0E-5 1.0E-5 1.0E-5 1.0E-5 -1.0E-5 -1.0E-5 -1.0E-5 -1.0E-5 0.0 0.0 0.0 0.0 0.0 0.0 -1.0E-5 0.0 -1.0E-5 0.0 1.0E-5 0.0 0.0 -1.0E-5 -1.0E-5 0.0 0.0 1.0E-5 1.0E-5 1.0E-5 0.0 0.0</array><array dataType="xsd:double" dictRef="cc:delta.linear" size="69">0.0 0.0 0.0 0.0 0.0 0.0 0.0 0.0 0.0 0.0 0.0 0.0 0.0 0.0 0.0 0.0 0.0 0.0 0.0 0.0 0.0 0.0 0.0 0.0 0.0 0.0 0.0 0.0 0.0 0.0 0.0 0.0 0.0 0.0 0.0 0.0 0.0 0.0 0.0 0.0 0.0 0.0 0.0 0.0 0.0 0.0 0.0 0.0 0.0 0.0 0.0 0.0 0.0 0.0 0.0 0.0 0.0 0.0 0.0 0.0 0.0 0.0 0.0 0.0 0.0 0.0 0.0 0.0 0.0</array><array dataType="xsd:double" dictRef="cc:delta.quad" size="69">0.00632 0.00634 0.00423 0.00673 4.3E-4 0.00639 4.2E-4 0.0064 4.3E-4 0.00673 4.2E-4 4.3E-4 3.0E-4 3.8E-4 3.8E-4 -6.6E-4 3.3E-4 3.3E-4 4.3E-4 1.0E-4 -5.3E-4 9.0E-5 -1.6E-4 6.0E-5 -3.9E-4 2.0E-4 1.9E-4 9.0E-5 6.0E-5 -1.5E-4 4.3E-4 9.0E-5 -5.2E-4 -7.1E-4 -1.7E-4 -1.7E-4 5.1E-4 4.9E-4 1.2E-4 5.4E-4 5.5E-4 5.9E-4 6.0E-4 -5.3E-4 -5.6E-4 -5.8E-4 -6.0E-4 7.0E-5 1.0E-5 1.0E-4 1.3E-4 7.0E-5 1.7E-4 -6.2E-4 -6.0E-5 -6.3E-4 -7.0E-5 6.7E-4 7.0E-5 1.1E-4 -4.9E-4 -6.7E-4 -1.1E-4 -6.0E-5 4.9E-4 6.1E-4 6.3E-4 6.0E-5 8.0E-5</array><array dataType="xsd:double" dictRef="cc:delta.total" size="69">0.00632 0.00634 0.00423 0.00673 4.3E-4 0.00639 4.2E-4 0.0064 4.3E-4 0.00673 4.2E-4 4.3E-4 3.0E-4 3.8E-4 3.8E-4 -6.6E-4 3.3E-4 3.3E-4 4.3E-4 1.0E-4 -5.3E-4 9.0E-5 -1.6E-4 6.0E-5 -3.9E-4 2.0E-4 1.9E-4 9.0E-5 6.0E-5 -1.5E-4 4.3E-4 9.0E-5 -5.2E-4 -7.1E-4 -1.7E-4 -1.7E-4 5.1E-4 4.9E-4 1.2E-4 5.4E-4 5.5E-4 5.9E-4 5.9E-4 -5.3E-4 -5.6E-4 -5.8E-4 -6.0E-4 7.0E-5 1.0E-5 1.0E-4 1.3E-4 7.0E-5 1.7E-4 -6.2E-4 -6.0E-5 -6.3E-4 -7.0E-5 6.7E-4 7.0E-5 1.1E-4 -4.9E-4 -6.7E-4 -1.1E-4 -6.0E-5 4.9E-4 6.1E-4 6.3E-4 6.0E-5 8.0E-5</array><array dataType="xsd:double" dictRef="cc:newval" size="69">2.64509 2.64488 2.85389 2.63422 2.0517 2.6345 2.04975 2.6343 2.04893 2.63443 2.04975 2.05167 2.07064 2.06485 2.06472 2.06233 2.11014 2.11054 2.11249 2.08354 2.08715 2.0975 2.09039 2.09529 2.08404 2.09955 2.09958 2.09748 2.09534 2.09036 2.11251 2.08352 2.08715 1.93732 1.94527 1.94524 1.87325 1.87353 1.88594 0.00527 -3.13393 -3.11617 0.02782 -0.00526 3.13392 3.11617 -0.02783 1.5485 -0.53861 -2.64724 -1.57238 2.6237 0.51507 -0.00206 -3.13943 3.13714 -2.4E-4 -0.00129 -3.13825 3.13608 -8.9E-4 0.00129 -3.13608 3.13826 8.9E-4 0.00205 -3.13713 3.13943 2.5E-4</array></list></module><module cmlx:lineCount="5" cmlx:templateRef="l103.itemconverge"><list cmlx:lineCount="4" cmlx:templateRef="row"><array dataType="xsd:string" dictRef="g:item"/><array dataType="xsd:double" dictRef="g:value" size="4">4.5E-4 3.0E-4 0.0018 0.0012</array><array dataType="xsd:double" dictRef="g:threshold" size="4">0.0 0.0 0.0 0.0</array><array dataType="xsd:string" dictRef="g:converged" size="4">NO NO NO NO</array></list></module><module cmlx:lineCount="1" cmlx:templateRef="preddelta"><list cmlx:templateRef="predicted"><scalar dataType="xsd:double" dictRef="g:predchange">-6.265961E-5</scalar></list></module> GradGradGradGradGradGradGradGradGradGradGradGradGradGradGradGradGradGrad</module><module cmlx:lineCount="21" cmlx:templateRef="l202.orient"><molecule id="a15" cmlx:templateRef="atom"><atomArray><atom id="a1" elementType="C" x3="-0.002225" y3="-1.31E-4" z3="-0.001329"><scalar dataType="xsd:integer" dictRef="cc:serial">1</scalar><scalar dataType="xsd:integer" dictRef="g:atomicType">0</scalar><scalar dataType="xsd:integer" dictRef="compchem:atomicNumber">6</scalar></atom><atom id="a2" elementType="C" x3="-0.001765" y3="-2.55E-4" z3="1.398391"><scalar dataType="xsd:integer" dictRef="cc:serial">2</scalar><scalar dataType="xsd:integer" dictRef="g:atomicType">0</scalar><scalar dataType="xsd:integer" dictRef="compchem:atomicNumber">6</scalar></atom><atom id="a3" elementType="C" x3="1.192873" y3="1.79E-4" z3="2.116715"><scalar dataType="xsd:integer" dictRef="cc:serial">3</scalar><scalar dataType="xsd:integer" dictRef="g:atomicType">0</scalar><scalar dataType="xsd:integer" dictRef="compchem:atomicNumber">6</scalar></atom><atom id="a4" elementType="C" x3="2.414497" y3="-0.001734" z3="1.445009"><scalar dataType="xsd:integer" dictRef="cc:serial">4</scalar><scalar dataType="xsd:integer" dictRef="g:atomicType">0</scalar><scalar dataType="xsd:integer" dictRef="compchem:atomicNumber">6</scalar></atom><atom id="a5" elementType="C" x3="2.429163" y3="-0.005642" z3="0.051079"><scalar dataType="xsd:integer" dictRef="cc:serial">5</scalar><scalar dataType="xsd:integer" dictRef="g:atomicType">0</scalar><scalar dataType="xsd:integer" dictRef="compchem:atomicNumber">6</scalar></atom><atom id="a6" elementType="C" x3="1.231451" y3="-0.006058" z3="-0.662323"><scalar dataType="xsd:integer" dictRef="cc:serial">6</scalar><scalar dataType="xsd:integer" dictRef="g:atomicType">0</scalar><scalar dataType="xsd:integer" dictRef="compchem:atomicNumber">6</scalar></atom><atom id="a7" elementType="C" x3="-1.297909" y3="0.032343" z3="-0.776502"><scalar dataType="xsd:integer" dictRef="cc:serial">7</scalar><scalar dataType="xsd:integer" dictRef="g:atomicType">0</scalar><scalar dataType="xsd:integer" dictRef="compchem:atomicNumber">6</scalar></atom><atom id="a8" elementType="H" x3="-0.947679" y3="-0.00296" z3="1.931317"><scalar dataType="xsd:integer" dictRef="cc:serial">8</scalar><scalar dataType="xsd:integer" dictRef="g:atomicType">0</scalar><scalar dataType="xsd:integer" dictRef="compchem:atomicNumber">1</scalar></atom><atom id="a9" elementType="H" x3="1.169257" y3="-0.00196" z3="3.201137"><scalar dataType="xsd:integer" dictRef="cc:serial">9</scalar><scalar dataType="xsd:integer" dictRef="g:atomicType">0</scalar><scalar dataType="xsd:integer" dictRef="compchem:atomicNumber">1</scalar></atom><atom id="a10" elementType="H" x3="3.344842" y3="-0.004526" z3="2.001827"><scalar dataType="xsd:integer" dictRef="cc:serial">10</scalar><scalar dataType="xsd:integer" dictRef="g:atomicType">0</scalar><scalar dataType="xsd:integer" dictRef="compchem:atomicNumber">1</scalar></atom><atom id="a11" elementType="H" x3="3.373659" y3="-0.012336" z3="-0.482224"><scalar dataType="xsd:integer" dictRef="cc:serial">11</scalar><scalar dataType="xsd:integer" dictRef="g:atomicType">0</scalar><scalar dataType="xsd:integer" dictRef="compchem:atomicNumber">1</scalar></atom><atom id="a12" elementType="H" x3="1.254075" y3="-0.01333" z3="-1.747761"><scalar dataType="xsd:integer" dictRef="cc:serial">12</scalar><scalar dataType="xsd:integer" dictRef="g:atomicType">0</scalar><scalar dataType="xsd:integer" dictRef="compchem:atomicNumber">1</scalar></atom><atom id="a13" elementType="H" x3="-1.620938" y3="1.06346" z3="-0.958405"><scalar dataType="xsd:integer" dictRef="cc:serial">13</scalar><scalar dataType="xsd:integer" dictRef="g:atomicType">0</scalar><scalar dataType="xsd:integer" dictRef="compchem:atomicNumber">1</scalar></atom><atom id="a14" elementType="H" x3="-2.101804" y3="-0.469389" z3="-0.232494"><scalar dataType="xsd:integer" dictRef="cc:serial">14</scalar><scalar dataType="xsd:integer" dictRef="g:atomicType">0</scalar><scalar dataType="xsd:integer" dictRef="compchem:atomicNumber">1</scalar></atom><atom id="a15" elementType="H" x3="-1.193511" y3="-0.452823" z3="-1.749894"><scalar dataType="xsd:integer" dictRef="cc:serial">15</scalar><scalar dataType="xsd:integer" dictRef="g:atomicType">0</scalar><scalar dataType="xsd:integer" dictRef="compchem:atomicNumber">1</scalar></atom></atomArray><formula formalCharge="0" concise="C 7 H 8"><atomArray elementType="C H" count="7.0 8.0"/></formula><bondArray><bond atomRefs2="a1 a2" id="a1_a2" order="2"/><bond atomRefs2="a1 a6" id="a1_a6" order="S"/><bond atomRefs2="a1 a7" id="a1_a7" order="S"/><bond atomRefs2="a2 a3" id="a2_a3" order="S"/><bond atomRefs2="a2 a8" id="a2_a8" order="S"/><bond atomRefs2="a3 a4" id="a3_a4" order="2"/><bond atomRefs2="a3 a9" id="a3_a9" order="S"/><bond atomRefs2="a4 a5" id="a4_a5" order="S"/><bond atomRefs2="a4 a10" id="a4_a10" order="S"/><bond atomRefs2="a5 a6" id="a5_a6" order="2"/><bond atomRefs2="a5 a11" id="a5_a11" order="S"/><bond atomRefs2="a6 a12" id="a6_a12" order="S"/><bond atomRefs2="a7 a13" id="a7_a13" order="S"/><bond atomRefs2="a7 a14" id="a7_a14" order="S"/><bond atomRefs2="a7 a15" id="a7_a15" order="S"/></bondArray><property dictRef="cml:molmass"><scalar dataType="xsd:double" units="unit:dalton" xmlns:unit="http://www.xml-cml.org/unit/si/">92.13842</scalar></property></molecule></module><module cmlx:lineCount="34" cmlx:templateRef="l202.distmat"><array dataType="xsd:double" size="105" dictRef="cc:distance">0.0 1.399719 0.0 2.431947 1.393969 0.0 2.816458 2.416712 1.394116 0.0 2.431959 2.779333 2.407343 1.394013 0.0 1.399609 2.401541 2.779313 2.416706 1.394079 0.0 1.510214 2.532037 3.817818 4.326457 3.818036 2.532227 0.0 2.151514 1.085712 2.148568 3.397164 3.865018 3.387563 2.730602 0.0 3.410008 2.149695 1.084681 2.152814 3.392675 3.863963 4.680779 2.468575 0.0 3.900706 3.400578 2.155039 1.084249 2.154968 3.400606 5.410694 4.2931 2.484254 0.0 3.409985 3.863981 3.392708 2.15275 1.084679 2.149775 4.681041 4.94967 4.292626 2.484231 2.151392 3.387562 3.864984 3.39713 2.148654 1.085697 2.730944 4.287591 4.949637 4.29311 2.16043 3.050852 4.301681 4.816199 4.308754 3.060663 1.095737 3.152939 5.120752 5.878992 2.163764 2.700007 4.073595 4.840423 4.563457 3.392642 1.092669 2.496325 4.765307 5.905442 2.163695 3.396583 4.566257 4.840311 4.070287 2.694967 1.092601 3.716736 5.504421 5.905339</array></module><module cmlx:lineCount="6" cmlx:templateRef="l202.stoich"><scalar dataType="xsd:string" dictRef="cc:formula" cmlx:templateRef="stoich">C7H8</scalar><scalar dataType="xsd:string" dictRef="cc:frameworkgroup" cmlx:templateRef="framework">C1[X(C7H8)]</scalar><scalar dataType="xsd:integer" dictRef="cc:degfreedom" cmlx:templateRef="degfreedom">39</scalar><scalar dataType="xsd:string" dictRef="cc:pointgroup">C1</scalar><scalar dataType="xsd:integer" dictRef="cc:operatorcount">1</scalar><scalar dataType="xsd:string" dictRef="cc:largestabelian">C1</scalar><scalar dataType="xsd:integer" dictRef="cc:operatorcount">1</scalar><scalar dataType="xsd:string" dictRef="cc:largestconciseabelian">C1</scalar><scalar dataType="xsd:integer" dictRef="cc:operatorcount">1</scalar></module><module cmlx:lineCount="21" cmlx:templateRef="l202.orient"><molecule id="a15" cmlx:templateRef="atom"><atomArray><atom id="a1" elementType="C" x3="-0.913329" y3="2.03E-4" z3="-0.011506"><scalar dataType="xsd:integer" dictRef="cc:serial">1</scalar><scalar dataType="xsd:integer" dictRef="g:atomicType">0</scalar><scalar dataType="xsd:integer" dictRef="compchem:atomicNumber">6</scalar></atom><atom id="a2" elementType="C" x3="-0.19428" y3="-1.200704" z3="-0.009015"><scalar dataType="xsd:integer" dictRef="cc:serial">2</scalar><scalar dataType="xsd:integer" dictRef="g:atomicType">0</scalar><scalar dataType="xsd:integer" dictRef="compchem:atomicNumber">6</scalar></atom><atom id="a3" elementType="C" x3="1.199641" y3="-1.203765" z3="0.002108"><scalar dataType="xsd:integer" dictRef="cc:serial">3</scalar><scalar dataType="xsd:integer" dictRef="g:atomicType">0</scalar><scalar dataType="xsd:integer" dictRef="compchem:atomicNumber">6</scalar></atom><atom id="a4" elementType="C" x3="1.903058" y3="-1.36E-4" z3="0.008501"><scalar dataType="xsd:integer" dictRef="cc:serial">4</scalar><scalar dataType="xsd:integer" dictRef="g:atomicType">0</scalar><scalar dataType="xsd:integer" dictRef="compchem:atomicNumber">6</scalar></atom><atom id="a5" elementType="C" x3="1.199992" y3="1.203578" z3="0.002107"><scalar dataType="xsd:integer" dictRef="cc:serial">5</scalar><scalar dataType="xsd:integer" dictRef="g:atomicType">0</scalar><scalar dataType="xsd:integer" dictRef="compchem:atomicNumber">6</scalar></atom><atom id="a6" elementType="C" x3="-0.194041" y3="1.200837" z3="-0.009012"><scalar dataType="xsd:integer" dictRef="cc:serial">6</scalar><scalar dataType="xsd:integer" dictRef="g:atomicType">0</scalar><scalar dataType="xsd:integer" dictRef="compchem:atomicNumber">6</scalar></atom><atom id="a7" elementType="C" x3="-2.423399" y3="8.8E-5" z3="0.009381"><scalar dataType="xsd:integer" dictRef="cc:serial">7</scalar><scalar dataType="xsd:integer" dictRef="g:atomicType">0</scalar><scalar dataType="xsd:integer" dictRef="compchem:atomicNumber">6</scalar></atom><atom id="a8" elementType="H" x3="-0.732329" y3="-2.143673" z3="-0.018128"><scalar dataType="xsd:integer" dictRef="cc:serial">8</scalar><scalar dataType="xsd:integer" dictRef="g:atomicType">0</scalar><scalar dataType="xsd:integer" dictRef="compchem:atomicNumber">1</scalar></atom><atom id="a9" elementType="H" x3="1.736164" y3="-2.146461" z3="0.001808"><scalar dataType="xsd:integer" dictRef="cc:serial">9</scalar><scalar dataType="xsd:integer" dictRef="g:atomicType">0</scalar><scalar dataType="xsd:integer" dictRef="compchem:atomicNumber">1</scalar></atom><atom id="a10" elementType="H" x3="2.987293" y3="-2.91E-4" z3="0.014029"><scalar dataType="xsd:integer" dictRef="cc:serial">10</scalar><scalar dataType="xsd:integer" dictRef="g:atomicType">0</scalar><scalar dataType="xsd:integer" dictRef="compchem:atomicNumber">1</scalar></atom><atom id="a11" elementType="H" x3="1.736702" y3="2.146166" z3="0.00181"><scalar dataType="xsd:integer" dictRef="cc:serial">11</scalar><scalar dataType="xsd:integer" dictRef="g:atomicType">0</scalar><scalar dataType="xsd:integer" dictRef="compchem:atomicNumber">1</scalar></atom><atom id="a12" elementType="H" x3="-0.731864" y3="2.143918" z3="-0.018132"><scalar dataType="xsd:integer" dictRef="cc:serial">12</scalar><scalar dataType="xsd:integer" dictRef="g:atomicType">0</scalar><scalar dataType="xsd:integer" dictRef="compchem:atomicNumber">1</scalar></atom><atom id="a13" elementType="H" x3="-2.801896" y3="-0.012158" z3="1.037599"><scalar dataType="xsd:integer" dictRef="cc:serial">13</scalar><scalar dataType="xsd:integer" dictRef="g:atomicType">0</scalar><scalar dataType="xsd:integer" dictRef="compchem:atomicNumber">1</scalar></atom><atom id="a14" elementType="H" x3="-2.830062" y3="-0.878269" z3="-0.49761"><scalar dataType="xsd:integer" dictRef="cc:serial">14</scalar><scalar dataType="xsd:integer" dictRef="g:atomicType">0</scalar><scalar dataType="xsd:integer" dictRef="compchem:atomicNumber">1</scalar></atom><atom id="a15" elementType="H" x3="-2.829858" y3="0.89016" z3="-0.476768"><scalar dataType="xsd:integer" dictRef="cc:serial">15</scalar><scalar dataType="xsd:integer" dictRef="g:atomicType">0</scalar><scalar dataType="xsd:integer" dictRef="compchem:atomicNumber">1</scalar></atom></atomArray><formula formalCharge="0" concise="C 7 H 8"><atomArray elementType="C H" count="7.0 8.0"/></formula><bondArray><bond atomRefs2="a1 a2" id="a1_a2" order="2"/><bond atomRefs2="a1 a6" id="a1_a6" order="S"/><bond atomRefs2="a1 a7" id="a1_a7" order="S"/><bond atomRefs2="a2 a3" id="a2_a3" order="S"/><bond atomRefs2="a2 a8" id="a2_a8" order="S"/><bond atomRefs2="a3 a4" id="a3_a4" order="2"/><bond atomRefs2="a3 a9" id="a3_a9" order="S"/><bond atomRefs2="a4 a5" id="a4_a5" order="S"/><bond atomRefs2="a4 a10" id="a4_a10" order="S"/><bond atomRefs2="a5 a6" id="a5_a6" order="2"/><bond atomRefs2="a5 a11" id="a5_a11" order="S"/><bond atomRefs2="a6 a12" id="a6_a12" order="S"/><bond atomRefs2="a7 a13" id="a7_a13" order="S"/><bond atomRefs2="a7 a14" id="a7_a14" order="S"/><bond atomRefs2="a7 a15" id="a7_a15" order="S"/></bondArray><property dictRef="cml:molmass"><scalar dataType="xsd:double" units="unit:dalton" xmlns:unit="http://www.xml-cml.org/unit/si/">92.13842</scalar></property></molecule></module><module cmlx:lineCount="1" cmlx:templateRef="l202.rotconst"><array dataType="xsd:double" size="3" dictRef="cc:rotconst" cmlx:templateRef="rotconst">5.5492592 2.5137458 1.7488524</array></module><scalar dataType="xsd:integer" dictRef="g:buffer" cmlx:templateRef="buffer">131072</scalar><scalar dataType="xsd:string" dictRef="g:raffenetti" cmlx:templateRef="raff">Raffenetti</scalar><scalar dataType="xsd:string" dictRef="g:twoe" cmlx:templateRef="twoe">Two-electron</scalar><module cmlx:lineCount="12" cmlx:templateRef="l301.basis"><scalar dataType="xsd:string" dictRef="cc:basis">6-311+G(d,p)</scalar><scalar dataType="xsd:string" dictRef="cc:diffuse">(5D, 7F)</scalar><list cmlx:lineCount="1" cmlx:templateRef="symmadapt"><array dataType="xsd:integer" dictRef="cc:adapted" size="1">202</array><array dataType="xsd:string" dictRef="cc:symm" size="1">A</array></list><scalar dataType="xsd:integer" dictRef="cc:basiscount">202</scalar><scalar dataType="xsd:integer" dictRef="g:primbasis">316</scalar><scalar dataType="xsd:integer" dictRef="cc:cartesianbasis">209</scalar><scalar dataType="xsd:integer" dictRef="cc:alphae">25</scalar><scalar dataType="xsd:integer" dictRef="cc:betae">25</scalar> IExCor= 402 DFT=T Ex=B+HF Corr=LYP ExCW=0 ScaHFX=  0.200000 ScaDFX=  0.800000  0.720000  1.000000  0.810000 IRadAn=      0 IRanWt=     -1 IRanGd=            0 ICorTp=0 NAtoms=   15 NActive=   15 NUniq=   15 SFac= 1.00D+00 NAtFMM=   60 Big=F</module> NPDir=0 NMtPBC=     1 NCelOv=     1 NCel=       1 NClECP=     1 NCelD=      1         NCelK=      1 NCelE2=     1 NClLst=     1 CellRange=     0.0.<module cmlx:lineCount="1" cmlx:templateRef="l302.basis"><list cmlx:templateRef="onee"><scalar dataType="xsd:string" dictRef="g:onee">One-electron integrals</scalar></list></module> NBasis=   202 RedAO= T  NBF=   202 NBsUse=   202 1.00D-06 NBFU=   202 Precomputing XC quadrature grid using IXCGrd= 2 IRadAn=           0 IRanWt=          -1 IRanGd=           0. NRdTot=     965 NPtTot=      122250 NUsed=      129066 NTot=      129098 NSgBfM=   209   209   209   209.<module cmlx:lineCount="1" cmlx:templateRef="l303.basis"><list cmlx:templateRef="l303"><scalar dataType="xsd:integer" dictRef="g:dipdrv">1</scalar></list></module> Initial guess read from the read-write file: Guess basis will be translated and rotated to current coordinates. Initial guess orbital symmetries:       Occupied  (A) (A) (A) (A) (A) (A) (A) (A) (A) (A) (A) (A)                 (A) (A) (A) (A) (A) (A) (A) (A) (A) (A) (A) (A)                 (A)       Virtual   (A) (A) (A) (A) (A) (A) (A) (A) (A) (A) (A) (A)                 (A) (A) (A) (A) (A) (A) (A) (A) (A) (A) (A) (A)                 (A) (A) (A) (A) (A) (A) (A) (A) (A) (A) (A) (A)                 (A) (A) (A) (A) (A) (A) (A) (A) (A) (A) (A) (A)                 (A) (A) (A) (A) (A) (A) (A) (A) (A) (A) (A) (A)                 (A) (A) (A) (A) (A) (A) (A) (A) (A) (A) (A) (A)                 (A) (A) (A) (A) (A) (A) (A) (A) (A) (A) (A) (A)                 (A) (A) (A) (A) (A) (A) (A) (A) (A) (A) (A) (A)                 (A) (A) (A) (A) (A) (A) (A) (A) (A) (A) (A) (A)                 (A) (A) (A) (A) (A) (A) (A) (A) (A) (A) (A) (A)                 (A) (A) (A) (A) (A) (A) (A) (A) (A) (A) (A) (A)                 (A) (A) (A) (A) (A) (A) (A) (A) (A) (A) (A) (A)                 (A) (A) (A) (A) (A) (A) (A) (A) (A) (A) (A) (A)                 (A) (A) (A) (A) (A) (A) (A) (A) (A) (A) (A) (A)                 (A) (A) (A) (A) (A) (A) (A) (A) (A) The electronic state of the initial guess is 1-A.<module cmlx:lineCount="138" cmlx:templateRef="l502"><list cmlx:templateRef="l502.type"><scalar dataType="xsd:string" dictRef="g:l502.type">Closed</scalar></list> Requested convergence on RMS density matrix=1.00D-08 within 128 cycles. Requested convergence on MAX density matrix=1.00D-06. Requested convergence on             energy=1.00D-06. No special actions if energy rises. Using DIIS extrapolation, IDIIS=  1040. Integral symmetry usage will be decided dynamically.       129065 words used for storage of precomputed grid. IEnd=    301557 IEndB=    301557 NGot=   6291456 MDV=   6050430 LenX=   6050430 Fock matrices will be formed incrementally for  20 cycles.<module cmlx:lineCount="121" cmlx:templateRef="l502.cycle"><list cmlx:templateRef="cycle"><list><scalar dataType="xsd:integer" dictRef="cc:cycle">1</scalar><scalar dataType="xsd:integer" dictRef="g:pass">1</scalar><scalar dataType="xsd:integer" dictRef="g:idiag">1</scalar></list></list><module cmlx:lineCount="1" cmlx:templateRef="l502.e"><list cmlx:templateRef="l502.e"><scalar dataType="xsd:double" dictRef="g:l502.e">-271.63879532892</scalar></list></module> Cycle   2  Pass 1  IDiag  1:<module cmlx:lineCount="1" cmlx:templateRef="l502.ediff"><list cmlx:templateRef="l502.ediff"><list><scalar dataType="xsd:double" dictRef="g:l502.e">-271.638809156166</scalar><scalar dataType="xsd:double" dictRef="g:l502.deltae">-1.3827246E-5</scalar></list></list></module> Cycle   3  Pass 1  IDiag  1:<module cmlx:lineCount="1" cmlx:templateRef="l502.ediff"><list cmlx:templateRef="l502.ediff"><list><scalar dataType="xsd:double" dictRef="g:l502.e">-271.638810839707</scalar><scalar dataType="xsd:double" dictRef="g:l502.deltae">-1.683541E-6</scalar></list></list></module> Cycle   4  Pass 1  IDiag  1:<module cmlx:lineCount="1" cmlx:templateRef="l502.ediff"><list cmlx:templateRef="l502.ediff"><list><scalar dataType="xsd:double" dictRef="g:l502.e">-271.638812747939</scalar><scalar dataType="xsd:double" dictRef="g:l502.deltae">-1.908232E-6</scalar></list></list></module> Cycle   5  Pass 1  IDiag  1:<module cmlx:lineCount="1" cmlx:templateRef="l502.ediff"><list cmlx:templateRef="l502.ediff"><list><scalar dataType="xsd:double" dictRef="g:l502.e">-271.638812776073</scalar><scalar dataType="xsd:double" dictRef="g:l502.deltae">-2.8133E-8</scalar></list></list></module> Cycle   6  Pass 1  IDiag  1:<module cmlx:lineCount="1" cmlx:templateRef="l502.ediff"><list cmlx:templateRef="l502.ediff"><list><scalar dataType="xsd:double" dictRef="g:l502.e">-271.638812785483</scalar><scalar dataType="xsd:double" dictRef="g:l502.deltae">-9.41E-9</scalar></list></list></module> Cycle   7  Pass 1  IDiag  1:                    CP:  8.34D-01<module cmlx:lineCount="1" cmlx:templateRef="l502.ediff"><list cmlx:templateRef="l502.ediff"><list><scalar dataType="xsd:double" dictRef="g:l502.e">-271.638812785781</scalar><scalar dataType="xsd:double" dictRef="g:l502.deltae">-2.98E-10</scalar></list></list></module> Cycle   8  Pass 1  IDiag  1:                    CP:  8.47D-01  8.05D-01<module cmlx:lineCount="1" cmlx:templateRef="l502.ediff"><list cmlx:templateRef="l502.ediff"><list><scalar dataType="xsd:double" dictRef="g:l502.e">-271.638812785793</scalar><scalar dataType="xsd:double" dictRef="g:l502.deltae">-1.2E-11</scalar></list></list></module> Cycle   9  Pass 1  IDiag  1:                    CP:  8.56D-01  7.96D-01  1.02D+00<module cmlx:lineCount="1" cmlx:templateRef="l502.ediff"><list cmlx:templateRef="l502.ediff"><list><scalar dataType="xsd:double" dictRef="g:l502.e">-271.638812785807</scalar><scalar dataType="xsd:double" dictRef="g:l502.deltae">-1.5E-11</scalar></list></list></module> RMSDP=1.89D-09 MaxDP=8.03D-08 DE=-1.46D-11 OVMax= 6.62D-08</module><module cmlx:lineCount="4" cmlx:templateRef="l502.footer"><list cmlx:templateRef="l502"><scalar dataType="xsd:string" dictRef="g:l502">SCF Done:  E(RB+HF-LYP) =  -271.638812786     A.U. after    9 cycles</scalar><scalar dataType="xsd:string" dictRef="g:l502">Convg  =    0.1888D-08             -V/T =  2.0048</scalar><scalar dataType="xsd:string" dictRef="g:l502">S**2   =   0.0000</scalar><scalar dataType="xsd:string" dictRef="g:l502">KE= 2.703321664869D+02 PE=-1.167451566967D+03 EE= 3.564894714531D+02</scalar></list></module></module><module cmlx:lineCount="1" cmlx:templateRef="l701"/> ... and contract with generalized density number  0.<module cmlx:lineCount="1" cmlx:templateRef="l702"/><module cmlx:lineCount="1" cmlx:templateRef="l701"/> Integral derivatives from FoFDir, PRISM(SPDF). Symmetry not used in FoFDir. MinBra= 0 MaxBra= 2 Meth= 1. IRaf=       0 NMat=   1 IRICut=       1 DoRegI=T DoRafI=F ISym2E= 0 JSym2E=0.<module cmlx:lineCount="2" cmlx:templateRef="l716.dipole"><array dataType="xsd:double" size="3" dictRef="x:d" cmlx:templateRef="dipole">-0.159334153 -6.51351405E-4 0.013859824</array> ***** Axes restored to original set *****</module> ------------------------------------------------------------------- Center     Atomic                   Forces (Hartrees/Bohr) Number     Number              X              Y              Z -------------------------------------------------------------------    1          6           0.000238071   -0.000011720    0.000145111    2          6           0.000091581    0.000011442   -0.000153896    3          6           0.000021076   -0.000017344   -0.000178733    4          6          -0.000158029    0.000012837   -0.000092442    5          6          -0.000149513   -0.000016534    0.000100173    6          6          -0.000088895    0.000013649    0.000153150    7          6          -0.000145284    0.000054530   -0.000084852    8          1           0.000065360   -0.000001354   -0.000002950    9          1          -0.000021353   -0.000001651   -0.000068147   10          1          -0.000059612    0.000004601   -0.000035766   11          1          -0.000069951   -0.000001736    0.000013748   12          1           0.000027914   -0.000001466    0.000058796   13          1           0.000087659   -0.000009599    0.000050565   14          1           0.000080831   -0.000017255    0.000047280   15          1           0.000080146   -0.000018400    0.000047961 ------------------------------------------------------------------- Cartesian Forces:  Max     0.000238071 RMS     0.000084848<module cmlx:lineCount="182" cmlx:templateRef="l103"><list cmlx:templateRef="berny"><scalar dataType="xsd:string" dictRef="g:optimization">Internal  Forces:  Max     0.000295881 RMS     0.000086546</scalar></list> Search for a local minimum. Step number   2 out of a maximum of  79 All quantities printed in internal units (Hartrees-Bohrs-Radians) Update second derivatives using D2CorX and points  1  2<module cmlx:lineCount="1" cmlx:templateRef="l103.trust"> Trust test= 9.11D-01 RLast= 1.67D-02 DXMaxT set to 3.00D-01</module>     Eigenvalues ---    0.00660   0.01534   0.02147   0.02173   0.02179     Eigenvalues ---    0.02199   0.02212   0.02213   0.02213   0.02214     Eigenvalues ---    0.07066   0.07164   0.15917   0.16000   0.16000     Eigenvalues ---    0.16000   0.16000   0.16000   0.16000   0.16004     Eigenvalues ---    0.21999   0.22000   0.23490   0.24994   0.31660     Eigenvalues ---    0.34179   0.34531   0.34541   0.35341   0.35353     Eigenvalues ---    0.35461   0.35474   0.35523   0.42498   0.42590     Eigenvalues ---    0.46439   0.47063   0.47208   0.509091000.00000     Eigenvalues --- 1000.000001000.000001000.000001000.000001000.00000     Eigenvalues --- 1000.000001000.000001000.000001000.000001000.00000     Eigenvalues --- 1000.000001000.000001000.000001000.000001000.00000     Eigenvalues --- 1000.000001000.000001000.000001000.000001000.00000     Eigenvalues --- 1000.000001000.000001000.000001000.000001000.00000     Eigenvalues --- 1000.000001000.000001000.000001000.00000<module cmlx:lineCount="4" cmlx:templateRef="rfo"> Quartic linear search produced a step of -0.07947. Iteration  1 RMS(Cart)=  0.00047528 RMS(Int)=  0.00000008 Iteration  2 RMS(Cart)=  0.00000007 RMS(Int)=  0.00000004</module><module cmlx:lineCount="71" cmlx:templateRef="l103.deltas"><list cmlx:lineCount="69" cmlx:templateRef="delta"><array dataType="xsd:string" dictRef="cc:variable" size="69">R1 R2 R3 R4 R5 R6 R7 R8 R9 R10 R11 R12 R13 R14 R15 A1 A2 A3 A4 A5 A6 A7 A8 A9 A10 A11 A12 A13 A14 A15 A16 A17 A18 A19 A20 A21 A22 A23 A24 D1 D2 D3 D4 D5 D6 D7 D8 D9 D10 D11 D12 D13 D14 D15 D16 D17 D18 D19 D20 D21 D22 D23 D24 D25 D26 D27 D28 D29 D30</array><array dataType="xsd:double" dictRef="g:lastval" size="69">2.64509 2.64488 2.85389 2.63422 2.0517 2.6345 2.04975 2.6343 2.04893 2.63443 2.04975 2.05167 2.07064 2.06485 2.06472 2.06233 2.11014 2.11054 2.11249 2.08354 2.08715 2.0975 2.09039 2.09529 2.08404 2.09955 2.09958 2.09748 2.09534 2.09036 2.11251 2.08352 2.08715 1.93732 1.94527 1.94524 1.87325 1.87353 1.88594 0.00527 -3.13393 -3.11617 0.02782 -0.00526 3.13392 3.11617 -0.02783 1.5485 -0.53861 -2.64724 -1.57238 2.6237 0.51507 -0.00206 -3.13943 3.13714 -2.4E-4 -0.00129 -3.13825 3.13608 -8.9E-4 0.00129 -3.13608 3.13826 8.9E-4 0.00205 -3.13713 3.13943 2.5E-4</array><array dataType="xsd:double" dictRef="cc:deriv" size="69">-3.0E-4 -2.9E-4 -1.2E-4 -2.5E-4 -6.0E-5 -2.4E-4 -7.0E-5 -2.4E-4 -7.0E-5 -2.6E-4 -7.0E-5 -6.0E-5 -4.0E-5 -3.0E-5 -3.0E-5 5.0E-5 -3.0E-5 -3.0E-5 -2.0E-5 4.0E-5 -2.0E-5 0.0 -2.0E-5 2.0E-5 0.0 0.0 0.0 0.0 2.0E-5 -2.0E-5 -2.0E-5 4.0E-5 -2.0E-5 -8.0E-5 -9.0E-5 -9.0E-5 1.0E-4 1.0E-4 8.0E-5 0.0 0.0 0.0 0.0 0.0 0.0 0.0 0.0 0.0 -1.0E-5 1.0E-5 0.0 -1.0E-5 1.0E-5 0.0 0.0 0.0 0.0 -1.0E-5 0.0 0.0 0.0 1.0E-5 0.0 0.0 0.0 0.0 0.0 0.0 0.0</array><array dataType="xsd:double" dictRef="cc:delta.linear" size="69">-5.0E-4 -5.0E-4 -3.4E-4 -5.3E-4 -3.0E-5 -5.1E-4 -3.0E-5 -5.1E-4 -3.0E-5 -5.3E-4 -3.0E-5 -3.0E-5 -2.0E-5 -3.0E-5 -3.0E-5 5.0E-5 -3.0E-5 -3.0E-5 -3.0E-5 -1.0E-5 4.0E-5 -1.0E-5 1.0E-5 0.0 3.0E-5 -2.0E-5 -2.0E-5 -1.0E-5 0.0 1.0E-5 -3.0E-5 -1.0E-5 4.0E-5 6.0E-5 1.0E-5 1.0E-5 -4.0E-5 -4.0E-5 -1.0E-5 -4.0E-5 -4.0E-5 -5.0E-5 -5.0E-5 4.0E-5 4.0E-5 5.0E-5 5.0E-5 -1.0E-5 0.0 -1.0E-5 -1.0E-5 -1.0E-5 -1.0E-5 5.0E-5 0.0 5.0E-5 1.0E-5 -5.0E-5 -1.0E-5 -1.0E-5 4.0E-5 5.0E-5 1.0E-5 0.0 -4.0E-5 -5.0E-5 -5.0E-5 0.0 -1.0E-5</array><array dataType="xsd:double" dictRef="cc:delta.quad" size="69">-7.0E-5 -7.0E-5 0.0 6.0E-5 -1.2E-4 6.0E-5 -1.4E-4 7.0E-5 -1.4E-4 5.0E-5 -1.4E-4 -1.2E-4 -9.0E-5 -4.0E-5 -4.0E-5 1.4E-4 -6.0E-5 -7.0E-5 -7.0E-5 2.3E-4 -1.7E-4 1.0E-5 -1.5E-4 1.4E-4 -3.0E-5 1.0E-5 1.0E-5 1.0E-5 1.4E-4 -1.5E-4 -7.0E-5 2.3E-4 -1.6E-4 -5.0E-4 -5.5E-4 -5.5E-4 6.5E-4 6.4E-4 4.2E-4 2.0E-5 1.0E-4 6.0E-5 1.4E-4 -2.0E-5 -1.0E-4 -6.0E-5 -1.4E-4 8.0E-5 -4.0E-5 1.8E-4 1.2E-4 0.0 2.2E-4 1.2E-4 0.0 4.0E-5 -8.0E-5 -2.5E-4 -1.8E-4 -1.3E-4 -6.0E-5 2.5E-4 1.3E-4 1.8E-4 6.0E-5 -1.1E-4 -4.0E-5 1.0E-5 8.0E-5</array><array dataType="xsd:double" dictRef="cc:delta.total" size="69">-5.8E-4 -5.7E-4 -3.4E-4 -4.8E-4 -1.5E-4 -4.4E-4 -1.7E-4 -4.4E-4 -1.8E-4 -4.8E-4 -1.7E-4 -1.5E-4 -1.2E-4 -7.0E-5 -7.0E-5 1.9E-4 -9.0E-5 -1.0E-4 -1.0E-4 2.3E-4 -1.2E-4 0.0 -1.4E-4 1.3E-4 0.0 0.0 0.0 0.0 1.3E-4 -1.3E-4 -1.0E-4 2.2E-4 -1.2E-4 -4.5E-4 -5.3E-4 -5.4E-4 6.1E-4 6.0E-4 4.1E-4 -2.0E-5 5.0E-5 1.0E-5 9.0E-5 2.0E-5 -5.0E-5 -1.0E-5 -9.0E-5 8.0E-5 -4.0E-5 1.7E-4 1.1E-4 -1.0E-5 2.1E-4 1.7E-4 0.0 9.0E-5 -7.0E-5 -3.0E-4 -1.9E-4 -1.4E-4 -2.0E-5 3.0E-4 1.4E-4 1.8E-4 2.0E-5 -1.6E-4 -9.0E-5 0.0 7.0E-5</array><array dataType="xsd:double" dictRef="cc:newval" size="69">2.64451 2.6443 2.85355 2.63374 2.05155 2.63405 2.04957 2.63386 2.04875 2.63395 2.04957 2.05152 2.07052 2.06477 2.06465 2.06252 2.11005 2.11044 2.11239 2.08376 2.08703 2.0975 2.09025 2.09542 2.08405 2.09955 2.09958 2.09748 2.09547 2.09022 2.11241 2.08374 2.08703 1.93687 1.94474 1.94471 1.87385 1.87413 1.88635 0.00525 -3.13388 -3.11615 0.02791 -0.00524 3.13387 3.11615 -0.02792 1.54857 -0.53865 -2.64706 -1.57227 2.6237 0.51528 -0.00189 -3.13943 3.13723 -3.1E-4 -0.00159 -3.13844 3.13594 -9.1E-4 0.00159 -3.13594 3.13844 9.1E-4 0.00189 -3.13722 3.13944 3.3E-4</array></list></module><module cmlx:lineCount="5" cmlx:templateRef="l103.itemconverge"><list cmlx:lineCount="4" cmlx:templateRef="row"><array dataType="xsd:string" dictRef="g:item"/><array dataType="xsd:double" dictRef="g:value" size="4">4.5E-4 3.0E-4 0.0018 0.0012</array><array dataType="xsd:double" dictRef="g:threshold" size="4">0.0 0.0 0.0 0.0</array><array dataType="xsd:string" dictRef="g:converged" size="4">YES YES YES YES</array></list></module><module cmlx:lineCount="1" cmlx:templateRef="preddelta"><list cmlx:templateRef="predicted"><scalar dataType="xsd:double" dictRef="g:predchange">-6.231422E-7</scalar></list></module><module cmlx:lineCount="77" cmlx:templateRef="l103.optimizedparam"><list cmlx:templateRef="completed"><scalar dataType="xsd:string" dictRef="g:optimization">Optimization completed.</scalar><scalar dataType="xsd:string" dictRef="g:optimization">-- Stationary point found.</scalar></list><list cmlx:templateRef="length"><array dataType="xsd:string" size="15" dictRef="g:symbol">R1 R2 R3 R4 R5 R6 R7 R8 R9 R10 R11 R12 R13 R14 R15</array><array dataType="xsd:integer" size="15" dictRef="g:atom1">1 1 1 2 2 3 3 4 4 5 5 6 7 7 7</array><array dataType="xsd:integer" size="15" dictRef="g:atom2">2 6 7 3 8 4 9 5 10 6 11 12 13 14 15</array><array dataType="xsd:double" size="15" dictRef="cc:distance">1.3997 1.3996 1.5102 1.394 1.0857 1.3941 1.0847 1.394 1.0842 1.3941 1.0847 1.0857 1.0957 1.0927 1.0926</array><array delimiter="|" dataType="xsd:string" size="15" dictRef="g:deriv">|-DE/DX =   -0.0003|-DE/DX =   -0.0003|-DE/DX =   -0.0001|-DE/DX =   -0.0003|-DE/DX =   -0.0001|-DE/DX =   -0.0002|-DE/DX =   -0.0001|-DE/DX =   -0.0002|-DE/DX =   -0.0001|-DE/DX =   -0.0003|-DE/DX =   -0.0001|-DE/DX =   -0.0001|-DE/DX =    0.0|-DE/DX =    0.0|-DE/DX =    0.0|</array></list><list cmlx:templateRef="angle"><array dataType="xsd:string" size="24" dictRef="g:symbol">A1 A2 A3 A4 A5 A6 A7 A8 A9 A10 A11 A12 A13 A14 A15 A16 A17 A18 A19 A20 A21 A22 A23 A24</array><array dataType="xsd:integer" size="24" dictRef="g:atom1">2 2 6 1 1 3 2 2 4 3 3 5 4 4 6 1 1 5 1 1 1 13 13 14</array><array dataType="xsd:integer" size="24" dictRef="g:atom2">1 1 1 2 2 2 3 3 3 4 4 4 5 5 5 6 6 6 7 7 7 7 7 7</array><array dataType="xsd:integer" size="24" dictRef="g:atom3">6 7 7 3 8 8 4 9 9 5 10 10 6 11 11 5 12 12 13 14 15 14 15 15</array><array dataType="xsd:double" size="24" dictRef="cc:angle">118.163 120.9019 120.9248 121.0369 119.3779 119.585 120.1778 119.7704 120.0513 119.407 120.2952 120.2973 120.1767 120.0541 119.7687 121.0379 119.377 119.5849 111.0003 111.4557 111.4543 107.3291 107.3454 108.0563</array><array delimiter="|" dataType="xsd:string" size="24" dictRef="g:deriv">|-DE/DX =    0.0001|-DE/DX =    0.0|-DE/DX =    0.0|-DE/DX =    0.0|-DE/DX =    0.0|-DE/DX =    0.0|-DE/DX =    0.0|-DE/DX =    0.0|-DE/DX =    0.0|-DE/DX =    0.0|-DE/DX =    0.0|-DE/D
[...]
-4 -2.0E-4 -1.5E-4 -9.0E-5 2.6E-4 1.3E-4 1.9E-4 7.0E-5 -1.3E-4 -6.0E-5 0.0 7.0E-5</array><array dataType="xsd:double" dictRef="cc:newval" size="69">2.64436 2.64435 2.85382 2.63387 2.05153 2.63393 2.04957 2.63392 2.04875 2.63387 2.04957 2.05153 2.07046 2.06467 2.06466 2.06251 2.11024 2.11025 2.11241 2.08383 2.08694 2.09751 2.09019 2.09548 2.08402 2.09958 2.09958 2.09751 2.09549 2.09019 2.11241 2.08383 2.08694 1.93669 1.94459 1.94458 1.87417 1.87418 1.88647 0.00527 -3.13383 -3.11605 0.02804 -0.00527 3.13385 3.11605 -0.02802 1.55979 -0.52761 -2.63599 -1.56097 2.63482 0.52644 -0.00192 -3.13941 3.13717 -3.2E-4 -0.00155 -3.13845 3.13592 -9.8E-4 0.00155 -3.13595 3.13845 9.5E-4 0.00193 -3.13719 3.13943 3.2E-4</array></list></module><module cmlx:lineCount="5" cmlx:templateRef="l103.itemconverge"><list cmlx:lineCount="4" cmlx:templateRef="row"><array dataType="xsd:string" dictRef="g:item"/><array dataType="xsd:double" dictRef="g:value" size="4">4.5E-4 3.0E-4 0.0018 0.0012</array><array dataType="xsd:double" dictRef="g:threshold" size="4">0.0 0.0 0.0 0.0</array><array dataType="xsd:string" dictRef="g:converged" size="4">YES YES NO NO</array></list></module><module cmlx:lineCount="1" cmlx:templateRef="preddelta"><list cmlx:templateRef="predicted"><scalar dataType="xsd:double" dictRef="g:predchange">-7.023964E-7</scalar></list></module> GradGradGradGradGradGradGradGradGradGradGradGradGradGradGradGradGradGrad</module><module cmlx:lineCount="213" cmlx:templateRef="l9999.archive"><scalar dataType="xsd:string" dictRef="cc:hostname">GINC-PUBLIX</scalar><scalar dataType="xsd:string" dictRef="g:operation">Freq</scalar><scalar dataType="xsd:string" dictRef="cc:method">RB3LYP</scalar><scalar dataType="xsd:string" dictRef="cc:basis">6-311+G(d,p)</scalar><scalar dataType="xsd:string" dictRef="cc:jobname">NOBODY</scalar><scalar dataType="xsd:date" dictRef="cc:date">2006-08-31T00:00:00Z</scalar><scalar dataType="xsd:string" dictRef="g:keyword">#PGEOM=ALLCHECK</scalar><scalar dataType="xsd:string" dictRef="g:keyword">GUESS=READ</scalar><scalar dataType="xsd:string" dictRef="g:keyword">SCRF=CHECK</scalar><scalar dataType="xsd:string" dictRef="g:keyword">GENCHK</scalar><scalar dataType="xsd:string" dictRef="g:keyword">RB3LYP/6-311+G(D,P)</scalar><scalar dataType="xsd:string" dictRef="g:keyword">FREQ</scalar><scalar dataType="xsd:string" dictRef="cc:title">toluene basis2</scalar><molecule id="a15"><atomArray><atom id="a1" elementType="C" x3="-0.783712768" y3="-0.0044980129" z3="-0.4691233441"><scalar dataType="xsd:integer" dictRef="compchem:atomicNumber">6</scalar></atom><atom id="a2" elementType="C" x3="-0.7832533623" y3="-0.004621928" z3="0.9305960285"><scalar dataType="xsd:integer" dictRef="compchem:atomicNumber">6</scalar></atom><atom id="a3" elementType="C" x3="0.4113847318" y3="-0.0041879174" z3="1.6489201567"><scalar dataType="xsd:integer" dictRef="compchem:atomicNumber">6</scalar></atom><atom id="a4" elementType="C" x3="1.6330089201" y3="-0.0061009717" z3="0.9772140451"><scalar dataType="xsd:integer" dictRef="compchem:atomicNumber">6</scalar></atom><atom id="a5" elementType="C" x3="1.6476748222" y3="-0.0100092639" z3="-0.4167160261"><scalar dataType="xsd:integer" dictRef="compchem:atomicNumber">6</scalar></atom><atom id="a6" elementType="C" x3="0.4499626769" y3="-0.0104246166" z3="-1.130118185"><scalar dataType="xsd:integer" dictRef="compchem:atomicNumber">6</scalar></atom><atom id="a7" elementType="C" x3="-2.0793975856" y3="0.0279759124" z3="-1.2442966639"><scalar dataType="xsd:integer" dictRef="compchem:atomicNumber">6</scalar></atom><atom id="a8" elementType="H" x3="-1.7291671968" y3="-0.0073274413" z3="1.4635220637"><scalar dataType="xsd:integer" dictRef="compchem:atomicNumber">1</scalar></atom><atom id="a9" elementType="H" x3="0.3877688752" y3="-0.0063267052" z3="2.7333417576"><scalar dataType="xsd:integer" dictRef="compchem:atomicNumber">1</scalar></atom><atom id="a10" elementType="H" x3="2.5633536027" y3="-0.0088928446" z3="1.5340326171"><scalar dataType="xsd:integer" dictRef="compchem:atomicNumber">1</scalar></atom><atom id="a11" elementType="H" x3="2.5921707864" y3="-0.0167030988" z3="-0.9500190238"><scalar dataType="xsd:integer" dictRef="compchem:atomicNumber">1</scalar></atom><atom id="a12" elementType="H" x3="0.4725868695" y3="-0.0176970498" z3="-2.2155553101"><scalar dataType="xsd:integer" dictRef="compchem:atomicNumber">1</scalar></atom><atom id="a13" elementType="H" x3="-2.4024261804" y3="1.059093503" z3="-1.4262000425"><scalar dataType="xsd:integer" dictRef="compchem:atomicNumber">1</scalar></atom><atom id="a14" elementType="H" x3="-2.8832923703" y3="-0.4737558942" z3="-0.7002890843"><scalar dataType="xsd:integer" dictRef="compchem:atomicNumber">1</scalar></atom><atom id="a15" elementType="H" x3="-1.9749989966" y3="-0.4571896809" z3="-2.2176890453"><scalar dataType="xsd:integer" dictRef="compchem:atomicNumber">1</scalar></atom></atomArray><formula formalCharge="0" concise="C 7 H 8" dictRef="cc:formula.calc"/><bondArray><bond atomRefs2="a1 a2" id="a1_a2" order="2"/><bond atomRefs2="a1 a6" id="a1_a6" order="S"/><bond atomRefs2="a1 a7" id="a1_a7" order="S"/><bond atomRefs2="a2 a3" id="a2_a3" order="S"/><bond atomRefs2="a2 a8" id="a2_a8" order="S"/><bond atomRefs2="a3 a4" id="a3_a4" order="2"/><bond atomRefs2="a3 a9" id="a3_a9" order="S"/><bond atomRefs2="a4 a5" id="a4_a5" order="S"/><bond atomRefs2="a4 a10" id="a4_a10" order="S"/><bond atomRefs2="a5 a6" id="a5_a6" order="2"/><bond atomRefs2="a5 a11" id="a5_a11" order="S"/><bond atomRefs2="a6 a12" id="a6_a12" order="S"/><bond atomRefs2="a7 a13" id="a7_a13" order="S"/><bond atomRefs2="a7 a14" id="a7_a14" order="S"/><bond atomRefs2="a7 a15" id="a7_a15" order="S"/></bondArray><property dictRef="cml:molmass"><scalar dataType="xsd:double" units="unit:dalton" xmlns:unit="http://www.xml-cml.org/unit/si/">92.13842</scalar></property><formula concise="C 7 H 8" dictRef="cc:formula.user"/></molecule><scalar dataType="xsd:string" dictRef="cc:version">Sun64-SVR4-Unix-G03RevB.04</scalar><scalar dataType="xsd:string" dictRef="cc:electronicstate">1-A</scalar><scalar dataType="xsd:double" dictRef="cc:hfenergy" units="nonsi:hartree">-271.6388128</scalar><scalar dataType="xsd:double" dictRef="cc:rmsd" units="nonsi:unknown">1.26E-9</scalar><scalar dataType="xsd:double" dictRef="cc:rmsf" units="nonsi:unknown">8.485E-5</scalar><array dataType="xsd:double" size="3" dictRef="cc:dipole" units="nonsi:debye">-0.1369505 0.0150835 -0.081222</array><array dataType="xsd:double" size="135" dictRef="cc:dipolederiv" units="nonsi:unknown">0.2659276 -0.0235831 0.1984944 -0.0723887 -0.0731727 -0.0434619 0.1980536 -0.0140611 0.0513743 -0.018989 0.0020306 -0.096292 0.0055514 -0.1394437 0.0054913 -0.1711334 0.0086442 -0.0749882 0.0054984 7.611E-4 -0.0075112 0.0043089 -0.1391573 -0.0018729 -6.316E-4 -0.0045799 0.1022893 0.007067 0.0013136 0.0541464 0.0023797 -0.152287 0.001658 0.0536318 9.75E-4 -0.0513239 0.0777591 -0.0043686 -0.0389591 -2.723E-4 -0.1389692 0.0054051 -0.0454848 0.0036638 0.0306938 -0.1740974 0.0082875 -0.0877344 0.0073071 -0.1395811 0.0036159 -0.0131088 -0.0013378 0.0795906 0.0099149 0.0058972 -0.0667316 0.1011566 0.1265913 0.0603907 -0.0641671 0.0034457 0.0838512 -0.0843301 -0.0012288 0.0798966 -0.0057061 0.130575 5.518E-4 0.06846 -0.001276 0.0323887 0.0631131 -3.605E-4 0.0025198 -0.002537 0.1370035 0.0015258 -0.0038268 3.181E-4 -0.1179034 -0.0668712 4.325E-4 -0.0806368 3.71E-5 0.1428932 -1.896E-4 -0.0806485 4.78E-5 0.019602 -0.0779821 9.415E-4 0.0718164 9.984E-4 0.136999 -0.00361 0.0782049 -0.0011336 0.02324 0.0680212 -0.0016391 -0.0135193 -0.0020537 0.1306648 -0.0063103 -0.0019202 -0.0015292 -0.1200636 -0.0242826 0.0302918 -0.0654452 0.0767415 -0.0973186 0.0439346 -0.0652331 0.0159261 0.0464864 -0.0709415 -0.0498731 0.0095861 -0.0954154 0.0363115 0.0275855 0.0860662 0.0625016 -0.0061325 0.0201924 0.0310974 0.0403698 -0.0201075 0.0388913 -0.094714 -0.0382623 -0.0716048 -0.0991047</array><array dataType="xsd:double" size="6" dictRef="cc:polarizability" units="nonsi:unknown">97.0408537 -0.6607461 50.8555644 5.630772 -0.2911819 90.9509166</array><scalar dataType="xsd:string" dictRef="cc:pointgroup">C01 [X(C7H8)]</scalar><array dataType="xsd:double" size="1035" dictRef="x:unknown">0.63964915 -0.00558865 0.17507655 -0.00909158 -0.00198499 0.64894023 -0.12610379 3.8564E-4 0.03672482 0.71904671 -5.3895E-4 -0.06840555 0.00126789 2.0352E-4 0.13448311 -0.03028638 3.9422E-4 -0.30969584 -0.024039 -0.00153122 0.6630214 0.03662884 -7.0112E-4 -0.07704246 -0.27777978 7.258E-4 -0.0574713 0.65654841 3.5945E-4 0.00657773 1.5253E-4 1.4126E-4 -0.06247578 1.523E-5 -2.4596E-4 0.1354657 -0.02857054 5.0897E-4 -0.02827648 -0.12192366 5.667E-5 -0.18216021 -0.00321857 -4.5397E-4 0.7331168 -0.01721417 -3.0589E-4 0.03244222 -0.05840513 -3.414E-4 -0.02594059 -0.28360187 3.5199E-4 0.11725442 0.71515349 3.4003E-4 -0.00688039 2.067E-5 1.057E-5 0.00831983 -8.527E-5 6.0266E-4 -0.06347833 -1.1996E-4 -0.00137954 0.13265972 0.03240451 -3.6212E-4 -0.05205259 0.02128522 5.9521E-4 0.06368176 0.05357482 1.0832E-4 -0.17463538 0.03770174 6.3847E-4 0.67494443 -0.05772873 3.645E-4 0.02210011 -0.0169895 -4.0582E-4 -0.02743679 0.03134805 -8.533E-5 0.03056625 -0.12783027 4.7941E-4 0.03371636 0.71316556 3.5477E-4 0.0065649 4.3597E-4 -2.77E-5 -0.00646953 -1.2714E-4 5.558E-5 0.00818792 -2.0548E-4 2.9801E-4 -0.06348045 -9.3349E-4 -0.00209161 0.13549308 -0.0263452 -5.5105E-4 0.06613301 -0.02899641 -6.1862E-4 -0.05229594 0.07784205 -1.9222E-4 -0.0267784 -0.02995663 -4.4574E-4 -0.33064121 -0.03376388 0.00232617 0.6764895 -0.26630649 0.00121081 0.04473808 0.03044299 0.00100637 0.07519326 -0.06792025 2.642E-5 -1.3174E-4 0.03448986 -4.4981E-4 -0.07574773 -0.2780374 3.7813E-4 -0.05711178 0.6554635 0.00182355 -0.06834922 -0.00160596 5.3265E-4 0.00885105 5.6145E-4 -5.9132E-4 -0.00648184 -4.381E-5 1.7829E-4 0.00831959 -5.4892E-4 4.253E-4 -0.06252331 2.5939E-4 -0.00250582 0.13451293 0.11186132 -5.4402E-4 -0.1698133 0.03091244 -2.029E-5 -0.02642027 -0.00171622 6.129E-5 -0.00137663 -0.02851111 -3.53E-5 -0.02921852 -0.12155801 -7.543E-5 -0.18163313 0.00980193 0.00333556 0.72659055 -0.17616769 0.00281509 -0.05228962 -7.6275E-4 -4.4865E-4 -0.00683111 0.00212361 -0.00100048 0.00264801 -0.00110881 -1.4806E-4 -3.3072E-4 -6.4875E-4 2.306E-4 0.00364738 -0.0304392 0.00107678 -0.01591758 0.50346736 -0.00110639 -0.0696395 -7.1784E-4 -4.291E-4 0.00433945 -6.27E-6 -7.0973E-4 0.00666995 -9.0738E-4 8.134E-4 -0.00105103 4.8256E-4 -0.0010943 0.00676053 -2.3018E-4 -9.754E-5 0.00442336 -3.0992E-4 0.00938525 0.52915038 -0.05253227 0.00164669 -0.12000452 -0.0319355 0.00144088 -0.01832744 0.00226354 7.5846E-4 -0.00405427 -3.4906E-4 -8.594E-5 -6.3615E-4 0.00402003 -0.00128249 -0.00134877 0.00919178 -0.0010709 0.01140881 -0.04273186 0.00570326 0.54995562 0.00100012 -1.2842E-4 -0.00132788 -0.26377631 -8.7704E-4 0.11643542 -0.01916955 1.0996E-4 0.01582623 -0.00274201 -2.06E-5 -0.00429517 2.6868E-4 -2.63E-6 -6.6738E-4 0.00186232 -5.482E-5 -5.0187E-4 7.748E-4 -7.931E-5 -9.7502E-4 0.28104942 -5.4886E-4 0.00368042 -2.9947E-4 -9.2227E-4 -0.03629919 6.388E-4 6.391E-5 0.00309105 4.819E-5 -3.088E-5 0.00725028 2.216E-5 -3.125E-5 -8.7718E-4 -3.73E-5 1.6822E-4 0.00656658 -1.0616E-4 8.5957E-4 -0.00331763 -4.9361E-4 8.453E-4 0.02495803 0.0286069 7.317E-5 -0.01101799 0.11605107 2.7193E-4 -0.12439895 -0.01558693 1.715E-5 0.01136852 -0.00322261 4.347E-5 -8.2788E-4 -8.6922E-4 1.55E-6 -7.9411E-4 -0.00113337 4.442E-5 -0.00582475 0.00154401 6.0812E-4 0.00134304 -0.12527371 -4.8046E-4 0.12958215 -0.00432213 1.1095E-4 -0.00240032 0.00492205 8.755E-5 -0.02811708 -0.0592691 -1.0611E-4 0.00609533 0.00421196 -5.514E-5 0.02862753 -0.00464299 1.634E-5 0.00235184 -0.00127848 -1.143E-5 -4.217E-5 4.1513E-4 -1.163E-4 -0.00109302 9.2664E-4 -7.71E-6 4.811E-4 0.05833954 -8.33E-5 0.00741361 -2.0993E-4 -2.66E-6 0.00331821 1.383E-4 -1.5919E-4 -0.03672464 6.4273E-4 7.479E-5 0.00340861 -8.279E-5 3.806E-5 0.00707981 3.824E-5 -6.509E-5 -8.905E-4 -1.355E-5 1.5198E-4 1.0466E-4 2.19E-6 1.89E-5 -0.00411545 -2.156E-5 3.908E-5 0.0253813 -0.00313855 5.718E-5 8.8849E-4 0.00318308 3.298E-5 -0.01226086 0.00603267 5.3997E-4 -0.33345181 -0.00261756 4.549E-5 -0.01106538 0.00322461 8.5E-7 7.5172E-4 -9.459E-5 8.32E-6 7.7887E-4 4.3325E-4 -7.315E-5 -5.6986E-4 -3.3143E-4 -1.384E-5 8.5577E-4 -0.00653405 -6.1635E-4 0.35423734 9.536E-5 1.511E-5 8.7468E-4 -0.0029547 1.669E-5 0.00406194 -0.01849953 8.687E-5 -0.01677371 -0.26194035 6.4582E-4 -0.12151864 0.00392723 8.71E-6 0.00254958 0.00176761 2.524E-5 5.4319E-4 5.482E-5 -5.703E-5 -7.169E-5 -0.00104683 -1.072E-5 -8.0372E-4 9.3689E-4 -1.182E-5 3.193E-4 0.27686337 -1.2216E-4 -8.0389E-4 -7.449E-5 4.625E-5 0.00703207 5.439E-5 -6.049E-5 0.00282281 1.0229E-4 7.2468E-4 -0.03569279 3.6846E-4 -6.082E-5 0.00282664 -1.6489E-4 8.946E-5 0.00704398 -3.8E-5 1.5998E-4 -9.3272E-4 9.871E-5 -3.364E-5 2.6584E-4 -9.58E-6 -1.62E-6 -0.00398523 -1.194E-5 -7.4219E-4 0.02523017 8.732E-4 7.65E-6 -8.4339E-4 0.00307459 2.16E-6 -7.024E-4 0.01457713 -4.555E-5 0.0115532 -0.121518 3.211E-4 -0.13163094 -0.02880121 1.1302E-4 -0.01087575 0.00153166 -4.221E-5 -0.00542332 -7.048E-5 -3.095E-5 1.2895E-4 7.7171E-4 5.85E-6 3.6203E-4 -5.6894E-4 -3.06E-6 7.9678E-4 0.13112127 -3.5252E-4 0.13625988 -0.00258376 1.1075E-4 -0.00407102 2.6249E-4 -4.62E-6 -9.2069E-4 0.00187039 2.023E-5 -2.6759E-4 0.00317923 6.05E-6 -0.00206257 -0.26716086 0.00148512 0.11751577 -0.0188025 1.9114E-4 0.01591068 -6.2173E-4 -1.1374E-4 9.8603E-4 -6.128E-5 -8.73E-6 8.436E-5 6.66E-6 2.03E-6 -1.754E-4 7.2444E-4 -2.121E-5 4.3331E-4 0.28269922 -2.137E-4 0.0073989 2.02E-6 -4.936E-5 -8.9332E-4 -4.822E-5 6.017E-5 0.00708799 -3.717E-5 8.397E-5 0.00341294 5.466E-5 0.00155017 -0.03673166 -0.00110433 1.1217E-4 0.00331888 -7.311E-5 7.365E-5 1.0324E-4 1.3144E-4 5.6E-6 -0.00109238 -9.7E-6 1.4E-5 1.8906E-4 -4.9E-6 -2.189E-5 -0.00399133 1.067E-5 -0.00168945 0.02538961 -0.00333348 4.467E-5 -8.4934E-4 -8.6706E-4 -1.107E-5 -7.6198E-4 -0.00114094 -3.675E-5 -0.00575974 0.02918252 -1.9812E-4 -0.01003398 0.11757496 -0.00100886 -0.12555314 -0.01538949 1.3357E-4 0.0114709 -5.3518E-4 -6.502E-5 4.6536E-4 7.625E-5 5.21E-6 7.639E-5 0.00142821 7.58E-6 -6.6509E-4 -4.5447E-4 2.606E-5 0.00100973 -0.1268521 0.00107382 0.12986698 0.0029898 1.2075E-4 0.0274869 -0.00478609 5.168E-5 0.00243928 -0.00119876 5.6E-7 -8.383E-5 -0.00438548 4.783E-5 -0.00234277 0.00464775 -5.534E-5 -0.02835088 -0.05866838 -9.164E-5 0.00605892 0.00145328 4.9173E-4 0.0012335 9.659E-5 2.085E-5 0.00151012 1.1208E-4 -8.91E-6 -9.08E-6 3.386E-5 -2.937E-5 -0.00138323 9.3295E-4 -2.073E-5 4.7739E-4 0.05906316 -5.3184E-4 0.00368779 -4.7799E-4 2.672E-5 0.0065611 1.6837E-4 -4.614E-5 -8.7637E-4 -3.16E-6 1.937E-5 0.00723996 -5.843E-5 8.161E-5 0.00308309 3.932E-5 2.1051E-4 -0.03629411 -0.00234712 -4.793E-5 -0.00338692 0.00100317 4.565E-5 1.8627E-4 -8.19E-6 -2.61E-6 -0.00109047 -6.0E-6 1.49E-6 2.6747E-4 -1.286E-5 -2.974E-5 -0.00410848 1.911E-5 -1.3792E-4 0.02497806 -0.00242029 -2.1102E-4 -0.01306481 0.00306753 -1.0087E-4 8.2403E-4 1.209E-4 3.25E-6 6.7107E-4 -0.00341281 -5.683E-5 8.1885E-4 0.00305058 1.68E-5 -0.0124424 0.00647809 -0.00213548 -0.32949519 -0.00134673 -3.3625E-4 6.5465E-4 -4.685E-5 4.059E-5 -6.9047E-4 -1.709E-5 1.362E-5 -9.759E-5 1.9197E-4 -2.969E-5 -7.1824E-4 -3.357E-4 4.816E-5 8.4698E-4 -0.00621682 0.00234307 0.35158817 -0.01122604 0.02632345 -0.00633195 1.14E-5 -1.3174E-4 0.00148332 -0.00109393 -0.00105015 -8.562E-5 4.861E-5 1.8034E-4 -6.88E-4 8.581E-5 -0.00149744 2.4476E-4 -6.3857E-4 -5.681E-4 -0.00148843 -0.06399191 0.06988841 -0.0107831 1.8833E-4 4.3345E-4 -1.4667E-4 -5.948E-5 -1.001E-5 -7.156E-5 4.38E-6 1.5495E-4 -5.85E-6 -1.1655E-4 4.198E-5 -9.31E-6 -1.451E-4 7.3198E-4 2.8328E-4 0.07130899 0.00157322 0.00335453 9.6975E-4 4.425E-5 4.1084E-4 -7.3201E-4 4.5869E-4 1.1376E-4 2.2804E-4 -2.4801E-4 -4.706E-5 -1.3732E-4 3.9896E-4 1.0035E-4 2.8463E-4 -6.1017E-4 3.6544E-4 3.8846E-4 0.06663646 -0.27348893 0.03732407 6.126E-5 -3.0279E-4 7.24E-6 3.485E-5 1.937E-5 2.789E-5 2.05E-5 -9.373E-5 1.353E-5 4.026E-5 2.046E-5 1.708E-5 2.475E-5 -2.8952E-4 5.764E-5 -0.07528462 0.29788531 -0.00658956 0.0157638 -0.00386848 -0.00176262 -5.8844E-4 -6.0424E-4 8.9318E-4 -0.00111106 3.571E-5 -7.0188E-4 1.127E-4 7.8864E-4 -7.2743E-4 -3.9127E-4 -0.00116069 0.00175851 1.7947E-4 -5.477E-5 -0.01083538 0.03927831 -0.05086767 1.1937E-4 5.864E-4 -2.4275E-4 -3.308E-5 5.341E-5 -6.904E-5 -3.2E-6 8.744E-5 8.9E-6 -4.557E-5 -3.718E-5 -1.922E-5 3.203E-5 8.613E-5 1.0683E-4 0.01511201 -0.0422424 0.05326782 -0.02186469 -0.01160004 0.01469841 0.00151419 7.5594E-4 0.0025328 -3.9033E-4 6.5393E-4 -2.4568E-4 2.3261E-4 -1.1219E-4 -2.5874E-4 -6.3814E-4 8.139E-4 0.00103936 -0.00334401 -7.0643E-4 -0.00414151 -0.1836243 -0.08868461 0.09533663 5.5163E-4 -6.273E-4 -9.9194E-4 3.8E-6 -2.321E-5 -2.032E-5 3.657E-5 -1.2892E-4 -9.165E-5 -3.7125E-4 3.398E-5 -1.9549E-4 1.8576E-4 -2.8805E-4 -9.251E-5 0.00728344 0.00361807 -0.00512728 0.20263945 0.00356734 2.2499E-4 -0.00110564 2.261E-5 5.8746E-4 4.2414E-4 -2.4756E-4 -7.75E-5 -1.6281E-4 1.3419E-4 7.56E-6 -4.9639E-4 6.8566E-4 7.23E-5 5.3631E-4 1.4305E-4 5.8707E-4 -5.542E-5 -0.0904115 -0.10162804 0.06045823 8.98E-6 4.733E-5 -4.2867E-4 -2.611E-5 -2.894E-5 -1.179E-5 2.36E-5 5.44E-6 -1.327E-5 3.385E-5 -7.368E-5 9.58E-6 -4.687E-5 -2.346E-5 1.4025E-4 -0.02297633 -0.01428748 0.01647801 0.09691758 0.10704733 -0.01296591 -0.00915948 0.00922389 -0.00125924 -6.829E-5 6.566E-4 3.5432E-4 -2.9588E-4 3.7608E-4 -2.6348E-4 -1.1299E-4 9.6E-5 -5.2068E-4 4.3292E-4 3.8802E-4 -0.00170156 2.4438E-4 -0.00178188 0.09746621 0.06092166 -0.11580473 2.2297E-4 2.8024E-4 -1.6347E-4 5.865E-5 3.402E-5 3.14E-5 3.468E-5 9.708E-5 1.673E-5 -1.5901E-4 2.916E-5 -8.771E-5 -3.0904E-4 -7.926E-5 2.6605E-4 0.00282583 0.00174048 -0.00288827 -0.10374269 -0.06867542 0.12314136 0.00315421 -0.01313292 -0.02651039 -0.00464177 -9.934E-5 -0.0011031 4.038E-4 7.3736E-4 -0.00108931 -8.767E-5 -1.4739E-4 -6.583E-5 2.3356E-4 3.356E-5 1.42E-6 0.00140899 2.7661E-4 -0.00121159 -0.05092386 0.01190924 0.02744001 7.744E-5 -2.0358E-4 -2.4939E-4 -3.0256E-4 3.934E-5 -2.0035E-4 -3.13E-6 2.51E-5 5.649E-5 4.255E-5 1.944E-5 3.819E-5 -3.3141E-4 -3.31E-5 6.9645E-4 -0.00165939 0.00323152 0.00791093 -0.00221472 0.0121715 0.01995894 0.05484396 7.1548E-4 9.913E-5 0.00362748 1.763E-5 6.4026E-4 1.3524E-4 7.9469E-4 9.754E-5 3.4685E-4 -3.7298E-4 1.154E-5 3.4961E-4 -2.5455E-4 -8.649E-5 -1.3974E-4 3.8328E-4 5.5011E-4 -1.67E-4 0.01066725 -0.0981068 -0.10563417 1.0081E-4 -4.117E-5 -1.089E-4 2.426E-5 -7.939E-5 2.53E-5 -3.6E-7 5.29E-6 2.644E-5 -2.195E-5 -3.022E-5 -1.684E-5 -3.6738E-4 6.56E-5 2.0676E-4 0.00376383 -0.01376057 -0.02825532 -6.2265E-4 0.00753962 0.01461142 -0.01482735 0.10309552 0.00152785 -0.00568367 -0.01569886 -0.00351528 -7.2894E-4 -5.5566E-4 5.178E-4 4.7923E-4 -6.2847E-4 -8.717E-5 -4.177E-5 4.1235E-4 -5.7568E-4 6.9689E-4 -2.3872E-4 0.00261694 6.8073E-4 7.9262E-4 0.02514981 -0.10431694 -0.25234303 -3.263E-5 -1.9659E-4 3.7247E-4 -2.369E-4 1.716E-5 -1.6073E-4 -7.118E-5 -1.5332E-4 5.782E-5 -4.052E-5 -3.533E-5 -6.13E-6 -5.425E-4 -6.6615E-4 7.3206E-4 -3.3871E-4 0.00205292 0.00556725 0.00130062 -0.0070971 -0.01347008 -0.02567245 0.11499288 0.2751671</array><array dataType="xsd:double" size="45" dictRef="x:unknown">-2.3808E-4 1.172E-5 -1.451E-4 -9.159E-5 -1.144E-5 1.5388E-4 -2.105E-5 1.734E-5 1.7873E-4 1.5803E-4 -1.284E-5 9.245E-5 1.4953E-4 1.653E-5 -1.0014E-4 8.887E-5 -1.365E-5 -1.5316E-4 1.453E-4 -5.453E-5 8.486E-5 -6.536E-5 1.35E-6 2.95E-6 2.135E-5 1.65E-6 6.815E-5 5.96E-5 -4.6E-6 3.576E-5 6.996E-5 1.74E-6 -1.375E-5 -2.791E-5 1.47E-6 -5.88E-5 -8.766E-5 9.6E-6 -5.057E-5 -8.083E-5 1.725E-5 -4.728E-5 -8.015E-5 1.84E-5 -4.797E-5</array></module> A MATHEMATICIAN IS A MACHINE FOR TURNING COFFEE INTO THEOREMS.     -- QUOTED BY PAUL ERDOS<module cmlx:lineCount="3" cmlx:templateRef="jobcpu"><scalar dictRef="cc:jobtime" dataType="xsd:string">PT12378.500S</scalar><scalar dataType="xsd:date" dictRef="cc:jobdatetime.end">2006-08-31T12:23:50Z</scalar><scalar dataType="xsd:string" dictRef="cc:program">Gaussian 03</scalar></module></module>
