<?xml version="1.0" encoding="UTF-8"?>
<module templateRef="nwchem.log" xmlns="http://www.xml-cml.org/schema"> argument  1 = /u/d3g681/jobs/aump2.nw                                                                                    <module lineCount="19" templateRef="nccp"><list templateRef="title"><scalar dataType="xsd:string" dictRef="n:title">Northwest Computational Chemistry Package (NWChem) 3.2</scalar></list></module><module lineCount="14" templateRef="ignore"><list templateRef="r1"><scalar dataType="xsd:string" dictRef="n:title">DISCLAIMER</scalar></list></module>                                    LIMITED USE                                    -----------            This software (including any documentation) is being made            available to you for your internal use only, solely for use            in performance of work directly for the U.S. Federal            Government or work under contracts with the U.S. Department            of Energy or other U.S. Federal Government agencies.  This            software is a version which has not yet been evaluated and            cleared for commercialization.  Adherence to this notice            may be necessary for the author, Battelle Memorial            Institute, to successfully assert copyright in and            commercialize this software. This software is not intended            for duplication or distribution to third parties without            the permission of the Manager of Software Products at            Pacific Northwest National Laboratory, Richland,            Washington, 99352.<module lineCount="13" templateRef="ignore"><list templateRef="r1"><scalar dataType="xsd:string" dictRef="n:title">ACKNOWLEDGMENT</scalar></list></module><module lineCount="17" templateRef="job"><list templateRef="list1"><scalar dictRef="n:hostname" dataType="xsd:string">et1307.nwmpp1.emsl.pnl.gov</scalar><scalar dictRef="n:program" dataType="xsd:string">/scratch/nwchem</scalar><scalar dictRef="n:date" dataType="xsd:string">Wed Jul  8 14:40:23 1998</scalar></list><list templateRef="list2"><scalar dictRef="n:compiled" dataType="xsd:string">Wed Jul  8 10:53:24 PDT 1998</scalar><scalar dictRef="n:source" dataType="xsd:string">/u/d3g681/nwchem</scalar><scalar dictRef="n:input" dataType="xsd:string">/u/d3g681/jobs/aump2.nw</scalar><scalar dictRef="n:prefix" dataType="xsd:string">Au+.</scalar><scalar dictRef="n:data base" dataType="xsd:string">./Au+.db</scalar><scalar dictRef="n:status" dataType="xsd:string">startup</scalar><scalar dictRef="n:nproc" dataType="xsd:string">32</scalar><scalar dictRef="n:time left" dataType="xsd:string">28774s</scalar></list></module><module lineCount="11" templateRef="memory"/><module lineCount="6" templateRef="dirinfo">   0 permanent = .  0 scratch   = /scratch </module>              Au+, Au(14s,10p,8d,3f,2g,1h) -&gt; [11s,10p,8d,3f,2g,1h]              -----------------------------------------------------   <module lineCount="9" templateRef="geom">    1 Au                  79.0000      .00000000      .00000000      .00000000 </module><module lineCount="8" templateRef="atmass"><list lineCount="1" templateRef="atmass"><array dataType="xsd:string" dictRef="n:tag" size="1" delimiter="">Au</array><array dataType="xsd:double" dictRef="n:mass" size="1" delimiter="">196.9666</array></list>  Effective nuclear repulsion energy (a.u.)        .0000000000</module><module lineCount="6" templateRef="nucdipole">      .0000000000      .0000000000      .0000000000 </module><module lineCount="12" templateRef="symminfo"><list templateRef="symminfo"><scalar dictRef="n:Group name" dataType="xsd:string">D2h</scalar><scalar dictRef="n:Group number" dataType="xsd:string">26</scalar><scalar dictRef="n:Group order" dataType="xsd:string">8</scalar><scalar dictRef="n:No. of unique centers" dataType="xsd:string">1</scalar></list><list templateRef="symmuniqatom"><scalar dataType="xsd:string" dictRef="n:row">1</scalar><scalar dataType="xsd:string" dictRef="n:row"/></list></module>                 ECP       "ecp basis" -&gt; ""                      -----    ECP Basis is spherical, 5d, 7f, 9g ...   Au (Gold) Replaces    60 electrons  ----------------------------------          R-exponent    Exponent     Coefficients          ------------ ------------------------------------------------------------  1 U-s      2.00       13.205100     426.709840  1 U-s      2.00        6.602550      35.938820   2 U-p      2.00       10.452020     261.161020  2 U-p      2.00        5.226010      26.626280   3 U-d      2.00        7.851100     124.756830  3 U-d      2.00        3.925550      15.772260   4 U-f      2.00        4.789800      30.568470  4 U-f      2.00        2.394910       5.183770 <module lineCount="21" templateRef="scf">                                 NWChem SCF Module                                 -----------------                 Au+, Au(14s,10p,8d,3f,2g,1h) -&gt; [11s,10p,8d,3f,2g,1h]    ao basis        = "ao basis"  functions       =   131  atoms           =     1  closed shells   =     9  open shells     =     0  charge          =   1.00  wavefunction    = RHF   input vectors   = atomic  output vectors  = ./Au+.movecs  use symmetry    = T  symmetry adapt  = T</module><module lineCount="7" templateRef="summary"><scalar dataType="xsd:string" dictRef="n:title" templateRef="basis">"ao basis" -&gt; "ao basis" (spherical)</scalar><list templateRef="orbs"><scalar dataType="xsd:string" dictRef="n:tag">Au</scalar><scalar dataType="xsd:string" dictRef="n:desc">user specified</scalar><scalar dataType="xsd:integer" dictRef="n:shell">35</scalar><scalar dataType="xsd:integer" dictRef="n:func">131</scalar><scalar dataType="xsd:string" dictRef="n:type">11s10p8d3f2g1h</scalar></list></module><module lineCount="16" templateRef="symbas">      Symmetry analysis of basis      --------------------------         ag         33        au          5        b1g        12        b1u        19        b2g        12        b2u        19        b3g        12        b3u        19  Forming initial guess at      24.1s </module><module lineCount="7" templateRef="superposatomguess"><scalar dataType="xsd:double" dictRef="n:sumatomener" templateRef="nullId">-194.59408349</scalar> Renormalizing density from    19.00 to   18 </module><module lineCount="10" templateRef="nonvarinitener"><list templateRef="ener"><scalar dictRef="n:Total energy" dataType="xsd:string">489.451832</scalar><scalar dictRef="n:1-e energy" dataType="xsd:string">388.694056</scalar><scalar dictRef="n:2-e energy" dataType="xsd:string">100.757776</scalar><scalar dictRef="n:HOMO" dataType="xsd:string">-1.291045</scalar><scalar dictRef="n:LUMO" dataType="xsd:string">-1.106897</scalar></list>  </module><module lineCount="26" templateRef="symmolorb"> !! scf_movecs_sym_adapt:   92 vectors were symmetry contaminated  Symmetry fudging !! scf_movecs_sym_adapt:   60 vectors were symmetry contaminated<module lineCount="4" templateRef="numbering"><list templateRef="symmList"><scalar dataType="xsd:string" dictRef="n:symm">1 ag          2 au          3 b1g         4 b1u         5 b2g</scalar><scalar dataType="xsd:string" dictRef="n:symm">6 b2u         7 b3g         8 b3u</scalar></list></module> <module lineCount="6" templateRef="orbitalSymmetry"><list templateRef="symmList"><scalar dataType="xsd:string" dictRef="n:symm">1 ag          2 b3u         3 b2u         4 b1u         5 b2g</scalar><scalar dataType="xsd:string" dictRef="n:symm">6 b3g         7 ag          8 b1g         9 ag         10 ag</scalar><scalar dataType="xsd:string" dictRef="n:symm">11 b3u        12 b2u        13 b1u        14 ag         15 ag</scalar><scalar dataType="xsd:string" dictRef="n:symm">16 b1g        17 b2g        18 b3g        19 ag</scalar></list></module>  Starting SCF solution at      54.3s</module> ----------------------------------------------         Quadratically convergent ROHF Convergence threshold     :          1.000E-06 Maximum no. of iterations :           20 Final Fock-matrix accuracy:          1.000E-08 ---------------------------------------------- Integral file          = /scratch/Au+.aoints.00 Record size in doubles =  32769        No. of integs per rec  =  21844 Max. records in memory =      8        Max. records in file   =   8392 No. of bits per label  =      8        No. of bits per value  =     64 #quartets = 1.988D+05 #integrals = 3.640D+06 #direct =   .0% #cached =100.0%File balance: exchanges=    48  moved=    27  time=    .0              iter       energy          gnorm     gmax       time             ----- ------------------- --------- --------- --------                 1     -132.8845889196  1.03D+01  2.87D+00    108.9                 2     -134.6460233493  7.09D-01  2.14D-01    112.9                 3     -134.6825437118  3.14D-01  8.89D-02    115.8                 4     -134.6843335126  3.44D-03  8.56D-04    121.8                 5     -134.6843340439  5.71D-06  1.62D-06    127.5                 6     -134.6843340439  1.73D-08  4.89D-09    132.2<module lineCount="12" templateRef="finalrhf">       Final RHF  results        ------------------          Total SCF energy =   -134.684334043866      One-electron energy =   -233.466922651842      Two-electron energy =     98.782588607976 Nuclear repulsion energy =       .000000000000        Time for solution =     81.8s </module><module lineCount="15" templateRef="symmolorb"><module lineCount="4" templateRef="numbering"><list templateRef="symmList"><scalar dataType="xsd:string" dictRef="n:symm">1 ag          2 au          3 b1g         4 b1u         5 b2g</scalar><scalar dataType="xsd:string" dictRef="n:symm">6 b2u         7 b3g         8 b3u</scalar></list></module> <module lineCount="6" templateRef="orbitalSymmetry"><list templateRef="symmList"><scalar dataType="xsd:string" dictRef="n:symm">1 ag          2 b3u         3 b2u         4 b1u         5 ag</scalar><scalar dataType="xsd:string" dictRef="n:symm">6 b1g         7 b2g         8 b3g         9 ag         10 ag</scalar><scalar dataType="xsd:string" dictRef="n:symm">11 b3u        12 b2u        13 b1u        14 ag         15 ag</scalar><scalar dataType="xsd:string" dictRef="n:symm">16 b1g        17 ag         18 b2g        19 b3g</scalar></list></module> </module><module lineCount="24" templateRef="eigen">             Final eigenvalues             -----------------              1          1   -5.0081    2   -3.0370    3   -3.0370    4   -3.0370    5    -.7664    6    -.7664    7    -.7664    8    -.7664    9    -.7664   10    -.2738   11    -.1241   12    -.1241   13    -.1241   14    -.0832   15    -.0460   16    -.0460   17    -.0460   18    -.0460   19    -.0460 </module><module lineCount="241" templateRef="rohffinal">                       ROHF Final Molecular Orbital Analysis                       -------------------------------------  Vector    2  Occ=2.000000D+00  E=-3.036992D+00  Symmetry=b3u   Bfn.  Coefficient  Atom+Function         Bfn.  Coefficient  Atom+Function    ----- ------------  ---------------      ----- ------------  ---------------    24       .691291  1 Au px                18      -.358797  1 Au px             21       .309698  1 Au px                27       .220256  1 Au px           Vector    3  Occ=2.000000D+00  E=-3.036992D+00  Symmetry=b2u   Bfn.  Coefficient  Atom+Function         Bfn.  Coefficient  Atom+Function    ----- ------------  ---------------      ----- ------------  ---------------    25       .691291  1 Au py                19      -.358797  1 Au py             22       .309698  1 Au py                28       .220256  1 Au py           Vector    4  Occ=2.000000D+00  E=-3.036992D+00  Symmetry=b1u   Bfn.  Coefficient  Atom+Function         Bfn.  Coefficient  Atom+Function    ----- ------------  ---------------      ----- ------------  ---------------    26       .691291  1 Au pz                20      -.358797  1 Au pz             23       .309698  1 Au pz                29       .220256  1 Au pz           Vector    5  Occ=2.000000D+00  E=-7.663507D-01  Symmetry=ag   Bfn.  Coefficient  Atom+Function         Bfn.  Coefficient  Atom+Function    ----- ------------  ---------------      ----- ------------  ---------------    61       .500455  1 Au d  2              66       .345318  1 Au d  2           56       .273447  1 Au d  2         Vector    6  Occ=2.000000D+00  E=-7.663507D-01  Symmetry=b1g   Bfn.  Coefficient  Atom+Function         Bfn.  Coefficient  Atom+Function    ----- ------------  ---------------      ----- ------------  ---------------    57       .500457  1 Au d -2              62       .345319  1 Au d -2           52       .273449  1 Au d -2         Vector    7  Occ=2.000000D+00  E=-7.663507D-01  Symmetry=b2g   Bfn.  Coefficient  Atom+Function         Bfn.  Coefficient  Atom+Function    ----- ------------  ---------------      ----- ------------  ---------------    60       .500457  1 Au d  1              65       .345319  1 Au d  1           55       .273449  1 Au d  1         Vector    8  Occ=2.000000D+00  E=-7.663507D-01  Symmetry=b3g   Bfn.  Coefficient  Atom+Function         Bfn.  Coefficient  Atom+Function    ----- ------------  ---------------      ----- ------------  ---------------    58       .500457  1 Au d -1              63       .345319  1 Au d -1           53       .273449  1 Au d -1         Vector    9  Occ=2.000000D+00  E=-7.663507D-01  Symmetry=ag   Bfn.  Coefficient  Atom+Function         Bfn.  Coefficient  Atom+Function    ----- ------------  ---------------      ----- ------------  ---------------    59       .500455  1 Au d  0              64       .345318  1 Au d  0           54       .273447  1 Au d  0         Vector   10  Occ=0.000000D+00  E=-2.737631D-01  Symmetry=ag   Bfn.  Coefficient  Atom+Function         Bfn.  Coefficient  Atom+Function    ----- ------------  ---------------      ----- ------------  ---------------     7       .534858  1 Au s                  8       .451885  1 Au s               4      -.439693  1 Au s                  2       .338801  1 Au s               5      -.179639  1 Au s                  6       .170929  1 Au s            Vector   11  Occ=0.000000D+00  E=-1.240633D-01  Symmetry=b3u   Bfn.  Coefficient  Atom+Function         Bfn.  Coefficient  Atom+Function    ----- ------------  ---------------      ----- ------------  ---------------    36       .475151  1 Au px                39       .326236  1 Au px             33       .273921  1 Au px           Vector   12  Occ=0.000000D+00  E=-1.240633D-01  Symmetry=b2u   Bfn.  Coefficient  Atom+Function         Bfn.  Coefficient  Atom+Function    ----- ------------  ---------------      ----- ------------  ---------------    37       .475151  1 Au py                40       .326236  1 Au py             34       .273921  1 Au py           Vector   13  Occ=0.000000D+00  E=-1.240633D-01  Symmetry=b1u   Bfn.  Coefficient  Atom+Function         Bfn.  Coefficient  Atom+Function    ----- ------------  ---------------      ----- ------------  ---------------    38       .475151  1 Au pz                41       .326236  1 Au pz             35       .273921  1 Au pz           Vector   14  Occ=0.000000D+00  E=-8.315755D-02  Symmetry=ag   Bfn.  Coefficient  Atom+Function         Bfn.  Coefficient  Atom+Function    ----- ------------  ---------------      ----- ------------  ---------------    10       .989237  1 Au s                  8      -.568065  1 Au s               7      -.281727  1 Au s                  9       .247978  1 Au s               4       .157285  1 Au s            Vector   15  Occ=0.000000D+00  E=-4.596356D-02  Symmetry=ag   Bfn.  Coefficient  Atom+Function         Bfn.  Coefficient  Atom+Function    ----- ------------  ---------------      ----- ------------  ---------------    81      1.035266  1 Au d  2         Vector   16  Occ=0.000000D+00  E=-4.596356D-02  Symmetry=b1g   Bfn.  Coefficient  Atom+Function         Bfn.  Coefficient  Atom+Function    ----- ------------  ---------------      ----- ------------  ---------------    77      1.035266  1 Au d -2         Vector   17  Occ=0.000000D+00  E=-4.596356D-02  Symmetry=ag   Bfn.  Coefficient  Atom+Function         Bfn.  Coefficient  Atom+Function    ----- ------------  ---------------      ----- ------------  ---------------    79      1.035266  1 Au d  0         Vector   18  Occ=0.000000D+00  E=-4.596356D-02  Symmetry=b2g   Bfn.  Coefficient  Atom+Function         Bfn.  Coefficient  Atom+Function    ----- ------------  ---------------      ----- ------------  ---------------    80      1.035266  1 Au d  1         Vector   19  Occ=0.000000D+00  E=-4.596356D-02  Symmetry=b3g   Bfn.  Coefficient  Atom+Function         Bfn.  Coefficient  Atom+Function    ----- ------------  ---------------      ----- ------------  ---------------    78      1.035266  1 Au d -1         Vector   20  Occ=0.000000D+00  E=-4.114152D-02  Symmetry=ag   Bfn.  Coefficient  Atom+Function         Bfn.  Coefficient  Atom+Function    ----- ------------  ---------------      ----- ------------  ---------------    10      2.625479  1 Au s                 11     -2.483015  1 Au s               8      -.295336  1 Au s                  7      -.274571  1 Au s            Vector   21  Occ=0.000000D+00  E=-4.037265D-02  Symmetry=b2u   Bfn.  Coefficient  Atom+Function         Bfn.  Coefficient  Atom+Function    ----- ------------  ---------------      ----- ------------  ---------------    40      1.704342  1 Au py                37     -1.480350  1 Au py             31      -.204256  1 Au py           Vector   22  Occ=0.000000D+00  E=-4.037265D-02  Symmetry=b3u   Bfn.  Coefficient  Atom+Function         Bfn.  Coefficient  Atom+Function    ----- ------------  ---------------      ----- ------------  ---------------    39      1.704342  1 Au px                36     -1.480350  1 Au px             30      -.204256  1 Au px           Vector   23  Occ=0.000000D+00  E=-4.037265D-02  Symmetry=b1u   Bfn.  Coefficient  Atom+Function         Bfn.  Coefficient  Atom+Function    ----- ------------  ---------------      ----- ------------  ---------------    41      1.704342  1 Au pz                38     -1.480350  1 Au pz             32      -.204256  1 Au pz           Vector   24  Occ=0.000000D+00  E= 1.843183D-03  Symmetry=ag   Bfn.  Coefficient  Atom+Function         Bfn.  Coefficient  Atom+Function    ----- ------------  ---------------      ----- ------------  ---------------     9      8.129307  1 Au s                 10     -7.410495  1 Au s               8     -3.954529  1 Au s                 11      2.790947  1 Au s               7       .778871  1 Au s                  6      -.513723  1 Au s               5       .275756  1 Au s            Vector   25  Occ=0.000000D+00  E= 7.575540D-02  Symmetry=b1g   Bfn.  Coefficient  Atom+Function         Bfn.  Coefficient  Atom+Function    ----- ------------  ---------------      ----- ------------  ---------------    72      1.754774  1 Au d -2              77     -1.130510  1 Au d -2           67      -.375168  1 Au d -2         Vector   26  Occ=0.000000D+00  E= 7.575540D-02  Symmetry=ag   Bfn.  Coefficient  Atom+Function         Bfn.  Coefficient  Atom+Function    ----- ------------  ---------------      ----- ------------  ---------------    76      1.754774  1 Au d  2              81     -1.130510  1 Au d  2           71      -.375168  1 Au d  2         Vector   27  Occ=0.000000D+00  E= 7.575540D-02  Symmetry=b2g   Bfn.  Coefficient  Atom+Function         Bfn.  Coefficient  Atom+Function    ----- ------------  ---------------      ----- ------------  ---------------    75      1.754774  1 Au d  1              80     -1.130510  1 Au d  1           70      -.375168  1 Au d  1         Vector   28  Occ=0.000000D+00  E= 7.575540D-02  Symmetry=b3g   Bfn.  Coefficient  Atom+Function         Bfn.  Coefficient  Atom+Function    ----- ------------  ---------------      ----- ------------  ---------------    73      1.754774  1 Au d -1              78     -1.130510  1 Au d -1           68      -.375168  1 Au d -1         Vector   29  Occ=0.000000D+00  E= 7.575540D-02  Symmetry=ag   Bfn.  Coefficient  Atom+Function         Bfn.  Coefficient  Atom+Function    ----- ------------  ---------------      ----- ------------  ---------------    74      1.754774  1 Au d  0              79     -1.130510  1 Au d  0           69      -.375168  1 Au d  0         Vector   30  Occ=0.000000D+00  E= 1.134408D-01  Symmetry=b3u   Bfn.  Coefficient  Atom+Function         Bfn.  Coefficient  Atom+Function    ----- ------------  ---------------      ----- ------------  ---------------    36      3.449203  1 Au px                33     -2.928930  1 Au px             39     -1.465915  1 Au px                30       .678850  1 Au px             24       .293066  1 Au px                27      -.224024  1 Au px           Vector   31  Occ=0.000000D+00  E= 1.134408D-01  Symmetry=b2u   Bfn.  Coefficient  Atom+Function         Bfn.  Coefficient  Atom+Function    ----- ------------  ---------------      ----- ------------  ---------------    37      3.449203  1 Au py                34     -2.928930  1 Au py             40     -1.465915  1 Au py                31       .678850  1 Au py             25       .293066  1 Au py                28      -.224024  1 Au py           Vector   32  Occ=0.000000D+00  E= 1.134408D-01  Symmetry=b1u   Bfn.  Coefficient  Atom+Function         Bfn.  Coefficient  Atom+Function    ----- ------------  ---------------      ----- ------------  ---------------    38      3.449203  1 Au pz                35     -2.928930  1 Au pz             41     -1.465915  1 Au pz                32       .678850  1 Au pz             26       .293066  1 Au pz                29      -.224024  1 Au pz           Vector   33  Occ=0.000000D+00  E= 1.657851D-01  Symmetry=ag   Bfn.  Coefficient  Atom+Function         Bfn.  Coefficient  Atom+Function    ----- ------------  ---------------      ----- ------------  ---------------     8     11.273819  1 Au s                  9     -9.477172  1 Au s               7     -7.531369  1 Au s                 10      4.977360  1 Au s               6      2.351631  1 Au s                 11     -1.378540  1 Au s               5      -.762507  1 Au s                  4       .701169  1 Au s               2      -.194479  1 Au s            Vector   34  Occ=0.000000D+00  E= 4.669842D-01  Symmetry=ag   Bfn.  Coefficient  Atom+Function         Bfn.  Coefficient  Atom+Function    ----- ------------  ---------------      ----- ------------  ---------------    71      2.204840  1 Au d  2              76     -1.705734  1 Au d  2           66      -.753111  1 Au d  2              81       .618145  1 Au d  2           56      -.181088  1 Au d  2         Vector   35  Occ=0.000000D+00  E= 4.669842D-01  Symmetry=b1g   Bfn.  Coefficient  Atom+Function         Bfn.  Coefficient  Atom+Function    ----- ------------  ---------------      ----- ------------  ---------------    67      2.204840  1 Au d -2              72     -1.705735  1 Au d -2           62      -.753111  1 Au d -2              77       .618145  1 Au d -2           52      -.181088  1 Au d -2         Vector   36  Occ=0.000000D+00  E= 4.669842D-01  Symmetry=b2g   Bfn.  Coefficient  Atom+Function         Bfn.  Coefficient  Atom+Function    ----- ------------  ---------------      ----- ------------  ---------------    70      2.204840  1 Au d  1              75     -1.705735  1 Au d  1           65      -.753111  1 Au d  1              80       .618145  1 Au d  1           55      -.181088  1 Au d  1         Vector   37  Occ=0.000000D+00  E= 4.669842D-01  Symmetry=b3g   Bfn.  Coefficient  Atom+Function         Bfn.  Coefficient  Atom+Function    ----- ------------  ---------------      ----- ------------  ---------------    68      2.204840  1 Au d -1              73     -1.705735  1 Au d -1           63      -.753111  1 Au d -1              78       .618145  1 Au d -1           53      -.181088  1 Au d -1         Vector   38  Occ=0.000000D+00  E= 4.669842D-01  Symmetry=ag   Bfn.  Coefficient  Atom+Function         Bfn.  Coefficient  Atom+Function    ----- ------------  ---------------      ----- ------------  ---------------    69      2.204840  1 Au d  0              74     -1.705734  1 Au d  0           64      -.753111  1 Au d  0              79       .618145  1 Au d  0           54      -.181088  1 Au d  0         Vector   39  Occ=0.000000D+00  E= 5.011874D-01  Symmetry=b3u   Bfn.  Coefficient  Atom+Function         Bfn.  Coefficient  Atom+Function    ----- ------------  ---------------      ----- ------------  ---------------   102       .997352  1 Au f  3         </module><module lineCount="10" templateRef="mulliken">  Mulliken analysis of the total density  --------------------------------------    Atom       Charge   Shell Charges -----------   ------   -------------------------------------------------------    1 Au  19    18.00    .05  -.52   .33  1.71   .42   .02  -.01   .00   .00   .00   .00   .00   .03  -.68  1.34  4.07  1.16   .09  -.01   .00   .00   .00  -.25  1.86  4.77  2.97   .64   .00   .00   .00   .00   .00   .00   .00   .00 Parallel integral file used     182 records with       0 large values</module>                   NWChem MP2 Semi-direct Energy/Gradient Module                   ---------------------------------------------                 Au+, Au(14s,10p,8d,3f,2g,1h) -&gt; [11s,10p,8d,3f,2g,1h]   Read molecular orbitals from ./Au+.movecs  Basis functions       =    131  Molecular orbitals    =    131  Frozen core           =      0  Frozen virtuals       =      0  Active alpha occupied =      9  Active beta occupied  =      9  Active alpha virtual  =    122  Active beta virtual   =    122  Use MO symmetry       = T  Use skeleton AO sym   = T GA uses MA = T    GA memory limited = F Available: local mem=  11563443 global mem=         0 local disk=257036800.   1 passes of   9:      2901740                     0               326302.  Semi-direct pass number   1 of   1  for RHF alpha+beta  at      173.0sNode 0 wrote      2.5 Mb in       .0 s     Agg I/O rate:    NaNQ Mb/s Done moints_semi at      548.5s Done maket at      550.1s Done multipass loop at      550.2s          -------------------------------------------          SCF energy                -134.684334043866          Correlation energy           -.677993809104          Total MP2 energy          -135.362327852970          ------------------------------------------- ----------------------- Performance information ----------------------- Timer overhead =  8.00D-06 seconds/call                                   Nr. of calls                 CPU time (s)              Wall time (s)                               -------------------------      ---------------------      --------------------- Name                        Min        Avg        Max      Min      Avg      Max      Min      Avg      Max mp2: moints                   1          1          1 3.71E+02 3.75E+02 3.75E+02   3.76E+02 3.76E+02 3.76E+02 mp2: maket                    1          1          1  1.3      1.6      1.6        1.6      1.6      1.6     mp2: total                    1          1          1 4.03E+02 4.06E+02 4.07E+02   4.07E+02 4.07E+02 4.07E+02 The average no. of pstat calls per process was 3.00D+00 with a timing overhead of 2.40D-05s Task  times  cpu:      543.0s     wall:      549.5s<module lineCount="21" templateRef="scf">                                 NWChem SCF Module                                 -----------------                 Au+, Au(14s,10p,8d,3f,2g,1h) -&gt; [11s,10p,8d,3f,2g,1h]    ao basis        = "ao basis"  functions       =   131  atoms           =     1  closed shells   =     9  open shells     =     0  charge          =   1.00  wavefunction    = RHF   input vectors   = ./Au+.movecs  output vectors  = ./Au+.movecs  use symmetry    = T  symmetry adapt  = T</module><module lineCount="7" templateRef="summary"><scalar dataType="xsd:string" dictRef="n:title" templateRef="basis">"ao basis" -&gt; "ao basis" (spherical)</scalar><list templateRef="orbs"><scalar dataType="xsd:string" dictRef="n:tag">Au</scalar><scalar dataType="xsd:string" dictRef="n:desc">user specified</scalar><scalar dataType="xsd:integer" dictRef="n:shell">35</scalar><scalar dataType="xsd:integer" dictRef="n:func">131</scalar><scalar dataType="xsd:string" dictRef="n:type">11s10p8d3f2g1h</scalar></list></module><module lineCount="20" templateRef="symbas">      Symmetry analysis of basis      --------------------------         ag         33        au          5        b1g        12        b1u        19        b2g        12        b2u        19        b3g        12        b3u        19   The SCF is already converged          Total SCF energy =   -134.684334043866 Read molecular orbitals from ./Au+.movecs</module><module lineCount="15" templateRef="directmp2"/>          -------------------------------------------          SCF energy                -134.684334043866          Correlation energy           -.677993809104          Total MP2 energy          -135.362327852970          -------------------------------------------          Total MP2 time:         102.38 Task  times  cpu:      105.0s     wall:      105.2s<module lineCount="21" templateRef="scf">                                 NWChem SCF Module                                 -----------------                 Au+, Au(14s,10p,8d,3f,2g,1h) -&gt; [11s,10p,8d,3f,2g,1h]    ao basis        = "ao basis"  functions       =   131  atoms           =     1  closed shells   =     9  open shells     =     0  charge          =   1.00  wavefunction    = RHF   input vectors   = ./Au+.movecs  output vectors  = ./Au+.movecs  use symmetry    = T  symmetry adapt  = T</module><module lineCount="7" templateRef="summary"><scalar dataType="xsd:string" dictRef="n:title" templateRef="basis">"ao basis" -&gt; "ao basis" (spherical)</scalar><list templateRef="orbs"><scalar dataType="xsd:string" dictRef="n:tag">Au</scalar><scalar dataType="xsd:string" dictRef="n:desc">user specified</scalar><scalar dataType="xsd:integer" dictRef="n:shell">35</scalar><scalar dataType="xsd:integer" dictRef="n:func">131</scalar><scalar dataType="xsd:string" dictRef="n:type">11s10p8d3f2g1h</scalar></list></module><module lineCount="22" templateRef="symbas">      Symmetry analysis of basis      --------------------------         ag         33        au          5        b1g        12        b1u        19        b2g        12        b2u        19        b3g        12        b3u        19   The SCF is already converged          Total SCF energy =   -134.684334043866 Read molecular orbitals from ./Au+.movecs  </module><module lineCount="13" templateRef="fourindex"/>     Pass:    1     Index range:    1  -    9     Time:    110.46 ------------------------------------------<module lineCount="35" templateRef="mp2energy"> MP2 Energy (coupled cluster initial guess) ------------------------------------------ Reference energy:           -134.684334043866102 MP2 Corr. energy:              -.677993809103580 Total MP2 energy:           -135.362327852969685 ****************************************************************************              the segmented parallel titan ccsd program: 32 nodes **************************************************************************** level of theory    ccsd(t) number of core         0 number of occupied     9 number of virtual    122 number of deleted      0 total functions      131 number of shells      35 basis label          566   ***** ccsd parameters *****   iprt   =     0   convi  =  .100E-05   maxit  =    20   mxvec  =     5 memory 11418558  file_read_ga: failed to open ./Au+.t2  Failed reading restart vector from ./Au+.t2  Using MP2 initial guess vector </module>------------------------------------------------------------------------- iter     correlation     delta       rms       T2     Non-T2      Main             energy      energy      error      ampl     ampl      Block                                                time     time      time-------------------------------------------------------------------------   1      -.6420739922 -6.421D-01  3.178D-01   169.46      .04   163.22   2      -.6552098614 -1.314D-02  1.391D-01   169.47      .02   163.23   3      -.6540437985  1.166D-03  3.020D-03   168.37      .03   163.10   4      -.6542434792 -1.997D-04  1.598D-03   169.10      .03   163.19   5      -.6543757057 -1.322D-04  7.228D-04   169.44      .03   163.24   6      -.6543564408  1.926D-05  4.326D-04   169.37      .03   163.20   7      -.6543542335  2.207D-06  4.061D-05   169.41      .03   163.18   8      -.6543546161 -3.826D-07  3.962D-05   172.14      .03   165.89   9      -.6543546763 -6.022D-08  2.282D-06   168.54      .03   163.24  10      -.6543547184 -4.213D-08  2.196D-06   169.54      .03   163.23  11      -.6543547311 -1.270D-08  7.577D-08   169.98      .03   163.76                  *************converged*************------------------------------------------------------------------------- -----------<module lineCount="25" templateRef="ccsd"> CCSD Energy ----------- Reference energy:            -134.684334043866102 CCSD corr. energy:              -.654354731113251 Total CCSD energy:           -135.338688774979346 memory 11036505*********triples calculation*********nkpass= 1; nvpass=  1; memdrv=  611830; memtrn= 4400205; memavail=11035399 memory available/node                11035399 total number of virtual orbitals       122 number of virtuals per integral pass   122 number of integral evaluations           1 number of occupied per triples pass      9 number of triples passes                 1 commencing integral evaluation        1 Time for integral evaluation pass     1   149.12 Time for triples evaluation pass      1   231.47 pseudo-e(mp4)   -.20388563010252E-01 pseudo-e(mp5)    .23839122339290E-03        e(t)     -.20150171786859E-01</module> --------------<module lineCount="34" templateRef="ccsdt"> CCSD(T) Energy -------------- Reference energy:                    -134.684334043866102 CCSD corr. energy:                      -.654354731113251 T(CCSD) corr. energy:                   -.020388563010252 Total CCSD+T(CCSD) energy:           -135.359077337989589 CCSD corr. energy:                      -.654354731113251 (T) corr. energy:                       -.020150171786859 Total CCSD(T) energy:                -135.358838946766213  routine      calls  cpu(0)   cpu-min  cpu-ave  cpu-max   i/o  aoccsd          1     5.36     5.36     5.36     5.36     .00 iterdrv         1    16.18    16.18    16.20    16.24     .00 pampt          11     3.81     3.80     3.81     3.81     .00 t2pm           11     1.73     1.72     1.73     1.73     .00 sxy            11  1699.16  1696.69  1706.53  1742.77     .00 t2eri      163170    32.22     9.88    28.40    32.95     .00 idx1       163170    48.94    40.73    47.05    53.06     .00 idx2          259    10.85     2.75     9.98    11.73     .00 idx34          11     1.24      .00     1.05     1.27     .00 ht2pm          11     2.94     2.94     2.94     2.94     .00 itm            11    57.55    57.55    57.56    57.56     .00 pdiis          11      .19      .13      .16      .19     .00 triples         1   149.86   149.86   149.86   149.86     .00 trpdrv          1    14.75    12.44    17.16    19.99     .00 dovvv        3150   115.54   113.07   114.51   116.94     .00 doooo        3150    10.17     9.88    10.11    10.75     .00 tengy        2835    90.76    87.95    89.44    91.97     .00 Total              2261.26  2260.99  2261.87  2266.24     .00 Task  times  cpu:     2383.9s     wall:     2402.9s</module><module lineCount="6" templateRef="summary"><scalar dataType="xsd:string" dictRef="n:title" templateRef="basis">allocated global arrays</scalar>  </module><module lineCount="26" templateRef="gastats"/>                                  ACKNOWLEDGEMENT                                  ---------------            Please use the following acknowledgement where appropriate             for results obtained with NWChem:            High Performance Computational Chemistry Group, "NWChem, A            Computational Chemistry Package for Parallel Computers,             Version 3.1" (1997), Pacific Northwest National Laboratory,            Richland, Washington 99352-0999, USA.<module lineCount="18" templateRef="ignore"><list templateRef="r1"><scalar dataType="xsd:string" dictRef="n:title">CITATION</scalar></list></module>                                    REFERENCES                                    ----------            Where appropriate, please cite the following reference(s)             when publishing results obtained with NWChem:     1. D. E. Bernholdt, E. Apra, H. A. Fruchtl, M.F. Guest, R. J. Harrison,         R. A. Kendall, R. A. Kutteh, X. Long, J. B. Nicholas, J. A. Nichols,         H. L. Taylor, A. T. Wong, G. I. Fann, R. J. Littlefield and J. Nieplocha,        "Parallel Computational Chemistry Made Easier: The Development of NWChem,"        Int. J. Quantum Chem. Symposium  29, 475-483 (1995). Total times  cpu:     3032.5s     wall:     3059.7s0.7u 0.7s 51:12 0% 91+289k 0+0io 27pf+0wWed Jul  8 15:31:24 PDT 1998</module>
