<?xml version="1.0" encoding="UTF-8"?>
<module templateRef="nwchem.log" xmlns="http://www.xml-cml.org/schema"> argument  1 = geom_zmatrix.nw<module lineCount="25" templateRef="argument"><list templateRef="args"><scalar dataType="xsd:string" dictRef="n:n">echo</scalar><scalar dataType="xsd:string" dictRef="n:n">geometry autosym units angstrom noautoz print</scalar><scalar dataType="xsd:string" dictRef="n:n">zmatrix</scalar><scalar dataType="xsd:string" dictRef="n:n">O</scalar><scalar dataType="xsd:string" dictRef="n:n">H    1 r2</scalar><scalar dataType="xsd:string" dictRef="n:n">H    1 r2    2 a3</scalar><scalar dataType="xsd:string" dictRef="n:n">O    1 r3    2 a4    3 a4 -1</scalar><scalar dataType="xsd:string" dictRef="n:n">H    4 r2    1 a4    2 d1</scalar><scalar dataType="xsd:string" dictRef="n:n">H    4 r2    1 a4    3 d1</scalar><scalar dataType="xsd:string" dictRef="n:n">variables</scalar><scalar dataType="xsd:string" dictRef="n:n">r2 0.962</scalar><scalar dataType="xsd:string" dictRef="n:n">r3 2.000000</scalar><scalar dataType="xsd:string" dictRef="n:n">a3 105.1</scalar><scalar dataType="xsd:string" dictRef="n:n">a4 127.45</scalar><scalar dataType="xsd:string" dictRef="n:n">d1 90.000000</scalar><scalar dataType="xsd:string" dictRef="n:n">end</scalar><scalar dataType="xsd:string" dictRef="n:n">end</scalar><scalar dataType="xsd:string" dictRef="n:n">basis</scalar><scalar dataType="xsd:string" dictRef="n:n">* library 6-31G*</scalar><scalar dataType="xsd:string" dictRef="n:n">end</scalar><scalar dataType="xsd:string" dictRef="n:n">print low</scalar><scalar dataType="xsd:string" dictRef="n:n">task dft</scalar><scalar dataType="xsd:string" dictRef="n:n">================================================================================</scalar></list></module>                                                                                  <module lineCount="18" templateRef="nccp"><list templateRef="title"><scalar dataType="xsd:string" dictRef="n:title">Northwest Computational Chemistry Package (NWChem) 6.0</scalar></list></module><module lineCount="12" templateRef="ignore"><list templateRef="r1"><scalar dataType="xsd:string" dictRef="n:title">ACKNOWLEDGMENT</scalar></list></module><module lineCount="19" templateRef="job"><list templateRef="list1"><scalar dictRef="n:hostname" dataType="xsd:string">arcen</scalar><scalar dictRef="n:program" dataType="xsd:string">/home/d3y133/nwchem-releases/nwchem-6.0-gfortran/bin/LINUX64/nwchem</scalar><scalar dictRef="n:date" dataType="xsd:string">Fri Aug  6 13:45:16 2010</scalar></list><list templateRef="list2"><scalar dictRef="n:compiled" dataType="xsd:string">Fri_Aug_06_13:42:42_2010</scalar><scalar dictRef="n:source" dataType="xsd:string">/home/d3y133/nwchem-releases/nwchem-6.0-gfortran</scalar><scalar dictRef="n:nwchem branch" dataType="xsd:string">6.0</scalar><scalar dictRef="n:input" dataType="xsd:string">geom_zmatrix.nw</scalar><scalar dictRef="n:prefix" dataType="xsd:string">geom_zmatrix.</scalar><scalar dictRef="n:data base" dataType="xsd:string">./geom_zmatrix.db</scalar><scalar dictRef="n:status" dataType="xsd:string">startup</scalar><scalar dictRef="n:nproc" dataType="xsd:string">4</scalar><scalar dictRef="n:time left" dataType="xsd:string">-1s</scalar></list></module><module lineCount="11" templateRef="memory"/><module lineCount="9" templateRef="dirinfo">  0 permanent = .  0 scratch   = .</module><module role="initial"><module lineCount="11" templateRef="nwcheminpmod"><list templateRef="nullId"><scalar dataType="xsd:string" dictRef="n:comment"/><scalar dataType="xsd:string" dictRef="n:comment"/><scalar dataType="xsd:string" dictRef="n:comment"/><scalar dataType="xsd:string" dictRef="n:comment">Scaling coordinates for geometry "geometry" by  1.889725989</scalar><scalar dataType="xsd:string" dictRef="n:comment">(inverse scale =  0.529177249)</scalar><scalar dataType="xsd:string" dictRef="n:comment"/><scalar dataType="xsd:string" dictRef="n:comment">D2D symmetry detected</scalar><scalar dataType="xsd:string" dictRef="n:comment"/><scalar dataType="xsd:string" dictRef="n:comment"/></list></module><module lineCount="14" templateRef="geom"><list lineCount="6" templateRef="geom"><molecule><atomArray><atom id="a1" elementType="O" x3="0.0" y3="0.0" z3="1.0"><scalar dataType="xsd:string" dictRef="n:atomtypeRef">O</scalar></atom><atom id="a2" elementType="H" x3="-0.54002924" y3="0.54002924" z3="1.58496225"><scalar dataType="xsd:string" dictRef="n:atomtypeRef">H</scalar></atom><atom id="a3" elementType="H" x3="0.54002924" y3="-0.54002924" z3="1.58496225"><scalar dataType="xsd:string" dictRef="n:atomtypeRef">H</scalar></atom><atom id="a4" elementType="O" x3="0.0" y3="0.0" z3="-1.0"><scalar dataType="xsd:string" dictRef="n:atomtypeRef">O</scalar></atom><atom id="a5" elementType="H" x3="0.54002924" y3="0.54002924" z3="-1.58496225"><scalar dataType="xsd:string" dictRef="n:atomtypeRef">H</scalar></atom><atom id="a6" elementType="H" x3="-0.54002924" y3="-0.54002924" z3="-1.58496225"><scalar dataType="xsd:string" dictRef="n:atomtypeRef">H</scalar></atom></atomArray></molecule></list></module><module lineCount="9" templateRef="atmass"><list lineCount="2" templateRef="atmass"><array dataType="xsd:string" dictRef="n:tag" size="2" delimiter="">O H</array><array dataType="xsd:double" dictRef="n:mass" size="2" delimiter="">15.99491 1.007825</array></list> Effective nuclear repulsion energy (a.u.)      42.1435904691</module><module lineCount="6" templateRef="nucdipole"><vector3 templateRef="nucdipole">0.0 0.0 0.0</vector3></module><module lineCount="14" templateRef="symminfo"><list templateRef="symminfo"><scalar dictRef="n:Group name" dataType="xsd:string">D2d</scalar><scalar dictRef="n:Group number" dataType="xsd:string">32</scalar><scalar dictRef="n:Group order" dataType="xsd:string">8</scalar><scalar dictRef="n:No. of unique centers" dataType="xsd:string">2</scalar></list><list templateRef="symmuniqatom"><scalar dataType="xsd:string" dictRef="n:row">1    2</scalar><scalar dataType="xsd:string" dictRef="n:row"/><scalar dataType="xsd:string" dictRef="n:row"/><scalar dataType="xsd:string" dictRef="n:row"/></list></module><module lineCount="23" templateRef="zmatuser"><list lineCount="2" templateRef="stretch"><array dataType="xsd:integer" dictRef="n:serial" size="2" delimiter="">1 2</array><array dataType="xsd:string" dictRef="n:constr" size="2" delimiter="">+ +</array><array dataType="xsd:string" dictRef="n:name" size="2" delimiter="">r2 r2</array></list>    3 Bend         a3          3     1     2               105.10000    4 Stretch      r3          4     1                       2.00000    5+Bend         a4          4     1     2               127.45000    6+Bend(2)      a4          4     1     3    -1         127.45000    7+Stretch      r2          5     4                       0.96200    8+Bend         a4          5     4     1               127.45000    9+Torsion      d1          5     4     1     2          90.00000   10+Stretch      r2          6     4                       0.96200   11+Bend         a4          6     4     1               127.45000   12+Torsion      d1          6     4     1     3          90.00000</module><module lineCount="12" templateRef="internuc"><list lineCount="4" templateRef="dist"><array dataType="xsd:integer" dictRef="n:ser1" size="4" delimiter="">2 3 5 6</array><array dataType="xsd:string" dictRef="n:elem1" size="4" delimiter="">H H H H</array><array dataType="xsd:integer" dictRef="n:ser2" size="4" delimiter="">1 1 4 4</array><array dataType="xsd:string" dictRef="n:elem2" size="4" delimiter="">O O O O</array><array dataType="xsd:double" dictRef="n:dist1" size="4" delimiter="">1.81792 1.81792 1.81792 1.81792</array><array dataType="xsd:double" dictRef="n:dist1" size="4" delimiter="">0.962 0.962 0.962 0.962</array></list><list templateRef="rlx"><scalar dataType="xsd:integer" dictRef="n:count">4</scalar></list></module> ==============================================================================<module lineCount="9" templateRef="internucang"><list lineCount="1" templateRef="dist"><array dataType="xsd:integer" dictRef="n:ser1" size="1" delimiter="">5</array><array dataType="xsd:string" dictRef="n:elem1" size="1" delimiter="">H</array><array dataType="xsd:integer" dictRef="n:ser2" size="1" delimiter="">4</array><array dataType="xsd:string" dictRef="n:elem2" size="1" delimiter="">O</array><array dataType="xsd:integer" dictRef="n:ser3" size="1" delimiter="">6</array><array dataType="xsd:string" dictRef="n:elem3" size="1" delimiter="">H</array><array dataType="xsd:double" dictRef="n:ang1" size="1" delimiter="">105.1</array></list><list templateRef="rl1"><scalar dataType="xsd:integer" dictRef="n:nangle">2</scalar></list></module>  library name resolved from: .nwchemrc  library file name is: &lt;/home/d3y133/nwchem-releases/nwchem-6.0-gfortran/QA/../src/basis/libraries/&gt;  <module lineCount="8" templateRef="summary"><scalar dataType="xsd:string" dictRef="n:title" templateRef="basis">"ao basis" -&gt; "" (cartesian)</scalar> *                           6-31G*                   on all atoms </module><module lineCount="4" templateRef="dft"/><module lineCount="36" templateRef="basis"><module lineCount="2" templateRef="elem"><list templateRef="elem"><scalar dataType="xsd:string" dictRef="n:tag">O</scalar><scalar dataType="xsd:string" dictRef="n:elem">Oxygen</scalar></list></module><module lineCount="23" templateRef="exponent"><module lineCount="6" templateRef="shell"><list templateRef="aaa"><list><scalar dataType="xsd:integer" dictRef="n:shell">1</scalar><scalar dataType="xsd:string" dictRef="n:orb">S</scalar><scalar dataType="xsd:double" dictRef="n:exp">5484.6717</scalar><scalar dataType="xsd:double" dictRef="n:wt">0.001831</scalar></list><list><scalar dataType="xsd:integer" dictRef="n:shell">1</scalar><scalar dataType="xsd:string" dictRef="n:orb">S</scalar><scalar dataType="xsd:double" dictRef="n:exp">825.23495</scalar><scalar dataType="xsd:double" dictRef="n:wt">0.01395</scalar></list><list><scalar dataType="xsd:integer" dictRef="n:shell">1</scalar><scalar dataType="xsd:string" dictRef="n:orb">S</scalar><scalar dataType="xsd:double" dictRef="n:exp">188.04696</scalar><scalar dataType="xsd:double" dictRef="n:wt">0.068445</scalar></list><list><scalar dataType="xsd:integer" dictRef="n:shell">1</scalar><scalar dataType="xsd:string" dictRef="n:orb">S</scalar><scalar dataType="xsd:double" dictRef="n:exp">52.9645</scalar><scalar dataType="xsd:double" dictRef="n:wt">0.232714</scalar></list><list><scalar dataType="xsd:integer" dictRef="n:shell">1</scalar><scalar dataType="xsd:string" dictRef="n:orb">S</scalar><scalar dataType="xsd:double" dictRef="n:exp">16.89757</scalar><scalar dataType="xsd:double" dictRef="n:wt">0.470193</scalar></list><list><scalar dataType="xsd:integer" dictRef="n:shell">1</scalar><scalar dataType="xsd:string" dictRef="n:orb">S</scalar><scalar dataType="xsd:double" dictRef="n:exp">5.7996353</scalar><scalar dataType="xsd:double" dictRef="n:wt">0.358521</scalar></list></list></module><module lineCount="3" templateRef="shell"><list templateRef="aaa"><list><scalar dataType="xsd:integer" dictRef="n:shell">2</scalar><scalar dataType="xsd:string" dictRef="n:orb">S</scalar><scalar dataType="xsd:double" dictRef="n:exp">15.539616</scalar><scalar dataType="xsd:double" dictRef="n:wt">-0.110778</scalar></list><list><scalar dataType="xsd:integer" dictRef="n:shell">2</scalar><scalar dataType="xsd:string" dictRef="n:orb">S</scalar><scalar dataType="xsd:double" dictRef="n:exp">3.5999336</scalar><scalar dataType="xsd:double" dictRef="n:wt">-0.148026</scalar></list><list><scalar dataType="xsd:integer" dictRef="n:shell">2</scalar><scalar dataType="xsd:string" dictRef="n:orb">S</scalar><scalar dataType="xsd:double" dictRef="n:exp">1.0137618</scalar><scalar dataType="xsd:double" dictRef="n:wt">1.130767</scalar></list></list></module><module lineCount="3" templateRef="shell"><list templateRef="aaa"><list><scalar dataType="xsd:integer" dictRef="n:shell">3</scalar><scalar dataType="xsd:string" dictRef="n:orb">P</scalar><scalar dataType="xsd:double" dictRef="n:exp">15.539616</scalar><scalar dataType="xsd:double" dictRef="n:wt">0.070874</scalar></list><list><scalar dataType="xsd:integer" dictRef="n:shell">3</scalar><scalar dataType="xsd:string" dictRef="n:orb">P</scalar><scalar dataType="xsd:double" dictRef="n:exp">3.5999336</scalar><scalar dataType="xsd:double" dictRef="n:wt">0.339753</scalar></list><list><scalar dataType="xsd:integer" dictRef="n:shell">3</scalar><scalar dataType="xsd:string" dictRef="n:orb">P</scalar><scalar dataType="xsd:double" dictRef="n:exp">1.0137618</scalar><scalar dataType="xsd:double" dictRef="n:wt">0.727159</scalar></list></list></module><module lineCount="1" templateRef="shell"><list templateRef="aaa"><scalar dataType="xsd:integer" dictRef="n:shell">4</scalar><scalar dataType="xsd:string" dictRef="n:orb">S</scalar><scalar dataType="xsd:double" dictRef="n:exp">0.2700058</scalar><scalar dataType="xsd:double" dictRef="n:wt">1.0</scalar></list></module><module lineCount="1" templateRef="shell"><list templateRef="aaa"><scalar dataType="xsd:integer" dictRef="n:shell">5</scalar><scalar dataType="xsd:string" dictRef="n:orb">P</scalar><scalar dataType="xsd:double" dictRef="n:exp">0.2700058</scalar><scalar dataType="xsd:double" dictRef="n:wt">1.0</scalar></list></module><module lineCount="1" templateRef="shell"><list templateRef="aaa"><scalar dataType="xsd:integer" dictRef="n:shell">6</scalar><scalar dataType="xsd:string" dictRef="n:orb">D</scalar><scalar dataType="xsd:double" dictRef="n:exp">0.8</scalar><scalar dataType="xsd:double" dictRef="n:wt">1.0</scalar></list></module></module><module lineCount="2" templateRef="elem"><list templateRef="elem"><scalar dataType="xsd:string" dictRef="n:tag">H</scalar><scalar dataType="xsd:string" dictRef="n:elem">Hydrogen</scalar></list></module><module lineCount="1" templateRef="exponent"/>       -------------- ---------------------------------------------------------  1 S  1.87311370E+01  0.033495  1 S  2.82539370E+00  0.234727  1 S  6.40121700E-01  0.813757  2 S  1.61277800E-01  1.000000</module><module lineCount="1" templateRef="summary"/> ------------------------------------------------------------------------------       Tag                 Description            Shells   Functions and Types ---------------- ------------------------------  ------  --------------------- O                           6-31G*                  6       15   3s2p1d H                           6-31G*                  2        2   2s  Caching 1-el integrals    Time after variat. SCF:      0.1   Time prior to 1st pass:      0.1         Total DFT energy =     -151.654032043400      One electron energy =     -294.181087745013           Coulomb energy =      117.948703110035    Exchange-Corr. energy =      -17.565237877567 Nuclear repulsion energy =       42.143590469145 Numeric. integr. density =       20.000002065346     Total iterative time =      0.2s</module><module role="final"><module lineCount="1" templateRef="nwcheminpmod"/>                                -------------------<module lineCount="1" templateRef="ignore"/>                                     --------                Please cite the following reference when publishing                           results obtained with NWChem:                 M. Valiev, E.J. Bylaska, N. Govind, K. Kowalski,              T.P. Straatsma, H.J.J. van Dam, D. Wang, J. Nieplocha,                        E. Apra, T.L. Windus, W.A. de Jong                 "NWChem: a comprehensive and scalable open-source                  solution for large scale molecular simulations"                      Comput. Phys. Commun. 181, 1477 (2010)                           doi:10.1016/j.cpc.2010.04.018<module lineCount="15" templateRef="auth"/> Total times  cpu:        0.3s     wall:        0.4s</module></module>
