<?xml version="1.0" encoding="UTF-8"?>
<module templateRef="nwchem.log" xmlns="http://www.xml-cml.org/schema"> argument  1 = ch3f_trans.nw <module lineCount="31" templateRef="argument"><list templateRef="args"><scalar dataType="xsd:string" dictRef="n:n">start</scalar><scalar dataType="xsd:string" dictRef="n:n"/><scalar dataType="xsd:string" dictRef="n:n">title ch3ft</scalar><scalar dataType="xsd:string" dictRef="n:n"/><scalar dataType="xsd:string" dictRef="n:n">geometry noautoz units angstrom nocenter</scalar><scalar dataType="xsd:string" dictRef="n:n">symmetry c1</scalar><scalar dataType="xsd:string" dictRef="n:n">c +1.00000000  +3.00000000  +5.00000000</scalar><scalar dataType="xsd:string" dictRef="n:n">f +1.00000000  +3.00000000  +6.38300000</scalar><scalar dataType="xsd:string" dictRef="n:n">h +2.02800000  +3.00000000  +4.65000000</scalar><scalar dataType="xsd:string" dictRef="n:n">h +0.48600000  +3.89000000  +4.65000000</scalar><scalar dataType="xsd:string" dictRef="n:n">h +0.48600000  +2.11000000  +4.65000000</scalar><scalar dataType="xsd:string" dictRef="n:n">end</scalar><scalar dataType="xsd:string" dictRef="n:n"/><scalar dataType="xsd:string" dictRef="n:n">BASIS "ao basis" PRINT</scalar><scalar dataType="xsd:string" dictRef="n:n">* library 6-311G</scalar><scalar dataType="xsd:string" dictRef="n:n">END</scalar><scalar dataType="xsd:string" dictRef="n:n"/><scalar dataType="xsd:string" dictRef="n:n">charge 0</scalar><scalar dataType="xsd:string" dictRef="n:n"/><scalar dataType="xsd:string" dictRef="n:n">dft</scalar><scalar dataType="xsd:string" dictRef="n:n">xc b3lyp</scalar><scalar dataType="xsd:string" dictRef="n:n">end</scalar><scalar dataType="xsd:string" dictRef="n:n"/><scalar dataType="xsd:string" dictRef="n:n">property</scalar><scalar dataType="xsd:string" dictRef="n:n">shielding</scalar><scalar dataType="xsd:string" dictRef="n:n">end</scalar><scalar dataType="xsd:string" dictRef="n:n"/><scalar dataType="xsd:string" dictRef="n:n">task dft property</scalar><scalar dataType="xsd:string" dictRef="n:n">================================================================================</scalar></list></module>                                                                                    <module lineCount="18" templateRef="nccp"><list templateRef="title"><scalar dataType="xsd:string" dictRef="n:title">Northwest Computational Chemistry Package (NWChem) 6.0</scalar></list></module><module lineCount="12" templateRef="ignore"><list templateRef="r1"><scalar dataType="xsd:string" dictRef="n:title">ACKNOWLEDGMENT</scalar></list></module><module lineCount="19" templateRef="job"><list templateRef="list1"><scalar dictRef="n:hostname" dataType="xsd:string">curie</scalar><scalar dictRef="n:program" dataType="xsd:string">../../../bin/LINUX64/nwchem</scalar><scalar dictRef="n:date" dataType="xsd:string">Thu Sep 16 17:02:07 2010</scalar></list><list templateRef="list2"><scalar dictRef="n:compiled" dataType="xsd:string">Thu_Sep_16_14:33:05_2010</scalar><scalar dictRef="n:source" dataType="xsd:string">/home/niri/nwchem/nwchem-6.0_new</scalar><scalar dictRef="n:nwchem branch" dataType="xsd:string">6.0</scalar><scalar dictRef="n:input" dataType="xsd:string">ch3f_trans.nw</scalar><scalar dictRef="n:prefix" dataType="xsd:string">ch3f_trans.</scalar><scalar dictRef="n:data base" dataType="xsd:string">./ch3f_trans.db</scalar><scalar dictRef="n:status" dataType="xsd:string">startup</scalar><scalar dictRef="n:nproc" dataType="xsd:string">4</scalar><scalar dictRef="n:time left" dataType="xsd:string">-1s</scalar></list></module><module lineCount="11" templateRef="memory"/><module lineCount="9" templateRef="dirinfo">   0 permanent = .  0 scratch   = .    </module><module role="initial"><module lineCount="4" templateRef="nwcheminpmod"><list templateRef="nullId"><scalar dataType="xsd:string" dictRef="n:comment"/><scalar dataType="xsd:string" dictRef="n:comment"/></list></module>                                       ch3ft                                       ----- Scaling coordinates for geometry "geometry" by  1.889725989 (inverse scale =  0.529177249) Turning off AUTOSYM since SYMMETRY directive was detected!   <module lineCount="13" templateRef="geom"><list lineCount="5" templateRef="geom"><molecule><atomArray><atom id="a1" elementType="C" x3="1.0" y3="3.0" z3="5.0"><scalar dataType="xsd:string" dictRef="n:atomtypeRef">c</scalar></atom><atom id="a2" elementType="F" x3="1.0" y3="3.0" z3="6.383"><scalar dataType="xsd:string" dictRef="n:atomtypeRef">f</scalar></atom><atom id="a3" elementType="H" x3="2.028" y3="3.0" z3="4.65"><scalar dataType="xsd:string" dictRef="n:atomtypeRef">h</scalar></atom><atom id="a4" elementType="H" x3="0.486" y3="3.89" z3="4.65"><scalar dataType="xsd:string" dictRef="n:atomtypeRef">h</scalar></atom><atom id="a5" elementType="H" x3="0.486" y3="2.11" z3="4.65"><scalar dataType="xsd:string" dictRef="n:atomtypeRef">h</scalar></atom></atomArray></molecule></list> </module><module lineCount="10" templateRef="atmass"><list lineCount="3" templateRef="atmass"><array dataType="xsd:string" dictRef="n:tag" size="3" delimiter="">c f h</array><array dataType="xsd:double" dictRef="n:mass" size="3" delimiter="">12.0 18.9984 1.007825</array></list>  Effective nuclear repulsion energy (a.u.)      37.4174025949</module><module lineCount="7" templateRef="nucdipole"><vector3 templateRef="nucdipole">34.0150677944 102.0452033833 191.612546064</vector3>  </module><module lineCount="10" templateRef="xyz"><scalar dataType="xsd:integer" dictRef="n:natoms" templateRef="atoms">5</scalar><scalar dataType="xsd:string" dictRef="n:type" templateRef="geo">geometry</scalar><list lineCount="5" templateRef="mol"><array dataType="xsd:string" dictRef="n:atomtype" size="5" delimiter="">c f h h h</array><array dataType="xsd:double" dictRef="n:x" size="5" delimiter="">1.0 1.0 2.028 0.486 0.486</array><array dataType="xsd:double" dictRef="n:y" size="5" delimiter="">3.0 3.0 3.0 3.89 2.11</array><array dataType="xsd:double" dictRef="n:z" size="5" delimiter="">5.0 6.383 4.65 4.65 4.65</array></list> </module><module lineCount="12" templateRef="internuc"><list lineCount="4" templateRef="dist"><array dataType="xsd:integer" dictRef="n:ser1" size="4" delimiter="">2 3 4 5</array><array dataType="xsd:string" dictRef="n:elem1" size="4" delimiter="">f h h h</array><array dataType="xsd:integer" dictRef="n:ser2" size="4" delimiter="">1 1 1 1</array><array dataType="xsd:string" dictRef="n:elem2" size="4" delimiter="">c c c c</array><array dataType="xsd:double" dictRef="n:dist1" size="4" delimiter="">2.61349 2.05214 2.05172 2.05172</array><array dataType="xsd:double" dictRef="n:dist1" size="4" delimiter="">1.383 1.08595 1.08572 1.08572</array></list><list templateRef="rlx"><scalar dataType="xsd:integer" dictRef="n:count">4</scalar></list></module> ==============================================================================<module lineCount="13" templateRef="internucang"><list lineCount="5" templateRef="dist"><array dataType="xsd:integer" dictRef="n:ser1" size="5" delimiter="">2 2 3 3 4</array><array dataType="xsd:string" dictRef="n:elem1" size="5" delimiter="">f f h h h</array><array dataType="xsd:integer" dictRef="n:ser2" size="5" delimiter="">1 1 1 1 1</array><array dataType="xsd:string" dictRef="n:elem2" size="5" delimiter="">c c c c c</array><array dataType="xsd:integer" dictRef="n:ser3" size="5" delimiter="">4 5 4 5 5</array><array dataType="xsd:string" dictRef="n:elem3" size="5" delimiter="">h h h h h</array><array dataType="xsd:double" dictRef="n:ang1" size="5" delimiter="">108.81 108.81 110.14 110.14 110.12</array></list><list templateRef="rl1"><scalar dataType="xsd:integer" dictRef="n:nangle">6</scalar></list></module>  library name resolved from: environment  library file name is: &lt;/home/niri/nwchem/nwchem-6.0_new/src/basis/libraries/&gt;  <module lineCount="7" templateRef="summary"><scalar dataType="xsd:string" dictRef="n:title" templateRef="basis">"ao basis" -&gt; "" (cartesian)</scalar> *                           6-311G                   on all atoms </module><module lineCount="9" templateRef="property"/><module lineCount="7" templateRef="dft">                                         ch3ft  </module><module lineCount="67" templateRef="basis"><module lineCount="2" templateRef="elem"><list templateRef="elem"><scalar dataType="xsd:string" dictRef="n:tag">c</scalar><scalar dataType="xsd:string" dictRef="n:elem">Carbon</scalar></list></module><module lineCount="25" templateRef="exponent"><module lineCount="6" templateRef="shell"><list templateRef="aaa"><list><scalar dataType="xsd:integer" dictRef="n:shell">1</scalar><scalar dataType="xsd:string" dictRef="n:orb">S</scalar><scalar dataType="xsd:double" dictRef="n:exp">4563.24</scalar><scalar dataType="xsd:double" dictRef="n:wt">0.001967</scalar></list><list><scalar dataType="xsd:integer" dictRef="n:shell">1</scalar><scalar dataType="xsd:string" dictRef="n:orb">S</scalar><scalar dataType="xsd:double" dictRef="n:exp">682.024</scalar><scalar dataType="xsd:double" dictRef="n:wt">0.015231</scalar></list><list><scalar dataType="xsd:integer" dictRef="n:shell">1</scalar><scalar dataType="xsd:string" dictRef="n:orb">S</scalar><scalar dataType="xsd:double" dictRef="n:exp">154.973</scalar><scalar dataType="xsd:double" dictRef="n:wt">0.076127</scalar></list><list><scalar dataType="xsd:integer" dictRef="n:shell">1</scalar><scalar dataType="xsd:string" dictRef="n:orb">S</scalar><scalar dataType="xsd:double" dictRef="n:exp">44.4553</scalar><scalar dataType="xsd:double" dictRef="n:wt">0.260801</scalar></list><list><scalar dataType="xsd:integer" dictRef="n:shell">1</scalar><scalar dataType="xsd:string" dictRef="n:orb">S</scalar><scalar dataType="xsd:double" dictRef="n:exp">13.029</scalar><scalar dataType="xsd:double" dictRef="n:wt">0.616462</scalar></list><list><scalar dataType="xsd:integer" dictRef="n:shell">1</scalar><scalar dataType="xsd:string" dictRef="n:orb">S</scalar><scalar dataType="xsd:double" dictRef="n:exp">1.82773</scalar><scalar dataType="xsd:double" dictRef="n:wt">0.221006</scalar></list></list></module> <module lineCount="3" templateRef="shell"><list templateRef="aaa"><list><scalar dataType="xsd:integer" dictRef="n:shell">2</scalar><scalar dataType="xsd:string" dictRef="n:orb">S</scalar><scalar dataType="xsd:double" dictRef="n:exp">20.9642</scalar><scalar dataType="xsd:double" dictRef="n:wt">0.11466</scalar></list><list><scalar dataType="xsd:integer" dictRef="n:shell">2</scalar><scalar dataType="xsd:string" dictRef="n:orb">S</scalar><scalar dataType="xsd:double" dictRef="n:exp">4.80331</scalar><scalar dataType="xsd:double" dictRef="n:wt">0.919999</scalar></list><list><scalar dataType="xsd:integer" dictRef="n:shell">2</scalar><scalar dataType="xsd:string" dictRef="n:orb">S</scalar><scalar dataType="xsd:double" dictRef="n:exp">1.45933</scalar><scalar dataType="xsd:double" dictRef="n:wt">-0.003031</scalar></list></list></module> <module lineCount="3" templateRef="shell"><list templateRef="aaa"><list><scalar dataType="xsd:integer" dictRef="n:shell">3</scalar><scalar dataType="xsd:string" dictRef="n:orb">P</scalar><scalar dataType="xsd:double" dictRef="n:exp">20.9642</scalar><scalar dataType="xsd:double" dictRef="n:wt">0.040249</scalar></list><list><scalar dataType="xsd:integer" dictRef="n:shell">3</scalar><scalar dataType="xsd:string" dictRef="n:orb">P</scalar><scalar dataType="xsd:double" dictRef="n:exp">4.80331</scalar><scalar dataType="xsd:double" dictRef="n:wt">0.237594</scalar></list><list><scalar dataType="xsd:integer" dictRef="n:shell">3</scalar><scalar dataType="xsd:string" dictRef="n:orb">P</scalar><scalar dataType="xsd:double" dictRef="n:exp">1.45933</scalar><scalar dataType="xsd:double" dictRef="n:wt">0.815854</scalar></list></list></module> <module lineCount="1" templateRef="shell"><list templateRef="aaa"><scalar dataType="xsd:integer" dictRef="n:shell">4</scalar><scalar dataType="xsd:string" dictRef="n:orb">S</scalar><scalar dataType="xsd:double" dictRef="n:exp">0.483456</scalar><scalar dataType="xsd:double" dictRef="n:wt">1.0</scalar></list></module> <module lineCount="1" templateRef="shell"><list templateRef="aaa"><scalar dataType="xsd:integer" dictRef="n:shell">5</scalar><scalar dataType="xsd:string" dictRef="n:orb">P</scalar><scalar dataType="xsd:double" dictRef="n:exp">0.483456</scalar><scalar dataType="xsd:double" dictRef="n:wt">1.0</scalar></list></module> <module lineCount="1" templateRef="shell"><list templateRef="aaa"><scalar dataType="xsd:integer" dictRef="n:shell">6</scalar><scalar dataType="xsd:string" dictRef="n:orb">S</scalar><scalar dataType="xsd:double" dictRef="n:exp">0.145585</scalar><scalar dataType="xsd:double" dictRef="n:wt">1.0</scalar></list></module> <module lineCount="1" templateRef="shell"><list templateRef="aaa"><scalar dataType="xsd:integer" dictRef="n:shell">7</scalar><scalar dataType="xsd:string" dictRef="n:orb">P</scalar><scalar dataType="xsd:double" dictRef="n:exp">0.145585</scalar><scalar dataType="xsd:double" dictRef="n:wt">1.0</scalar></list></module> </module><module lineCount="2" templateRef="elem"><list templateRef="elem"><scalar dataType="xsd:string" dictRef="n:tag">f</scalar><scalar dataType="xsd:string" dictRef="n:elem">Fluorine</scalar></list></module><module lineCount="25" templateRef="exponent"><module lineCount="6" templateRef="shell"><list templateRef="aaa"><list><scalar dataType="xsd:integer" dictRef="n:shell">1</scalar><scalar dataType="xsd:string" dictRef="n:orb">S</scalar><scalar dataType="xsd:double" dictRef="n:exp">11427.1</scalar><scalar dataType="xsd:double" dictRef="n:wt">0.001801</scalar></list><list><scalar dataType="xsd:integer" dictRef="n:shell">1</scalar><scalar dataType="xsd:string" dictRef="n:orb">S</scalar><scalar dataType="xsd:double" dictRef="n:exp">1722.35</scalar><scalar dataType="xsd:double" dictRef="n:wt">0.013742</scalar></list><list><scalar dataType="xsd:integer" dictRef="n:shell">1</scalar><scalar dataType="xsd:string" dictRef="n:orb">S</scalar><scalar dataType="xsd:double" dictRef="n:exp">395.746</scalar><scalar dataType="xsd:double" dictRef="n:wt">0.068133</scalar></list><list><scalar dataType="xsd:integer" dictRef="n:shell">1</scalar><scalar dataType="xsd:string" dictRef="n:orb">S</scalar><scalar dataType="xsd:double" dictRef="n:exp">115.139</scalar><scalar dataType="xsd:double" dictRef="n:wt">0.233325</scalar></list><list><scalar dataType="xsd:integer" dictRef="n:shell">1</scalar><scalar dataType="xsd:string" dictRef="n:orb">S</scalar><scalar dataType="xsd:double" dictRef="n:exp">33.6026</scalar><scalar dataType="xsd:double" dictRef="n:wt">0.589086</scalar></list><list><scalar dataType="xsd:integer" dictRef="n:shell">1</scalar><scalar dataType="xsd:string" dictRef="n:orb">S</scalar><scalar dataType="xsd:double" dictRef="n:exp">4.91901</scalar><scalar dataType="xsd:double" dictRef="n:wt">0.299505</scalar></list></list></module> <module lineCount="3" templateRef="shell"><list templateRef="aaa"><list><scalar dataType="xsd:integer" dictRef="n:shell">2</scalar><scalar dataType="xsd:string" dictRef="n:orb">S</scalar><scalar dataType="xsd:double" dictRef="n:exp">55.4441</scalar><scalar dataType="xsd:double" dictRef="n:wt">0.114536</scalar></list><list><scalar dataType="xsd:integer" dictRef="n:shell">2</scalar><scalar dataType="xsd:string" dictRef="n:orb">S</scalar><scalar dataType="xsd:double" dictRef="n:exp">12.6323</scalar><scalar dataType="xsd:double" dictRef="n:wt">0.920512</scalar></list><list><scalar dataType="xsd:integer" dictRef="n:shell">2</scalar><scalar dataType="xsd:string" dictRef="n:orb">S</scalar><scalar dataType="xsd:double" dictRef="n:exp">3.71756</scalar><scalar dataType="xsd:double" dictRef="n:wt">-0.003378</scalar></list></list></module> <module lineCount="3" templateRef="shell"><list templateRef="aaa"><list><scalar dataType="xsd:integer" dictRef="n:shell">3</scalar><scalar dataType="xsd:string" dictRef="n:orb">P</scalar><scalar dataType="xsd:double" dictRef="n:exp">55.4441</scalar><scalar dataType="xsd:double" dictRef="n:wt">0.035461</scalar></list><list><scalar dataType="xsd:integer" dictRef="n:shell">3</scalar><scalar dataType="xsd:string" dictRef="n:orb">P</scalar><scalar dataType="xsd:double" dictRef="n:exp">12.6323</scalar><scalar dataType="xsd:double" dictRef="n:wt">0.237451</scalar></list><list><scalar dataType="xsd:integer" dictRef="n:shell">3</scalar><scalar dataType="xsd:string" dictRef="n:orb">P</scalar><scalar dataType="xsd:double" dictRef="n:exp">3.71756</scalar><scalar dataType="xsd:double" dictRef="n:wt">0.820458</scalar></list></list></module> <module lineCount="1" templateRef="shell"><list templateRef="aaa"><scalar dataType="xsd:integer" dictRef="n:shell">4</scalar><scalar dataType="xsd:string" dictRef="n:orb">S</scalar><scalar dataType="xsd:double" dictRef="n:exp">1.16545</scalar><scalar dataType="xsd:double" dictRef="n:wt">1.0</scalar></list></module> <module lineCount="1" templateRef="shell"><list templateRef="aaa"><scalar dataType="xsd:integer" dictRef="n:shell">5</scalar><scalar dataType="xsd:string" dictRef="n:orb">P</scalar><scalar dataType="xsd:double" dictRef="n:exp">1.16545</scalar><scalar dataType="xsd:double" dictRef="n:wt">1.0</scalar></list></module> <module lineCount="1" templateRef="shell"><list templateRef="aaa"><scalar dataType="xsd:integer" dictRef="n:shell">6</scalar><scalar dataType="xsd:string" dictRef="n:orb">S</scalar><scalar dataType="xsd:double" dictRef="n:exp">0.321892</scalar><scalar dataType="xsd:double" dictRef="n:wt">1.0</scalar></list></module> <module lineCount="1" templateRef="shell"><list templateRef="aaa"><scalar dataType="xsd:integer" dictRef="n:shell">7</scalar><scalar dataType="xsd:string" dictRef="n:orb">P</scalar><scalar dataType="xsd:double" dictRef="n:exp">0.321892</scalar><scalar dataType="xsd:double" dictRef="n:wt">1.0</scalar></list></module> </module><module lineCount="2" templateRef="elem"><list templateRef="elem"><scalar dataType="xsd:string" dictRef="n:tag">h</scalar><scalar dataType="xsd:string" dictRef="n:elem">Hydrogen</scalar></list></module><module lineCount="1" templateRef="exponent"/>       -------------- ---------------------------------------------------------  1 S  3.38650000E+01  0.025494  1 S  5.09479000E+00  0.190373  1 S  1.15879000E+00  0.852161   2 S  3.25840000E-01  1.000000   3 S  1.02741000E-01  1.000000</module> <module lineCount="11" templateRef="summary"><scalar dataType="xsd:string" dictRef="n:title" templateRef="basis">"ao basis" -&gt; "ao basis" (cartesian)</scalar><list templateRef="orbs"><list><scalar dataType="xsd:string" dictRef="n:tag">c</scalar><scalar dataType="xsd:string" dictRef="n:desc">6-311G</scalar><scalar dataType="xsd:integer" dictRef="n:shell">7</scalar><scalar dataType="xsd:integer" dictRef="n:func">13</scalar><scalar dataType="xsd:string" dictRef="n:type">4s3p</scalar></list><list><scalar dataType="xsd:string" dictRef="n:tag">f</scalar><scalar dataType="xsd:string" dictRef="n:desc">6-311G</scalar><scalar dataType="xsd:integer" dictRef="n:shell">7</scalar><scalar dataType="xsd:integer" dictRef="n:func">13</scalar><scalar dataType="xsd:string" dictRef="n:type">4s3p</scalar></list><list><scalar dataType="xsd:string" dictRef="n:tag">h</scalar><scalar dataType="xsd:string" dictRef="n:desc">6-311G</scalar><scalar dataType="xsd:integer" dictRef="n:shell">3</scalar><scalar dataType="xsd:integer" dictRef="n:func">3</scalar><scalar dataType="xsd:string" dictRef="n:type">3s</scalar></list></list>  Caching 1-el integrals  </module><module lineCount="18" templateRef="geninfo"><list templateRef="property"><scalar dataType="xsd:string" dictRef="n:name">SCF calculation type: DFT</scalar><scalar dataType="xsd:string" dictRef="n:name">Wavefunction type:  closed shell.</scalar><scalar dataType="xsd:string" dictRef="n:name">No. of atoms     :     5</scalar><scalar dataType="xsd:string" dictRef="n:name">No. of electrons :    18</scalar><scalar dataType="xsd:string" dictRef="n:name">Alpha electrons :     9</scalar><scalar dataType="xsd:string" dictRef="n:name">Beta electrons :     9</scalar><scalar dataType="xsd:string" dictRef="n:name">Charge           :     0</scalar><scalar dataType="xsd:string" dictRef="n:name">Spin multiplicity:     1</scalar><scalar dataType="xsd:string" dictRef="n:name">Use of symmetry is: off; symmetry adaption is: off</scalar><scalar dataType="xsd:string" dictRef="n:name">Maximum number of iterations:  30</scalar><scalar dataType="xsd:string" dictRef="n:name">AO basis - number of functions:    35</scalar><scalar dataType="xsd:string" dictRef="n:name">number of shells:    23</scalar><scalar dataType="xsd:string" dictRef="n:name">Convergence on energy requested: 1.00D-07</scalar><scalar dataType="xsd:string" dictRef="n:name">Convergence on density requested: 1.00D-05</scalar><scalar dataType="xsd:string" dictRef="n:name">Convergence on gradient requested: 1.00D-06</scalar><scalar dataType="xsd:string" dictRef="n:name"/></list></module><module lineCount="9" templateRef="xcinfo"><list templateRef="nullId"><list><scalar dataType="xsd:string" dictRef="n:functional"/><scalar dataType="xsd:string" dictRef="n:value">B3LYP Method XC Potential</scalar></list><list><scalar dataType="xsd:string" dictRef="n:functional">Hartree-Fock (Exact) Exchange  0.200</scalar><scalar dataType="xsd:string" dictRef="n:value"/></list></list>                        Slater Exchange Functional  0.800 local                        Becke 1988 Exchange Functional  0.720 non-local              Lee-Yang-Parr Correlation Functional  0.810                            VWN I RPA Correlation Functional  0.190 local     </module><module lineCount="14" templateRef="grid"><scalar dataType="xsd:string" dictRef="n:gridxcinteg" templateRef="nullId">fine</scalar><scalar dataType="xsd:string" dictRef="n:radquad" templateRef="nullId">Mura-Knowles</scalar><scalar dataType="xsd:string" dictRef="n:angquad" templateRef="nullId">Lebedev.</scalar><list lineCount="3" templateRef="nullId"><array dataType="xsd:string" dictRef="n:tag" size="3" delimiter="">c f h</array><array dataType="xsd:double" dictRef="n:bsrad" size="3" delimiter="">0.7 0.5 0.35</array><array dataType="xsd:integer" dictRef="n:radpts" size="3" delimiter="">70 70 60</array><array dataType="xsd:double" dictRef="n:radcut" size="3" delimiter="">7.0 7.0 8.0</array><array dataType="xsd:integer" dictRef="n:angpts" size="3" delimiter="">590 590 590</array></list><scalar dataType="xsd:string" dictRef="n:gridprun" templateRef="nullId">on</scalar><scalar dataType="xsd:integer" dictRef="n:quadshells" templateRef="nullId">320</scalar><scalar dataType="xsd:string" dictRef="n:spatwt" templateRef="nullId">Erf1</scalar> </module><module lineCount="15" templateRef="converge"><scalar dataType="xsd:string" dictRef="n:deon" templateRef="nullId">start            ASAP                start</scalar><scalar dataType="xsd:string" dictRef="n:deoff" templateRef="nullId">2 iters         30 iters            30 iters</scalar> </module><module lineCount="9" templateRef="screentol"><list templateRef="nullId"><scalar dictRef="n:Density screening/tol_rho" dataType="xsd:string">1.00D-11</scalar><scalar dictRef="n:AO Gaussian exp screening on grid/accAOfunc" dataType="xsd:string">16</scalar><scalar dictRef="n:CD Gaussian exp screening on grid/accCDfunc" dataType="xsd:string">20</scalar><scalar dictRef="n:XC Gaussian exp screening on grid/accXCfunc" dataType="xsd:string">20</scalar><scalar dictRef="n:Schwarz screening/accCoul" dataType="xsd:string">1.00D-08</scalar></list> </module><module lineCount="5" templateRef="superposatomguess"><scalar dataType="xsd:double" dictRef="n:sumatomener" templateRef="nullId">-138.57325452</scalar> </module><module lineCount="33" templateRef="nonvarinitener"><list templateRef="ener"><scalar dictRef="n:Total energy" dataType="xsd:string">-139.229769</scalar><scalar dictRef="n:1-e energy" dataType="xsd:string">-264.952728</scalar><scalar dictRef="n:2-e energy" dataType="xsd:string">88.305556</scalar><scalar dictRef="n:HOMO" dataType="xsd:string">-0.441631</scalar><scalar dictRef="n:LUMO" dataType="xsd:string">0.112239</scalar></list>    Time after variat. SCF:      0.1   Time prior to 1st pass:      0.1 #quartets = 3.714D+04 #integrals = 1.407D+05 #direct =  0.0% #cached =100.0% Integral file          = ./ch3f_trans.aoints.0 Record size in doubles =  65536        No. of integs per rec  =  43688 Max. records in memory =      3        Max. records in file   =   5710 No. of bits per label  =      8        No. of bits per value  =     64File balance: exchanges=     0  moved=     0  time=   0.0 Grid_pts file          = ./ch3f_trans.gridpts.0 Record size in doubles =  12289        No. of grid_pts per rec  =   3070 Max. records in memory =     18        Max. recs in file   =     30458           Memory utilization after 1st SCF pass:            Heap Space remaining (MW):       12.69            12687447          Stack Space remaining (MW):       13.11            13106861</module><module lineCount="23" templateRef="convergenceiter"><list lineCount="7" templateRef="converge"><array dataType="xsd:integer" dictRef="n:d" size="7" delimiter="">0 0 0 0 0 0 0</array><array dataType="xsd:double" dictRef="n:ls" size="7" delimiter="">0.0 0.0 0.0 0.0 0.0 0.0 0.0</array><array dataType="xsd:integer" dictRef="n:iter" size="7" delimiter="">1 2 3 4 5 6 7</array><array dataType="xsd:double" dictRef="n:ener" size="7" delimiter="">-139.7045943195 -139.6932279432 -139.7494357181 -139.7513770185 -139.7515473669 -139.7515542075 -139.7515542167</array><array dataType="xsd:double" dictRef="n:deltae" size="7" delimiter="">-177.0 0.0114 -0.0562 -0.00194 -1.7E-4 -6.84E-6 -9.26E-9</array><array dataType="xsd:double" dictRef="n:rms" size="7" delimiter="">0.0178 0.0102 0.00159 6.05E-4 1.23E-4 5.16E-6 3.75E-7</array><array dataType="xsd:double" dictRef="n:diserr" size="7" delimiter="">0.505 0.668 0.0342 0.00159 7.02E-5 8.52E-8 1.74E-10</array><array dataType="xsd:double" dictRef="n:time" size="7" delimiter="">0.4 0.7 0.9 1.1 1.4 1.6 1.8</array></list><list templateRef="energies"><scalar dataType="xsd:double" dictRef="n:totdft">-139.751554216743</scalar></list><list templateRef="nullId"><scalar dataType="xsd:double" dictRef="n:oneelec">-266.590801749272</scalar></list><list templateRef="nullId"><scalar dataType="xsd:double" dictRef="n:coulomb">106.458589474712</scalar></list><list templateRef="nullId"><scalar dataType="xsd:double" dictRef="n:xcener">-17.036744537089</scalar></list><list templateRef="nullId"><scalar dataType="xsd:double" dictRef="n:nucrep">37.417402594906</scalar></list><list templateRef="nullId"><scalar dataType="xsd:double" dictRef="n:numintegdens">18.000000078576</scalar></list><list templateRef="nullId"><scalar dataType="xsd:double" dictRef="n:totitertime">1.7</scalar></list> </module><module lineCount="160" templateRef="dftfinalmolorb"><module lineCount="5" templateRef="vector">   Bfn.  Coefficient  Atom+Function         Bfn.  Coefficient  Atom+Function    ----- ------------  ---------------      ----- ------------  ---------------    14      0.547666  2 F  s                 15      0.471996  2 F  s          </module> <module lineCount="5" templateRef="vector">   Bfn.  Coefficient  Atom+Function         Bfn.  Coefficient  Atom+Function    ----- ------------  ---------------      ----- ------------  ---------------     1     -0.562841  1 C  s                  2     -0.464020  1 C  s          </module> <module lineCount="6" templateRef="vector">   Bfn.  Coefficient  Atom+Function         Bfn.  Coefficient  Atom+Function    ----- ------------  ---------------      ----- ------------  ---------------    19     -0.574055  2 F  s                 23     -0.457116  2 F  s              15      0.193907  2 F  s          </module> <module lineCount="7" templateRef="vector">   Bfn.  Coefficient  Atom+Function         Bfn.  Coefficient  Atom+Function    ----- ------------  ---------------      ----- ------------  ---------------     6     -0.466242  1 C  s                 10     -0.313846  1 C  s              23      0.217525  2 F  s                 19      0.193018  2 F  s               2      0.166818  1 C  s          </module> <module lineCount="7" templateRef="vector">   Bfn.  Coefficient  Atom+Function         Bfn.  Coefficient  Atom+Function    ----- ------------  ---------------      ----- ------------  ---------------     7     -0.280211  1 C  px                20     -0.248016  2 F  px             24     -0.213800  2 F  px                 3     -0.177888  1 C  px             11     -0.176880  1 C  px                16     -0.173473  2 F  px         </module> <module lineCount="7" templateRef="vector">   Bfn.  Coefficient  Atom+Function         Bfn.  Coefficient  Atom+Function    ----- ------------  ---------------      ----- ------------  ---------------     8      0.280209  1 C  py                21      0.248027  2 F  py             25      0.213817  2 F  py                 4      0.177902  1 C  py             12      0.176857  1 C  py                17      0.173481  2 F  py         </module> <module lineCount="7" templateRef="vector">   Bfn.  Coefficient  Atom+Function         Bfn.  Coefficient  Atom+Function    ----- ------------  ---------------      ----- ------------  ---------------    22     -0.358055  2 F  pz                26     -0.317884  2 F  pz              9      0.251757  1 C  pz                18     -0.250164  2 F  pz              5      0.157556  1 C  pz         </module> <module lineCount="7" templateRef="vector">   Bfn.  Coefficient  Atom+Function         Bfn.  Coefficient  Atom+Function    ----- ------------  ---------------      ----- ------------  ---------------    24     -0.393262  2 F  px                20     -0.375974  2 F  px             16     -0.271086  2 F  px                28      0.221432  3 H  s               7      0.179206  1 C  px         </module> <module lineCount="7" templateRef="vector">   Bfn.  Coefficient  Atom+Function         Bfn.  Coefficient  Atom+Function    ----- ------------  ---------------      ----- ------------  ---------------    25     -0.393258  2 F  py                21     -0.375968  2 F  py             17     -0.271082  2 F  py                34     -0.191769  5 H  s              31      0.191767  4 H  s                  8      0.179218  1 C  py         </module> <module lineCount="7" templateRef="vector">   Bfn.  Coefficient  Atom+Function         Bfn.  Coefficient  Atom+Function    ----- ------------  ---------------      ----- ------------  ---------------    10     -1.913425  1 C  s                 29      0.923941  3 H  s              35      0.923595  5 H  s                 32      0.923595  4 H  s              13      0.385918  1 C  pz                 6     -0.191503  1 C  s          </module> <module lineCount="9" templateRef="vector">   Bfn.  Coefficient  Atom+Function         Bfn.  Coefficient  Atom+Function    ----- ------------  ---------------      ----- ------------  ---------------    13     -1.122326  1 C  pz                23      0.834990  2 F  s              10     -0.579703  1 C  s                 26     -0.485124  2 F  pz              9     -0.269633  1 C  pz                22     -0.217583  2 F  pz              6     -0.177960  1 C  s                  5     -0.166918  1 C  pz             19      0.161914  2 F  s                 18     -0.161726  2 F  pz         </module> <module lineCount="7" templateRef="vector">   Bfn.  Coefficient  Atom+Function         Bfn.  Coefficient  Atom+Function    ----- ------------  ---------------      ----- ------------  ---------------    29      1.984874  3 H  s                 11     -1.083522  1 C  px             35     -0.992819  5 H  s                 32     -0.992818  4 H  s               7     -0.254683  1 C  px                 3     -0.177264  1 C  px         </module> <module lineCount="7" templateRef="vector">   Bfn.  Coefficient  Atom+Function         Bfn.  Coefficient  Atom+Function    ----- ------------  ---------------      ----- ------------  ---------------    32     -1.719580  4 H  s                 35      1.719580  5 H  s              12      1.083503  1 C  py                 8      0.254651  1 C  py              4      0.177251  1 C  py         </module> <module lineCount="7" templateRef="vector">   Bfn.  Coefficient  Atom+Function         Bfn.  Coefficient  Atom+Function    ----- ------------  ---------------      ----- ------------  ---------------    12      1.576070  1 C  py                34      1.138218  5 H  s              31     -1.138217  4 H  s                 25     -0.278000  2 F  py             35     -0.191137  5 H  s                 32      0.191136  4 H  s          </module> <module lineCount="7" templateRef="vector">   Bfn.  Coefficient  Atom+Function         Bfn.  Coefficient  Atom+Function    ----- ------------  ---------------      ----- ------------  ---------------    11     -1.576244  1 C  px                28      1.314805  3 H  s              31     -0.656952  4 H  s                 34     -0.656950  5 H  s              24      0.278032  2 F  px                29     -0.221174  3 H  s          </module> <module lineCount="9" templateRef="vector">   Bfn.  Coefficient  Atom+Function         Bfn.  Coefficient  Atom+Function    ----- ------------  ---------------      ----- ------------  ---------------    13     -1.192316  1 C  pz                 9      0.751496  1 C  pz             10      0.638130  1 C  s                 31     -0.518645  4 H  s              34     -0.518645  5 H  s                 28     -0.518183  3 H  s               6      0.509739  1 C  s                  5      0.260637  1 C  pz             23      0.250513  2 F  s                 22      0.234429  2 F  pz         </module> <module lineCount="9" templateRef="vector">   Bfn.  Coefficient  Atom+Function         Bfn.  Coefficient  Atom+Function    ----- ------------  ---------------      ----- ------------  ---------------    10     -1.711071  1 C  s                 31      1.119921  4 H  s              34      1.119921  5 H  s                 28      1.119223  3 H  s               9      0.538334  1 C  pz                23      0.482213  2 F  s              13     -0.339575  1 C  pz                29     -0.273792  3 H  s              35     -0.271609  5 H  s                 32     -0.271609  4 H  s          </module> <module lineCount="9" templateRef="vector">   Bfn.  Coefficient  Atom+Function         Bfn.  Coefficient  Atom+Function    ----- ------------  ---------------      ----- ------------  ---------------    29     -1.931534  3 H  s                 11      1.931508  1 C  px              7     -1.045808  1 C  px                32      0.965955  4 H  s              35      0.965955  5 H  s                 28      0.518682  3 H  s               3     -0.273734  1 C  px                31     -0.260576  4 H  s              34     -0.260576  5 H  s          </module> <module lineCount="8" templateRef="vector">   Bfn.  Coefficient  Atom+Function         Bfn.  Coefficient  Atom+Function    ----- ------------  ---------------      ----- ------------  ---------------    12      1.931226  1 C  py                35      1.673183  5 H  s              32     -1.673183  4 H  s                  8     -1.045852  1 C  py             34     -0.450205  5 H  s                 31      0.450205  4 H  s               4     -0.273734  1 C  py         </module> </module><module lineCount="4" templateRef="centermass"><list templateRef="centermass"><vector3>1.88972599 5.66917797 10.84927025</vector3></list></module><module lineCount="6" templateRef="momint"><list templateRef="mat"><matrix rows="3" columns="3" dataType="xsd:double">70.045742832072 0.0 0.0 0.0 70.049255463772 0.0 0.0 0.0 11.406609230869</matrix></list> </module><module lineCount="21" templateRef="multipole"><module lineCount="1" templateRef="shell"><list templateRef="orbs"><list><scalar dataType="xsd:integer" dictRef="n:i">0</scalar><scalar dataType="xsd:integer" dictRef="n:j">0</scalar><scalar dataType="xsd:integer" dictRef="n:k">0</scalar><scalar dataType="xsd:integer" dictRef="n:l">0</scalar><scalar dataType="xsd:double" dictRef="n:a">0.0</scalar><scalar dataType="xsd:double" dictRef="n:b">-9.0</scalar><scalar dataType="xsd:double" dictRef="n:c">-9.0</scalar><scalar dataType="xsd:double" dictRef="n:d">18.0</scalar></list></list></module> <module lineCount="3" templateRef="shell"><list templateRef="orbs"><list><scalar dataType="xsd:integer" dictRef="n:i">1</scalar><scalar dataType="xsd:integer" dictRef="n:j">1</scalar><scalar dataType="xsd:integer" dictRef="n:k">0</scalar><scalar dataType="xsd:integer" dictRef="n:l">0</scalar><scalar dataType="xsd:double" dictRef="n:a">-1.07E-4</scalar><scalar dataType="xsd:double" dictRef="n:b">-17.007588</scalar><scalar dataType="xsd:double" dictRef="n:c">-17.007588</scalar><scalar dataType="xsd:double" dictRef="n:d">34.015068</scalar></list><list><scalar dataType="xsd:integer" dictRef="n:i">1</scalar><scalar dataType="xsd:integer" dictRef="n:j">0</scalar><scalar dataType="xsd:integer" dictRef="n:k">1</scalar><scalar dataType="xsd:integer" dictRef="n:l">0</scalar><scalar dataType="xsd:double" dictRef="n:a">0.0</scalar><scalar dataType="xsd:double" dictRef="n:b">-51.022602</scalar><scalar dataType="xsd:double" dictRef="n:c">-51.022602</scalar><scalar dataType="xsd:double" dictRef="n:d">102.045203</scalar></list><list><scalar dataType="xsd:integer" dictRef="n:i">1</scalar><scalar dataType="xsd:integer" dictRef="n:j">0</scalar><scalar dataType="xsd:integer" dictRef="n:k">0</scalar><scalar dataType="xsd:integer" dictRef="n:l">1</scalar><scalar dataType="xsd:double" dictRef="n:a">-0.852701</scalar><scalar dataType="xsd:double" dictRef="n:b">-96.232623</scalar><scalar dataType="xsd:double" dictRef="n:c">-96.232623</scalar><scalar dataType="xsd:double" dictRef="n:d">191.612546</scalar></list></list></module> <module lineCount="6" templateRef="shell"><list templateRef="orbs"><list><scalar dataType="xsd:integer" dictRef="n:i">2</scalar><scalar dataType="xsd:integer" dictRef="n:j">2</scalar><scalar dataType="xsd:integer" dictRef="n:k">0</scalar><scalar dataType="xsd:integer" dictRef="n:l">0</scalar><scalar dataType="xsd:double" dictRef="n:a">-8.785294</scalar><scalar dataType="xsd:double" dictRef="n:b">-39.362609</scalar><scalar dataType="xsd:double" dictRef="n:c">-39.362609</scalar><scalar dataType="xsd:double" dictRef="n:d">69.939923</scalar></list><list><scalar dataType="xsd:integer" dictRef="n:i">2</scalar><scalar dataType="xsd:integer" dictRef="n:j">1</scalar><scalar dataType="xsd:integer" dictRef="n:k">1</scalar><scalar dataType="xsd:integer" dictRef="n:l">0</scalar><scalar dataType="xsd:double" dictRef="n:a">-6.09E-4</scalar><scalar dataType="xsd:double" dictRef="n:b">-96.419041</scalar><scalar dataType="xsd:double" dictRef="n:c">-96.419041</scalar><scalar dataType="xsd:double" dictRef="n:d">192.837473</scalar></list><list><scalar dataType="xsd:integer" dictRef="n:i">2</scalar><scalar dataType="xsd:integer" dictRef="n:j">1</scalar><scalar dataType="xsd:integer" dictRef="n:k">0</scalar><scalar dataType="xsd:integer" dictRef="n:l">1</scalar><scalar dataType="xsd:double" dictRef="n:a">-1.612276</scalar><scalar dataType="xsd:double" dictRef="n:b">-181.853742</scalar><scalar dataType="xsd:double" dictRef="n:c">-181.853742</scalar><scalar dataType="xsd:double" dictRef="n:d">362.095208</scalar></list><list><scalar dataType="xsd:integer" dictRef="n:i">2</scalar><scalar dataType="xsd:integer" dictRef="n:j">0</scalar><scalar dataType="xsd:integer" dictRef="n:k">2</scalar><scalar dataType="xsd:integer" dictRef="n:l">0</scalar><scalar dataType="xsd:double" dictRef="n:a">-8.785577</scalar><scalar dataType="xsd:double" dictRef="n:b">-296.477638</scalar><scalar dataType="xsd:double" dictRef="n:c">-296.477638</scalar><scalar dataType="xsd:double" dictRef="n:d">584.169699</scalar></list><list><scalar dataType="xsd:integer" dictRef="n:i">2</scalar><scalar dataType="xsd:integer" dictRef="n:j">0</scalar><scalar dataType="xsd:integer" dictRef="n:k">1</scalar><scalar dataType="xsd:integer" dictRef="n:l">1</scalar><scalar dataType="xsd:double" dictRef="n:a">-4.834112</scalar><scalar dataType="xsd:double" dictRef="n:b">-545.559868</scalar><scalar dataType="xsd:double" dictRef="n:c">-545.559868</scalar><scalar dataType="xsd:double" dictRef="n:d">1086.285624</scalar></list><list><scalar dataType="xsd:integer" dictRef="n:i">2</scalar><scalar dataType="xsd:integer" dictRef="n:j">0</scalar><scalar dataType="xsd:integer" dictRef="n:k">0</scalar><scalar dataType="xsd:integer" dictRef="n:l">2</scalar><scalar dataType="xsd:double" dictRef="n:a">-27.512136</scalar><scalar dataType="xsd:double" dictRef="n:b">-1052.135331</scalar><scalar dataType="xsd:double" dictRef="n:c">-1052.135331</scalar><scalar dataType="xsd:double" dictRef="n:d">2076.758525</scalar></list></list></module>  Parallel integral file used       4 records with       0 large values</module>          -----------------------------------------<module lineCount="3" templateRef="shielding">          Chemical Shielding Tensors (GIAO, in ppm)          -----------------------------------------</module><module lineCount="195" templateRef="cphf">                                NWChem CPHF Module                                ------------------    scftype          =     RHF   nclosed          =        9  nopen            =        0  variables        =      234  # of vectors     =        3  tolerance        = 0.10D-03  level shift      = 0.00D+00  max iterations   =       50  max subspace     =       30 #quartets = 3.714D+04 #integrals = 1.406D+05 #direct =  0.0% #cached =100.0% Integral file          = ./ch3f_trans.aoints.0 Record size in doubles =  65536        No. of integs per rec  =  43688 Max. records in memory =      3        Max. records in file   =   5708 No. of bits per label  =      8        No. of bits per value  =     64File balance: exchanges=     0  moved=     0  time=   0.0Iterative solution of linear equations  No. of variables      234  No. of equations        3  Maximum subspace       30        Iterations       50       Convergence  1.0D-04        Start time      4.5   iter   nsub   residual    time   ----  ------  --------  ---------     1      3    8.41D-01       5.4     2      6    2.77D-02       6.3     3      9    7.44D-04       7.2     4     12    2.16D-05       8.0 Parallel integral file used       4 records with       0 large values      Atom:    1  C         Diamagnetic    257.9652     -0.0001     -0.0430      0.0000    257.9400      0.0000     -3.6400    -10.9048    254.4877        Paramagnetic   -171.5341      0.0001      0.0262     -0.0001   -171.5059      0.0008      3.6241     10.9053    -66.6073        Total Shielding Tensor     86.4312      0.0000     -0.0168     -0.0001     86.4341      0.0008     -0.0159      0.0005    187.8804           isotropic =     120.2486          anisotropy =     101.4478          Principal Components and Axis System                 1           2           3              187.8804     86.4341     86.4312      1        -0.0002     -0.0142      0.9999      2         0.0000      0.9999      0.0142      3         1.0000      0.0000      0.0002      Atom:    2  F         Diamagnetic    437.0434      0.0059     -0.0006      0.0000    437.0281      0.0000      4.3647     13.1005    494.0044        Paramagnetic     45.4518     -0.0044     -0.0452      0.0013     45.4365     -0.0003     -4.3764    -13.1021    -85.7861        Total Shielding Tensor    482.4952      0.0015     -0.0458      0.0013    482.4645     -0.0003     -0.0118     -0.0016    408.2183           isotropic =     457.7260          anisotropy =      37.1539          Principal Components and Axis System                 1           2           3              482.4953    482.4645    408.2183      1         0.9989     -0.0477      0.0006      2         0.0477      0.9989      0.0000      3        -0.0006      0.0000      1.0000      Atom:    3  H         Diamagnetic     37.9749     -0.8340     -4.5497      0.0000     25.7950      0.0000     -6.1910     -1.7013     27.9996        Paramagnetic     -9.2706      0.8339      3.0764      0.0000     -0.1859      0.0000      2.1621      1.7013      3.6036        Total Shielding Tensor     28.7043      0.0000     -1.4733      0.0000     25.6091      0.0000     -4.0289      0.0000     31.6033           isotropic =      28.6389          anisotropy =       5.3725          Principal Components and Axis System                 1           2           3               32.2206     28.0870     25.6091      1        -0.3864      0.9223      0.0000      2         0.0000      0.0000      1.0000      3         0.9223      0.3864      0.0000      Atom:    4  H         Diamagnetic     29.3616     -4.9783      2.2689     -5.6405     34.7251     -3.9304      2.2476     -6.5711     27.6592        Paramagnetic     -2.9741      3.6391     -1.5325      4.3006     -6.7910      2.6551     -0.2326      3.0826      3.9487        Total Shielding Tensor     26.3875     -1.3392      0.7364     -1.3399     27.9341     -1.2753      2.0150     -3.4885     31.6080           isotropic =      28.6432          anisotropy =       5.3720          Principal Components and Axis System                 1           2           3               32.2245     28.0906     25.6144      1         0.1931     -0.4612      0.8661      2        -0.3344      0.7989      0.5000      3         0.9224      0.3862      0.0000      Atom:    5  H         Diamagnetic     27.9139      5.8150      2.2677      5.6405     34.7251      3.9304      2.2450      3.1717     29.2911        Paramagnetic     -1.5265     -4.4758     -1.5313     -4.3006     -6.7910     -2.6552     -0.2299      0.3168      2.3169        Total Shielding Tensor     26.3874      1.3392      0.7364      1.3399     27.9341      1.2752      2.0151      3.4885     31.6080           isotropic =      28.6432          anisotropy =       5.3720          Principal Components and Axis System                 1           2           3               32.2245     28.0907     25.6143      1         0.1931      0.4611      0.8661      2         0.3344      0.7989     -0.4999      3         0.9224     -0.3862      0.0000 Task  times  cpu:        7.2s     wall:        8.2s  </module></module><module role="final"><module lineCount="4" templateRef="nwcheminpmod"><list templateRef="nullId"><scalar dataType="xsd:string" dictRef="n:comment"/><scalar dataType="xsd:string" dictRef="n:comment"/></list></module><module lineCount="1" templateRef="summaryalloc"/>-----------------------------------  No active global arrays<module lineCount="25" templateRef="gastats"/><module lineCount="1" templateRef="ignore"/>                                     --------                Please cite the following reference when publishing                           results obtained with NWChem:                  M. Valiev, E.J. Bylaska, N. Govind, K. Kowalski,              T.P. Straatsma, H.J.J. van Dam, D. Wang, J. Nieplocha,                        E. Apra, T.L. Windus, W.A. de Jong                 "NWChem: a comprehensive and scalable open-source                  solution for large scale molecular simulations"                      Comput. Phys. Commun. 181, 1477 (2010)                           doi:10.1016/j.cpc.2010.04.018 <module lineCount="15" templateRef="auth"/> Total times  cpu:        7.2s     wall:        8.2s</module></module>
