<?xml version="1.0" encoding="UTF-8"?>
<module cmlx:templateRef="gaussian.log" xmlns="http://www.xml-cml.org/schema" xmlns:cmlx="http://www.xml-cml.org/schema/cmlx"> Entering Gaussian System, Link 0=/usr/local/Gaussian/g03/g03 Initial command: /usr/local/Gaussian/g03/l1.exe /export/scratch//webmo/3296/Gau-17819.inp -scrdir=/export/scratch//webmo/3296/ Entering Link 1 = /usr/local/Gaussian/g03/l1.exe PID=     17821.  <module cmlx:lineCount="60" cmlx:templateRef="l1.legal"><scalar dataType="xsd:string" dictRef="g:l1.legal">Copyright (c) 1988,1990,1992,1993,1995,1998,2003, Gaussian, Inc.</scalar></module>  <module cmlx:lineCount="20" cmlx:templateRef="l1.citation"><list cmlx:templateRef="citation"><scalar dataType="xsd:string" dictRef="g:l1.citation">Cite this work as:</scalar></list></module> <module cmlx:lineCount="25" cmlx:templateRef="l1.end"><scalar dataType="xsd:string" dictRef="cc:run.date">20-Aug-2006</scalar><scalar dataType="xsd:string" dictRef="cc:program">Gaussian 03</scalar><scalar dataType="xsd:string" dictRef="cc:version">Sun64-SVR4-Unix-G03RevB.04</scalar><scalar dataType="xsd:string" dictRef="cc:program.date">2-Jun-2003</scalar><list cmlx:templateRef="control"><scalar dataType="xsd:string" dictRef="g:control">1/14=-1,18=20,26=3,38=1/1,3</scalar><scalar dataType="xsd:string" dictRef="g:control">2/9=110,17=6,18=5,40=1/2</scalar><scalar dataType="xsd:string" dictRef="g:control">3/5=4,6=6,7=111,11=2,16=1,25=1,30=1,74=-5/1,2,3</scalar><scalar dataType="xsd:string" dictRef="g:control">4//1</scalar><scalar dataType="xsd:string" dictRef="g:control">5/5=2,38=5/2</scalar><scalar dataType="xsd:string" dictRef="g:control">6/7=2,8=2,9=2,10=2,28=1/1</scalar><scalar dataType="xsd:string" dictRef="g:control">7//1,2,3,16</scalar><scalar dataType="xsd:string" dictRef="g:control">1/14=-1,18=20/3(1)</scalar><scalar dataType="xsd:string" dictRef="g:control">99//99</scalar><scalar dataType="xsd:string" dictRef="g:control">2/9=110/2</scalar><scalar dataType="xsd:string" dictRef="g:control">3/5=4,6=6,7=111,11=2,16=1,25=1,30=1,74=-5/1,2,3</scalar><scalar dataType="xsd:string" dictRef="g:control">4/5=5,16=3/1</scalar><scalar dataType="xsd:string" dictRef="g:control">5/5=2,38=5/2</scalar><scalar dataType="xsd:string" dictRef="g:control">7//1,2,3,16</scalar><scalar dataType="xsd:string" dictRef="g:control">1/14=-1,18=20/3(-5)</scalar><scalar dataType="xsd:string" dictRef="g:control">2/9=110/2</scalar><scalar dataType="xsd:string" dictRef="g:control">6/7=2,8=2,9=2,10=2,19=2,28=1/1</scalar><scalar dataType="xsd:string" dictRef="g:control">99/9=1/99</scalar></list></module><module cmlx:lineCount="3" cmlx:templateRef="l101.title"><scalar dataType="xsd:string" dictRef="cc:title" cmlx:templateRef="title">nitrobz basis</scalar></module><module cmlx:lineCount="54" cmlx:templateRef="l101"><list cmlx:templateRef="rest"><scalar dataType="xsd:string" dictRef="x:l101"/></list></module>                    Isotopes and Nuclear Properties:<module cmlx:lineCount="8" cmlx:templateRef="l101.isotope">  Atom         1           2           3           4           5           6           7           8           9          10 IAtWgt=          12          12          12          12          12          12           1           1           1           1 AtmWgt=  12.0000000  12.0000000  12.0000000  12.0000000  12.0000000  12.0000000   1.0078250   1.0078250   1.0078250   1.0078250 IAtSpn=           0           0           0           0           0           0           1           1           1           1 AtZEff=   0.0000000   0.0000000   0.0000000   0.0000000   0.0000000   0.0000000   0.0000000   0.0000000   0.0000000   0.0000000 AtQMom=   0.0000000   0.0000000   0.0000000   0.0000000   0.0000000   0.0000000   0.0000000   0.0000000   0.0000000   0.0000000 AtGFac=   0.0000000   0.0000000   0.0000000   0.0000000   0.0000000   0.0000000   2.7928460   2.7928460   2.7928460   2.7928460</module><module cmlx:lineCount="8" cmlx:templateRef="l101.isotope">  Atom        11          12          13          14 IAtWgt=          14          16          16           1 AtmWgt=  14.0030740  15.9949146  15.9949146   1.0078250 IAtSpn=           2           0           0           1 AtZEff=   0.0000000   0.0000000   0.0000000   0.0000000 AtQMom=   1.5600000   0.0000000   0.0000000   0.0000000 AtGFac=   0.4037610   0.0000000   0.0000000   2.7928460</module><module cmlx:lineCount="76" cmlx:templateRef="l103"><list cmlx:templateRef="berny"><scalar dataType="xsd:string" dictRef="g:optimization">Initialization pass.</scalar></list><module cmlx:lineCount="69" cmlx:templateRef="l103.init"><list cmlx:templateRef="length"><array dataType="xsd:string" size="14" dictRef="g:symbol">R1 R2 R3 R4 R5 R6 R7 R8 R9 R10 R11 R12 R13 R14</array><array dataType="xsd:integer" size="14" dictRef="g:atom1">1 1 1 2 2 3 3 4 4 5 5 6 11 11</array><array dataType="xsd:integer" size="14" dictRef="g:atom2">2 6 14 3 11 4 10 5 9 6 8 7 12 13</array><array dataType="xsd:double" size="14" dictRef="cc:distance">1.3915 1.3913 1.0838 1.3915 1.4682 1.3913 1.0838 1.3956 1.0862 1.3956 1.0867 1.0862 1.2251 1.2251</array><array delimiter="|" dataType="xsd:string" size="14" dictRef="g:deriv">|estimate D2E/DX2|estimate D2E/DX2|estimate D2E/DX2|estimate D2E/DX2|estimate D2E/DX2|estimate D2E/DX2|estimate D2E/DX2|estimate D2E/DX2|estimate D2E/DX2|estimate D2E/DX2|estimate D2E/DX2|estimate D2E/DX2|estimate D2E/DX2|estimate D2E/DX2|</array></list><list cmlx:templateRef="angle"><array dataType="xsd:string" size="21" dictRef="g:symbol">A1 A2 A3 A4 A5 A6 A7 A8 A9 A10 A11 A12 A13 A14 A15 A16 A17 A18 A19 A20 A21</array><array dataType="xsd:integer" size="21" dictRef="g:atom1">2 2 6 1 1 3 2 2 4 3 3 5 4 4 6 1 1 5 2 2 12</array><array dataType="xsd:integer" size="21" dictRef="g:atom2">1 1 1 2 2 2 3 3 3 4 4 4 5 5 5 6 6 6 11 11 11</array><array dataType="xsd:integer" size="21" dictRef="g:atom3">6 14 14 3 11 11 4 10 10 5 9 9 6 8 8 5 7 7 12 13 13</array><array dataType="xsd:double" size="21" dictRef="cc:angle">118.4998 119.4827 122.0176 122.3171 118.8414 118.8414 118.4998 119.4827 122.0176 120.1765 119.6147 120.2088 120.3303 119.8349 119.8349 120.1765 119.6147 120.2088 117.6106 117.6106 124.7788</array><array delimiter="|" dataType="xsd:string" size="21" dictRef="g:deriv">|estimate D2E/DX2|estimate D2E/DX2|estimate D2E/DX2|estimate D2E/DX2|estimate D2E/DX2|estimate D2E/DX2|estimate D2E/DX2|estimate D2E/DX2|estimate D2E/DX2|estimate D2E/DX2|estimate D2E/DX2|estimate D2E/DX2|estimate D2E/DX2|estimate D2E/DX2|estimate D2E/DX2|estimate D2E/DX2|estimate D2E/DX2|estimate D2E/DX2|estimate D2E/DX2|estimate D2E/DX2|estimate D2E/DX2|</array></list><list cmlx:templateRef="dihed"><array dataType="xsd:string" size="27" dictRef="g:symbol">D1 D2 D3 D4 D5 D6 D7 D8 D9 D10 D11 D12 D13 D14 D15 D16 D17 D18 D19 D20 D21 D22 D23 D24 D25 D26 D27</array><array dataType="xsd:integer" size="27" dictRef="g:atom1">6 6 14 14 2 2 14 14 1 1 11 11 1 1 3 3 2 2 10 10 3 3 9 9 4 4 8</array><array dataType="xsd:integer" size="27" dictRef="g:atom2">1 1 1 1 1 1 1 1 2 2 2 2 2 2 2 2 3 3 3 3 4 4 4 4 5 5 5</array><array dataType="xsd:integer" size="27" dictRef="g:atom3">2 2 2 2 6 6 6 6 3 3 3 3 11 11 11 11 4 4 4 4 5 5 5 5 6 6 6</array><array dataType="xsd:integer" size="27" dictRef="g:atom4">3 11 3 11 5 7 5 7 4 10 4 10 12 13 12 13 5 9 5 9 6 8 6 8 1 7 1</array><array dataType="xsd:double" size="27" dictRef="cc:dihed">0.0096 -179.9878 -179.9951 0.0075 -0.0052 -179.9947 179.9996 0.0101 -0.0096 179.9951 179.9878 -0.0075 -179.9972 -0.0054 0.0054 179.9972 0.0052 179.9947 -179.9996 -0.0101 -0.0012 -179.9886 -179.9906 0.022 0.0012 179.9906 179.9886</array><array delimiter="|" dataType="xsd:string" size="27" dictRef="g:deriv">|estimate D2E/DX2|estimate D2E/DX2|estimate D2E/DX2|estimate D2E/DX2|estimate D2E/DX2|estimate D2E/DX2|estimate D2E/DX2|estimate D2E/DX2|estimate D2E/DX2|estimate D2E/DX2|estimate D2E/DX2|estimate D2E/DX2|estimate D2E/DX2|estimate D2E/DX2|estimate D2E/DX2|estimate D2E/DX2|estimate D2E/DX2|estimate D2E/DX2|estimate D2E/DX2|estimate D2E/DX2|estimate D2E/DX2|estimate D2E/DX2|estimate D2E/DX2|estimate D2E/DX2|estimate D2E/DX2|estimate D2E/DX2|estimate D2E/DX2|</array></list> ! D28   D(8,5,6,7)             -0.022          estimate D2E/DX2                !</module> --------------------------------------------------------------------------------<module cmlx:lineCount="2" cmlx:templateRef="l103.trust"><scalar dataType="xsd:double" dictRef="g:trustrad">0.3</scalar><scalar dataType="xsd:double" dictRef="g:fncerr">1.0E-7</scalar><scalar dataType="xsd:double" dictRef="g:grderr">1.0E-6</scalar><scalar dataType="xsd:integer" dictRef="g:nstep">73</scalar><scalar dataType="xsd:integer" dictRef="g:allowedstep">100</scalar></module> GradGradGradGradGradGradGradGradGradGradGradGradGradGradGradGradGradGrad</module><module cmlx:lineCount="20" cmlx:templateRef="l202.orient"><molecule id="mol.l202.orient" cmlx:templateRef="atom"><atomArray><atom id="a1" elementType="C" x3="0.0" y3="0.0" z3="0.0"><scalar dataType="xsd:integer" dictRef="cc:serial">1</scalar><scalar dataType="xsd:integer" dictRef="g:atomicType">0</scalar><scalar dataType="xsd:integer" dictRef="compchem:atomicNumber">6</scalar></atom><atom id="a2" elementType="C" x3="0.0" y3="0.0" z3="1.391513"><scalar dataType="xsd:integer" dictRef="cc:serial">2</scalar><scalar dataType="xsd:integer" dictRef="g:atomicType">0</scalar><scalar dataType="xsd:integer" dictRef="compchem:atomicNumber">6</scalar></atom><atom id="a3" elementType="C" x3="1.17597" y3="0.0" z3="2.135423"><scalar dataType="xsd:integer" dictRef="cc:serial">3</scalar><scalar dataType="xsd:integer" dictRef="g:atomicType">0</scalar><scalar dataType="xsd:integer" dictRef="compchem:atomicNumber">6</scalar></atom><atom id="a4" elementType="C" x3="2.390674" y3="-2.04E-4" z3="1.457019"><scalar dataType="xsd:integer" dictRef="cc:serial">4</scalar><scalar dataType="xsd:integer" dictRef="g:atomicType">0</scalar><scalar dataType="xsd:integer" dictRef="compchem:atomicNumber">6</scalar></atom><atom id="a5" elementType="C" x3="2.41487" y3="-2.93E-4" z3="0.061652"><scalar dataType="xsd:integer" dictRef="cc:serial">5</scalar><scalar dataType="xsd:integer" dictRef="g:atomicType">0</scalar><scalar dataType="xsd:integer" dictRef="compchem:atomicNumber">6</scalar></atom><atom id="a6" elementType="C" x3="1.222707" y3="-2.04E-4" z3="-0.66387"><scalar dataType="xsd:integer" dictRef="cc:serial">6</scalar><scalar dataType="xsd:integer" dictRef="g:atomicType">0</scalar><scalar dataType="xsd:integer" dictRef="compchem:atomicNumber">6</scalar></atom><atom id="a7" elementType="H" x3="1.243843" y3="-1.2E-4" z3="-1.749883"><scalar dataType="xsd:integer" dictRef="cc:serial">7</scalar><scalar dataType="xsd:integer" dictRef="g:atomicType">0</scalar><scalar dataType="xsd:integer" dictRef="compchem:atomicNumber">1</scalar></atom><atom id="a8" elementType="H" x3="3.366783" y3="-6.4E-4" z3="-0.462563"><scalar dataType="xsd:integer" dictRef="cc:serial">8</scalar><scalar dataType="xsd:integer" dictRef="g:atomicType">0</scalar><scalar dataType="xsd:integer" dictRef="compchem:atomicNumber">1</scalar></atom><atom id="a9" elementType="H" x3="3.319764" y3="-1.2E-4" z3="2.019745"><scalar dataType="xsd:integer" dictRef="cc:serial">9</scalar><scalar dataType="xsd:integer" dictRef="g:atomicType">0</scalar><scalar dataType="xsd:integer" dictRef="compchem:atomicNumber">1</scalar></atom><atom id="a10" elementType="H" x3="1.122377" y3="8.0E-5" z3="3.217867"><scalar dataType="xsd:integer" dictRef="cc:serial">10</scalar><scalar dataType="xsd:integer" dictRef="g:atomicType">0</scalar><scalar dataType="xsd:integer" dictRef="compchem:atomicNumber">1</scalar></atom><atom id="a11" elementType="N" x3="-1.286059" y3="-5.9E-5" z3="2.099741"><scalar dataType="xsd:integer" dictRef="cc:serial">11</scalar><scalar dataType="xsd:integer" dictRef="g:atomicType">0</scalar><scalar dataType="xsd:integer" dictRef="compchem:atomicNumber">7</scalar></atom><atom id="a12" elementType="O" x3="-1.259745" y3="-4.0E-6" z3="3.324519"><scalar dataType="xsd:integer" dictRef="cc:serial">12</scalar><scalar dataType="xsd:integer" dictRef="g:atomicType">0</scalar><scalar dataType="xsd:integer" dictRef="compchem:atomicNumber">8</scalar></atom><atom id="a13" elementType="O" x3="-2.307053" y3="-4.0E-6" z3="1.42273"><scalar dataType="xsd:integer" dictRef="cc:serial">13</scalar><scalar dataType="xsd:integer" dictRef="g:atomicType">0</scalar><scalar dataType="xsd:integer" dictRef="compchem:atomicNumber">8</scalar></atom><atom id="a14" elementType="H" x3="-0.943427" y3="8.0E-5" z3="-0.533388"><scalar dataType="xsd:integer" dictRef="cc:serial">14</scalar><scalar dataType="xsd:integer" dictRef="g:atomicType">0</scalar><scalar dataType="xsd:integer" dictRef="compchem:atomicNumber">1</scalar></atom></atomArray><formula formalCharge="0" concise="C 6 H 5 N 1 O 2"><atomArray elementType="C H N O" count="6.0 5.0 1.0 2.0"/></formula><bondArray><bond atomRefs2="a1 a2" id="a1_a2" order="2"/><bond atomRefs2="a1 a6" id="a1_a6" order="S"/><bond atomRefs2="a1 a14" id="a1_a14" order="S"/><bond atomRefs2="a2 a3" id="a2_a3" order="S"/><bond atomRefs2="a2 a11" id="a2_a11" order="S"/><bond atomRefs2="a3 a4" id="a3_a4" order="2"/><bond atomRefs2="a3 a10" id="a3_a10" order="S"/><bond atomRefs2="a4 a5" id="a4_a5" order="S"/><bond atomRefs2="a4 a9" id="a4_a9" order="S"/><bond atomRefs2="a5 a6" id="a5_a6" order="2"/><bond atomRefs2="a5 a8" id="a5_a8" order="S"/><bond atomRefs2="a6 a7" id="a6_a7" order="S"/><bond atomRefs2="a11 a12" id="a11_a12" order="S"/><bond atomRefs2="a11 a13" id="a11_a13" order="S"/></bondArray><property dictRef="cml:molmass"><scalar dataType="xsd:double" units="unit:dalton" xmlns:unit="http://www.xml-cml.org/unit/si/">123.1094</scalar></property></molecule></module><module cmlx:lineCount="31" cmlx:templateRef="l202.distmat"><array dataType="xsd:double" size="95" dictRef="cc:distance">0.0 1.391513 0.0 2.437814 1.391513 0.0 2.799683 2.391571 1.391308 0.0 2.415657 2.756833 2.415657 1.395577 0.0 1.391308 2.391571 2.799683 2.421222 1.395577 0.0 2.146913 3.378685 3.885898 3.405795 2.157073 1.086218 0.0 3.39841 3.843543 3.39841 2.153505 1.08671 2.153505 2.482754 0.0 3.885898 3.378685 2.146913 1.086218 2.157073 3.405795 4.303434 2.482754 0.0 3.40799 2.143665 1.08377 2.170061 3.410606 3.883034 4.969234 4.310792 2.5028 0.0 2.462288 1.468174 2.462288 3.732487 4.225007 3.732487 4.606518 5.311717 4.606518 2.655328 3.555191 2.307265 2.710472 4.10038 4.914173 4.697853 5.658401 5.978858 4.761758 2.384508 2.710472 2.307265 3.555191 4.697853 4.914173 4.10038 4.761758 5.978858 5.658401 3.870854 1.08377 2.143665 3.40799 3.883034 3.410606 2.170061 2.5028 4.310792 4.969234 4.28246</array></module><module cmlx:lineCount="6" cmlx:templateRef="l202.stoich"><scalar dataType="xsd:string" dictRef="cc:formula" cmlx:templateRef="stoich">C6H5NO2</scalar><scalar dataType="xsd:string" dictRef="cc:frameworkgroup" cmlx:templateRef="framework">CS[SG(C2HN),X(C4H4O2)]</scalar><scalar dataType="xsd:integer" dictRef="cc:degfreedom" cmlx:templateRef="degfreedom">20</scalar><scalar dataType="xsd:string" dictRef="cc:pointgroup">CS</scalar><scalar dataType="xsd:integer" dictRef="cc:operatorcount">2</scalar><scalar dataType="xsd:string" dictRef="cc:largestabelian">CS</scalar><scalar dataType="xsd:integer" dictRef="cc:operatorcount">2</scalar><scalar dataType="xsd:string" dictRef="cc:largestconciseabelian">CS</scalar><scalar dataType="xsd:integer" dictRef="cc:operatorcount">2</scalar></module><module cmlx:lineCount="20" cmlx:templateRef="l202.orient"><molecule id="a14" cmlx:templateRef="atom"><atomArray><atom id="a1" elementType="C" x3="8.4E-5" y3="0.425127" z3="1.218907"><scalar dataType="xsd:integer" dictRef="cc:serial">1</scalar><scalar dataType="xsd:integer" dictRef="g:atomicType">0</scalar><scalar dataType="xsd:integer" dictRef="compchem:atomicNumber">6</scalar></atom><atom id="a2" elementType="C" x3="8.5E-5" y3="-0.246121" z3="0.0"><scalar dataType="xsd:integer" dictRef="cc:serial">2</scalar><scalar dataType="xsd:integer" dictRef="g:atomicType">0</scalar><scalar dataType="xsd:integer" dictRef="compchem:atomicNumber">6</scalar></atom><atom id="a3" elementType="C" x3="8.4E-5" y3="0.425127" z3="-1.218907"><scalar dataType="xsd:integer" dictRef="cc:serial">3</scalar><scalar dataType="xsd:integer" dictRef="g:atomicType">0</scalar><scalar dataType="xsd:integer" dictRef="compchem:atomicNumber">6</scalar></atom><atom id="a4" elementType="C" x3="-1.22E-4" y3="1.81641" z3="-1.210611"><scalar dataType="xsd:integer" dictRef="cc:serial">4</scalar><scalar dataType="xsd:integer" dictRef="g:atomicType">0</scalar><scalar dataType="xsd:integer" dictRef="compchem:atomicNumber">6</scalar></atom><atom id="a5" elementType="C" x3="-2.12E-4" y3="2.510712" z3="0.0"><scalar dataType="xsd:integer" dictRef="cc:serial">5</scalar><scalar dataType="xsd:integer" dictRef="g:atomicType">0</scalar><scalar dataType="xsd:integer" dictRef="compchem:atomicNumber">6</scalar></atom><atom id="a6" elementType="C" x3="-1.22E-4" y3="1.81641" z3="1.210611"><scalar dataType="xsd:integer" dictRef="cc:serial">6</scalar><scalar dataType="xsd:integer" dictRef="g:atomicType">0</scalar><scalar dataType="xsd:integer" dictRef="compchem:atomicNumber">6</scalar></atom><atom id="a7" elementType="H" x3="-3.9E-5" y3="2.358802" z3="2.151717"><scalar dataType="xsd:integer" dictRef="cc:serial">7</scalar><scalar dataType="xsd:integer" dictRef="g:atomicType">0</scalar><scalar dataType="xsd:integer" dictRef="compchem:atomicNumber">1</scalar></atom><atom id="a8" elementType="H" x3="-5.61E-4" y3="3.597422" z3="0.0"><scalar dataType="xsd:integer" dictRef="cc:serial">8</scalar><scalar dataType="xsd:integer" dictRef="g:atomicType">0</scalar><scalar dataType="xsd:integer" dictRef="compchem:atomicNumber">1</scalar></atom><atom id="a9" elementType="H" x3="-3.9E-5" y3="2.358802" z3="-2.151717"><scalar dataType="xsd:integer" dictRef="cc:serial">9</scalar><scalar dataType="xsd:integer" dictRef="g:atomicType">0</scalar><scalar dataType="xsd:integer" dictRef="compchem:atomicNumber">1</scalar></atom><atom id="a10" elementType="H" x3="1.65E-4" y3="-0.143976" z3="-2.14123"><scalar dataType="xsd:integer" dictRef="cc:serial">10</scalar><scalar dataType="xsd:integer" dictRef="g:atomicType">0</scalar><scalar dataType="xsd:integer" dictRef="compchem:atomicNumber">1</scalar></atom><atom id="a11" elementType="N" x3="2.8E-5" y3="-1.714295" z3="0.0"><scalar dataType="xsd:integer" dictRef="cc:serial">11</scalar><scalar dataType="xsd:integer" dictRef="g:atomicType">0</scalar><scalar dataType="xsd:integer" dictRef="compchem:atomicNumber">7</scalar></atom><atom id="a12" elementType="O" x3="8.4E-5" y3="-2.282062" z3="-1.085548"><scalar dataType="xsd:integer" dictRef="cc:serial">12</scalar><scalar dataType="xsd:integer" dictRef="g:atomicType">0</scalar><scalar dataType="xsd:integer" dictRef="compchem:atomicNumber">8</scalar></atom><atom id="a13" elementType="O" x3="8.4E-5" y3="-2.282062" z3="1.085548"><scalar dataType="xsd:integer" dictRef="cc:serial">13</scalar><scalar dataType="xsd:integer" dictRef="g:atomicType">0</scalar><scalar dataType="xsd:integer" dictRef="compchem:atomicNumber">8</scalar></atom><atom id="a14" elementType="H" x3="1.65E-4" y3="-0.143976" z3="2.14123"><scalar dataType="xsd:integer" dictRef="cc:serial">14</scalar><scalar dataType="xsd:integer" dictRef="g:atomicType">0</scalar><scalar dataType="xsd:integer" dictRef="compchem:atomicNumber">1</scalar></atom></atomArray><formula formalCharge="0" concise="C 6 H 5 N 1 O 2"><atomArray elementType="C H N O" count="6.0 5.0 1.0 2.0"/></formula><bondArray><bond atomRefs2="a1 a2" id="a1_a2" order="2"/><bond atomRefs2="a1 a6" id="a1_a6" order="S"/><bond atomRefs2="a1 a14" id="a1_a14" order="S"/><bond atomRefs2="a2 a3" id="a2_a3" order="S"/><bond atomRefs2="a2 a11" id="a2_a11" order="S"/><bond atomRefs2="a3 a4" id="a3_a4" order="2"/><bond atomRefs2="a3 a10" id="a3_a10" order="S"/><bond atomRefs2="a4 a5" id="a4_a5" order="S"/><bond atomRefs2="a4 a9" id="a4_a9" order="S"/><bond atomRefs2="a5 a6" id="a5_a6" order="2"/><bond atomRefs2="a5 a8" id="a5_a8" order="S"/><bond atomRefs2="a6 a7" id="a6_a7" order="S"/><bond atomRefs2="a11 a12" id="a11_a12" order="S"/><bond atomRefs2="a11 a13" id="a11_a13" order="S"/></bondArray><property dictRef="cml:molmass"><scalar dataType="xsd:double" units="unit:dalton" xmlns:unit="http://www.xml-cml.org/unit/si/">123.1094</scalar></property></molecule></module><module cmlx:lineCount="1" cmlx:templateRef="l202.rotconst"><array dataType="xsd:double" size="3" dictRef="cc:rotconst" cmlx:templateRef="rotconst">3.9761528 1.2911151 0.9746364</array></module><scalar dataType="xsd:integer" dictRef="g:buffer" cmlx:templateRef="buffer">131072</scalar><scalar dataType="xsd:string" dictRef="g:raffenetti" cmlx:templateRef="raff">Raffenetti</scalar><scalar dataType="xsd:string" dictRef="g:twoe" cmlx:templateRef="twoe">Two-electron</scalar><module cmlx:lineCount="13" cmlx:templateRef="l301.basis"><scalar dataType="xsd:string" dictRef="cc:basis">6-311+G(d,p)</scalar><scalar dataType="xsd:string" dictRef="cc:diffuse">(5D, 7F)</scalar><list cmlx:lineCount="2" cmlx:templateRef="symmadapt"><array dataType="xsd:integer" dictRef="cc:adapted" size="2">131 97</array><array dataType="xsd:string" dictRef="cc:symm" size="2">A' A"</array></list><scalar dataType="xsd:integer" dictRef="cc:basiscount">228</scalar><scalar dataType="xsd:integer" dictRef="g:primbasis">364</scalar><scalar dataType="xsd:integer" dictRef="cc:cartesianbasis">237</scalar><scalar dataType="xsd:integer" dictRef="cc:alphae">32</scalar><scalar dataType="xsd:integer" dictRef="cc:betae">32</scalar> IExCor= 402 DFT=T Ex=B+HF Corr=LYP ExCW=0 ScaHFX=  0.200000 ScaDFX=  0.800000  0.720000  1.000000  0.810000 IRadAn=      0 IRanWt=     -1 IRanGd=            0 ICorTp=0 NAtoms=   14 NActive=   14 NUniq=    9 SFac= 3.02D+00 NAtFMM=   60 Big=F</module> NPDir=0 NMtPBC=     1 NCelOv=     1 NCel=       1 NClECP=     1 NCelD=      1         NCelK=      1 NCelE2=     1 NClLst=     1 CellRange=     0.0.<module cmlx:lineCount="1" cmlx:templateRef="l302.basis"><list cmlx:templateRef="onee"><scalar dataType="xsd:string" dictRef="g:onee">One-electron integrals</scalar></list></module> One-electron integral symmetry used in STVInt NBasis=   228 RedAO= T  NBF=   131    97 NBsUse=   228 1.00D-06 NBFU=   131    97 Precomputing XC quadrature grid using IXCGrd= 2 IRadAn=           0 IRanWt=          -1 IRanGd=           0. NRdTot=     898 NPtTot=      113984 NUsed=      120327 NTot=      120359 NSgBfM=   237   237   237   237.<module cmlx:lineCount="1" cmlx:templateRef="l303.basis"><list cmlx:templateRef="l303"><scalar dataType="xsd:integer" dictRef="g:dipdrv">1</scalar></list></module> Harris functional with IExCor=  402 diagonalized for initial guess. ExpMin= 4.38D-02 ExpMax= 8.59D+03 ExpMxC= 1.30D+03 IAcc=2 IRadAn=         4 AccDes= 0.00D+00 HarFok:  IExCor= 402 AccDes= 0.00D+00 IRadAn=         4 IDoV=1 ScaDFX=  1.000000  1.000000  1.000000  1.000000 Harris En= -437.021746527976     Initial guess orbital symmetries:       Occupied  (A") (A') (A') (A") (A') (A') (A") (A') (A') (A')                 (A") (A') (A') (A") (A') (A") (A') (A') (A") (A')                 (A') (A") (A") (A') (A') (A") (A') (A") (A') (A")                 (A') (A")       Virtual   (A') (A") (A') (A') (A") (A') (A') (A') (A") (A')                 (A') (A') (A') (A") (A') (A") (A") (A') (A') (A")                 (A") (A') (A') (A") (A") (A') (A') (A') (A') (A')                 (A") (A') (A") (A') (A') (A") (A") (A') (A") (A')                 (A") (A') (A") (A') (A') (A") (A') (A") (A') (A')                 (A") (A') (A") (A') (A") (A') (A') (A") (A") (A')                 (A") (A') (A") (A') (A') (A") (A") (A') (A') (A')                 (A") (A') (A") (A') (A") (A') (A') (A") (A') (A')                 (A") (A') (A") (A') (A") (A") (A') (A') (A") (A")                 (A') (A') (A') (A") (A") (A') (A') (A") (A') (A')                 (A") (A") (A') (A') (A") (A') (A') (A') (A") (A')                 (A") (A') (A") (A") (A') (A") (A') (A") (A') (A')                 (A") (A") (A') (A') (A") (A') (A") (A") (A') (A")                 (A") (A') (A') (A') (A") (A") (A') (A') (A') (A")                 (A') (A') (A') (A') (A") (A") (A') (A") (A") (A')                 (A') (A') (A") (A") (A') (A") (A") (A') (A') (A")                 (A') (A') (A") (A') (A") (A") (A") (A') (A') (A')                 (A") (A') (A') (A') (A") (A') (A') (A") (A") (A')                 (A") (A") (A') (A") (A') (A') (A") (A') (A") (A')                 (A') (A") (A') (A') (A') (A") The electronic state of the initial guess is 1-A'.<module cmlx:lineCount="209" cmlx:templateRef="l502"><list cmlx:templateRef="l502.type"><scalar dataType="xsd:string" dictRef="g:l502.type">Closed</scalar></list> Requested convergence on RMS density matrix=1.00D-08 within 128 cycles. Requested convergence on MAX density matrix=1.00D-06. Requested convergence on             energy=1.00D-06. No special actions if energy rises. Using DIIS extrapolation, IDIIS=  1040. Integral symmetry usage will be decided dynamically.       120326 words used for storage of precomputed grid. IEnd=    337146 IEndB=    337146 NGot=   6291456 MDV=   6027357 LenX=   6027357 Fock matrices will be formed incrementally for  20 cycles.<module cmlx:lineCount="192" cmlx:templateRef="l502.cycle"><list cmlx:templateRef="cycle"><list><scalar dataType="xsd:integer" dictRef="cc:cycle">1</scalar><scalar dataType="xsd:integer" dictRef="g:pass">1</scalar><scalar dataType="xsd:integer" dictRef="g:idiag">1</scalar></list></list><module cmlx:lineCount="1" cmlx:templateRef="l502.e"><list cmlx:templateRef="l502.e"><scalar dataType="xsd:double" dictRef="g:l502.e">-436.547515611287</scalar></list></module> Cycle   2  Pass 1  IDiag  1:<module cmlx:lineCount="1" cmlx:templateRef="l502.ediff"><list cmlx:templateRef="l502.ediff"><list><scalar dataType="xsd:double" dictRef="g:l502.e">-436.631254268085</scalar><scalar dataType="xsd:double" dictRef="g:l502.deltae">-0.083738656798</scalar></list></list></module> Cycle   3  Pass 1  IDiag  1:<module cmlx:lineCount="1" cmlx:templateRef="l502.ediff"><list cmlx:templateRef="l502.ediff"><list><scalar dataType="xsd:double" dictRef="g:l502.e">-436.857356150615</scalar><scalar dataType="xsd:double" dictRef="g:l502.deltae">-0.22610188253</scalar></list></list></module> Cycle   4  Pass 1  IDiag  1:<module cmlx:lineCount="1" cmlx:templateRef="l502.ediff"><list cmlx:templateRef="l502.ediff"><list><scalar dataType="xsd:double" dictRef="g:l502.e">-436.868900472318</scalar><scalar dataType="xsd:double" dictRef="g:l502.deltae">-0.011544321703</scalar></list></list></module> Cycle   5  Pass 1  IDiag  1:<module cmlx:lineCount="1" cmlx:templateRef="l502.ediff"><list cmlx:templateRef="l502.ediff"><list><scalar dataType="xsd:double" dictRef="g:l502.e">-436.87421352745</scalar><scalar dataType="xsd:double" dictRef="g:l502.deltae">-0.005313055132</scalar></list></list></module> Cycle   6  Pass 1  IDiag  1:<module cmlx:lineCount="1" cmlx:templateRef="l502.ediff"><list cmlx:templateRef="l502.ediff"><list><scalar dataType="xsd:double" dictRef="g:l502.e">-436.874487437158</scalar><scalar dataType="xsd:double" dictRef="g:l502.deltae">-2.73909707E-4</scalar></list></list></module> Cycle   7  Pass 1  IDiag  1:                    CP:  8.02D-01<module cmlx:lineCount="1" cmlx:templateRef="l502.ediff"><list cmlx:templateRef="l502.ediff"><list><scalar dataType="xsd:double" dictRef="g:l502.e">-436.874510298168</scalar><scalar dataType="xsd:double" dictRef="g:l502.deltae">-2.286101E-5</scalar></list></list></module> Cycle   8  Pass 1  IDiag  1:                    CP:  7.51D-01  7.50D-01<module cmlx:lineCount="1" cmlx:templateRef="l502.ediff"><list cmlx:templateRef="l502.ediff"><list><scalar dataType="xsd:double" dictRef="g:l502.e">-436.874513166497</scalar><scalar dataType="xsd:double" dictRef="g:l502.deltae">-2.868329E-6</scalar></list></list></module> Cycle   9  Pass 1  IDiag  1:                    CP:  7.69D-01  7.61D-01  7.87D-01<module cmlx:lineCount="1" cmlx:templateRef="l502.ediff"><list cmlx:templateRef="l502.ediff"><list><scalar dataType="xsd:double" dictRef="g:l502.e">-436.874513242771</scalar><scalar dataType="xsd:double" dictRef="g:l502.deltae">-7.6274E-8</scalar></list></list></module> Cycle  10  Pass 1  IDiag  1:                    CP:  7.65D-01  7.63D-01  8.27D-01  9.48D-01<module cmlx:lineCount="1" cmlx:templateRef="l502.ediff"><list cmlx:templateRef="l502.ediff"><list><scalar dataType="xsd:double" dictRef="g:l502.e">-436.874513244456</scalar><scalar dataType="xsd:double" dictRef="g:l502.deltae">-1.685E-9</scalar></list></list></module> Cycle  11  Pass 1  IDiag  1:                    CP:  7.65D-01  7.66D-01  8.35D-01  9.56D-01  9.24D-01<module cmlx:lineCount="1" cmlx:templateRef="l502.ediff"><list cmlx:templateRef="l502.ediff"><list><scalar dataType="xsd:double" dictRef="g:l502.e">-436.874513245405</scalar><scalar dataType="xsd:double" dictRef="g:l502.deltae">-9.49E-10</scalar></list></list></module> Cycle  12  Pass 1  IDiag  1:                    CP:  7.66D-01  7.66D-01  8.35D-01  9.77D-01  9.43D-01                    CP:  1.04D+00<module cmlx:lineCount="1" cmlx:templateRef="l502.ediff"><list cmlx:templateRef="l502.ediff"><list><scalar dataType="xsd:double" dictRef="g:l502.e">-436.874513245383</scalar><scalar dataType="xsd:double" dictRef="g:l502.deltae">2.1E-11</scalar></list></list></module> Cycle  13  Pass 1  IDiag  1:                    CP:  7.66D-01  7.66D-01  8.35D-01  9.75D-01  9.48D-01                    CP:  1.06D+00  8.61D-01<module cmlx:lineCount="1" cmlx:templateRef="l502.ediff"><list cmlx:templateRef="l502.ediff"><list><scalar dataType="xsd:double" dictRef="g:l502.e">-436.874513245383</scalar><scalar dataType="xsd:double" dictRef="g:l502.deltae">0.0</scalar></list></list></module> RMSDP=1.91D-09 MaxDP=1.46D-07 DE= 1.14D-13 OVMax= 6.80D-08</module><module cmlx:lineCount="4" cmlx:templateRef="l502.footer"><list cmlx:templateRef="l502"><scalar dataType="xsd:string" dictRef="g:l502">SCF Done:  E(RB+HF-LYP) =  -436.874513245     A.U. after   13 cycles</scalar><scalar dataType="xsd:string" dictRef="g:l502">Convg  =    0.1906D-08             -V/T =  2.0038</scalar><scalar dataType="xsd:string" dictRef="g:l502">S**2   =   0.0000</scalar><scalar dataType="xsd:string" dictRef="g:l502">KE= 4.352263046093D+02 PE=-1.845767293093D+03 EE= 5.608869659535D+02</scalar></list></module></module> Copying SCF densities to generalized density rwf, ISCF=0 IROHF=0.<module cmlx:lineCount="179" cmlx:templateRef="l601.popanal"> Orbital symmetries:<module cmlx:lineCount="4" cmlx:templateRef="l4601.occupied"><list cmlx:templateRef="occ"><scalar dataType="xsd:string" dictRef="g:occorbs">(A") (A') (A') (A') (A") (A') (A') (A") (A') (A')</scalar></list><list cmlx:templateRef="occ"><scalar dataType="xsd:string" dictRef="g:occorbs">(A") (A') (A') (A") (A') (A") (A') (A') (A') (A")</scalar><scalar dataType="xsd:string" dictRef="g:occorbs">(A') (A") (A') (A") (A') (A') (A") (A") (A') (A")</scalar><scalar dataType="xsd:string" dictRef="g:occorbs">(A') (A")</scalar></list></module><module cmlx:lineCount="20" cmlx:templateRef="l4601.virtual"><list cmlx:templateRef="virt"><scalar dataType="xsd:string" dictRef="g:virtorbs">(A') (A") (A') (A') (A") (A') (A') (A") (A') (A')</scalar></list><list cmlx:templateRef="virt"><scalar dataType="xsd:string" dictRef="g:virtorbs">(A") (A') (A') (A") (A') (A') (A") (A') (A") (A')</scalar><scalar dataType="xsd:string" dictRef="g:virtorbs">(A') (A") (A') (A") (A') (A') (A") (A') (A') (A")</scalar><scalar dataType="xsd:string" dictRef="g:virtorbs">(A') (A') (A") (A') (A') (A") (A") (A") (A') (A')</scalar><scalar dataType="xsd:string" dictRef="g:virtorbs">(A") (A") (A') (A') (A') (A") (A') (A") (A') (A")</scalar><scalar dataType="xsd:string" dictRef="g:virtorbs">(A') (A') (A") (A') (A") (A') (A') (A") (A") (A')</scalar><scalar dataType="xsd:string" dictRef="g:virtorbs">(A") (A") (A') (A') (A") (A') (A') (A") (A') (A')</scalar><scalar dataType="xsd:string" dictRef="g:virtorbs">(A") (A') (A') (A') (A") (A') (A") (A') (A") (A')</scalar><scalar dataType="xsd:string" dictRef="g:virtorbs">(A") (A') (A') (A") (A') (A") (A") (A') (A") (A')</scalar><scalar dataType="xsd:string" dictRef="g:virtorbs">(A') (A") (A") (A') (A") (A') (A') (A") (A') (A')</scalar><scalar dataType="xsd:string" dictRef="g:virtorbs">(A") (A") (A') (A') (A") (A') (A') (A') (A") (A')</scalar><scalar dataType="xsd:string" dictRef="g:virtorbs">(A") (A") (A') (A") (A') (A") (A") (A') (A') (A')</scalar><scalar dataType="xsd:string" dictRef="g:virtorbs">(A") (A") (A') (A") (A') (A') (A") (A") (A') (A")</scalar><scalar dataType="xsd:string" dictRef="g:virtorbs">(A') (A') (A") (A') (A") (A') (A") (A') (A") (A')</scalar><scalar dataType="xsd:string" dictRef="g:virtorbs">(A') (A') (A') (A") (A') (A') (A") (A") (A') (A")</scalar><scalar dataType="xsd:string" dictRef="g:virtorbs">(A') (A') (A") (A') (A") (A") (A') (A") (A') (A')</scalar><scalar dataType="xsd:string" dictRef="g:virtorbs">(A") (A') (A") (A') (A") (A") (A") (A') (A') (A')</scalar><scalar dataType="xsd:string" dictRef="g:virtorbs">(A") (A') (A') (A') (A") (A') (A') (A") (A") (A')</scalar><scalar dataType="xsd:string" dictRef="g:virtorbs">(A") (A") (A') (A") (A') (A') (A") (A') (A') (A")</scalar><scalar dataType="xsd:string" dictRef="g:virtorbs">(A') (A") (A') (A') (A') (A")</scalar></list></module><module cmlx:lineCount="1" cmlx:templateRef="l601.state"><scalar dataType="xsd:string" dictRef="g:l601.state">1-A'.</scalar></module><array dataType="xsd:double" size="32" dictRef="g:alphaocc">-19.16711 -19.16708 -14.56194 -10.25071 -10.2149 -10.21489 -10.21361 -10.21074 -10.21069 -1.24593 -1.07218 -0.90625 -0.8228 -0.78746 -0.71687 -0.64649 -0.61112 -0.57824 -0.55052 -0.52894 -0.52433 -0.48722 -0.47863 -0.4617 -0.40604 -0.40282 -0.38476 -0.32795 -0.32587 -0.30873 -0.2971 -0.29239</array><array dataType="xsd:double" size="196" dictRef="g:alphavirt">-0.10811 -0.04687 -0.0202 -0.0084 0.01356 0.01942 0.03494 0.04444 0.04725 0.05641 0.07766 0.08113 0.0819 0.09852 0.1108 0.11548 0.12417 0.1299 0.13119 0.13586 0.1402 0.14056 0.17052 0.17134 0.17899 0.18329 0.18666 0.18886 0.19249 0.1929 0.19579 0.20529 0.21124 0.21422 0.24565 0.25033 0.25377 0.25583 0.26182 0.26821 0.2857 0.29702 0.30119 0.30388 0.31074 0.32597 0.34922 0.38296 0.39595 0.4077 0.42918 0.44009 0.48239 0.48952 0.4975 0.50252 0.52091 0.53678 0.54779 0.55529 0.57817 0.59014 0.59889 0.60172 0.62344 0.6494 0.65545 0.67245 0.6911 0.69944 0.72304 0.76457 0.79427 0.79742 0.80129 0.82098 0.82885 0.84206 0.84757 0.87455 0.88729 0.94659 0.95253 0.97293 0.99044 0.99509 1.03959 1.05435 1.06018 1.1002 1.10539 1.10826 1.15156 1.1696 1.1913 1.21305 1.23825 1.29691 1.31268 1.37718 1.4511 1.484 1.49164 1.51999 1.53665 1.53784 1.55463 1.58391 1.61897 1.62202 1.69207 1.70426 1.7049 1.74555 1.76065 1.78968 1.83008 1.83105 1.85561 1.88967 1.90803 1.91217 1.93832 1.9443 1.96547 1.98677 2.0126 2.05466 2.10227 2.16368 2.26118 2.30215 2.31178 2.34912 2.37794 2.40033 2.40516 2.46348 2.55843 2.58968 2.61203 2.64527 2.66367 2.69858 2.72174 2.73378 2.75166 2.75612 2.75682 2.78435 2.81135 2.81694 2.82029 2.85523 2.86039 2.86103 2.89785 2.90393 3.04215 3.10447 3.14901 3.2391 3.28715 3.34529 3.35231 3.37317 3.45843 3.4751 3.52208 3.61896 3.68395 3.77543 3.80496 3.80618 3.96154 4.00656 4.12693 4.12877 4.52631 4.71688 4.81089 4.97815 5.00838 5.10171 5.15838 5.72335 6.25693 23.54125 23.90883 23.92632 24.04134 24.06947 24.16411 35.39521 49.88864 49.99579</array><module cmlx:lineCount="47" cmlx:templateRef="l601.alphabetaeigen"/><module cmlx:lineCount="45" cmlx:templateRef="l601.condensed"><array dataType="xsd:double" size="14" dictRef="x:floatArr">9.250864 -0.195044 -1.241287 -0.910642 0.093959 -1.301311 -0.033835 -0.028417 0.009051 -0.025263 0.062132 -0.101751 0.057578 0.360841</array><array dataType="xsd:double" size="14" dictRef="x:floatArr">-0.195044 8.535714 -0.195044 -0.358097 -0.585702 -0.358097 0.030476 0.021625 0.030476 0.05882 -0.356244 -0.376764 -0.376764 0.05882</array><array dataType="xsd:double" size="14" dictRef="x:floatArr">-1.241287 -0.195044 9.250864 -1.301311 0.093959 -0.910642 0.009051 -0.028417 -0.033835 0.360841 0.062132 0.057578 -0.101751 -0.025263</array><array dataType="xsd:double" size="14" dictRef="x:floatArr">-0.910642 -0.358097 -1.301311 7.557139 0.170528 0.481749 -0.011884 0.002353 0.374276 -0.008118 -0.037015 0.276923 0.031644 1.27E-4</array><array dataType="xsd:double" size="14" dictRef="x:floatArr">0.093959 -0.585702 0.093959 0.170528 5.832922 0.170528 -0.015151 0.382879 -0.015151 -0.004589 -0.007194 -0.029821 -0.029821 -0.004589</array><array dataType="xsd:double" size="14" dictRef="x:floatArr">-1.301311 -0.358097 -0.910642 0.481749 0.170528 7.557139 0.374276 0.002353 -0.011884 1.27E-4 -0.037015 0.031644 0.276923 -0.008118</array><array dataType="xsd:double" size="14" dictRef="x:floatArr">-0.033835 0.030476 0.009051 -0.011884 -0.015151 0.374276 0.520386 -0.007343 -2.04E-4 3.6E-5 -0.001435 -1.0E-5 2.3E-5 -0.006081</array><array dataType="xsd:double" size="14" dictRef="x:floatArr">-0.028417 0.021625 -0.028417 0.002353 0.382879 0.002353 -0.007343 0.52234 -0.007343 -1.69E-4 2.47E-4 0.0 0.0 -1.69E-4</array><array dataType="xsd:double" size="14" dictRef="x:floatArr">0.009051 0.030476 -0.033835 0.374276 -0.015151 -0.011884 -2.04E-4 -0.007343 0.520386 -0.006081 -0.001435 2.3E-5 -1.0E-5 3.6E-5</array><array dataType="xsd:double" size="14" dictRef="x:floatArr">-0.025263 0.05882 0.360841 -0.008118 -0.004589 1.27E-4 3.6E-5 -1.69E-4 -0.006081 0.476443 -0.028499 0.011582 -0.001145 -1.1E-4</array><array dataType="xsd:double" size="14" dictRef="x:floatArr">0.062132 -0.356244 0.062132 -0.037015 -0.007194 -0.037015 -0.001435 2.47E-4 -0.001435 -0.028499 7.114476 0.224388 0.224388 -0.028499</array><array dataType="xsd:double" size="14" dictRef="x:floatArr">-0.101751 -0.376764 0.057578 0.276923 -0.029821 0.031644 -1.0E-5 0.0 2.3E-5 0.011582 0.224388 7.939914 -0.007936 -0.001145</array><array dataType="xsd:double" size="14" dictRef="x:floatArr">0.057578 -0.376764 -0.101751 0.031644 -0.029821 0.276923 2.3E-5 0.0 -1.0E-5 -0.001145 0.224388 -0.007936 7.939914 0.011582</array><array dataType="xsd:double" size="12" dictRef="x:floatArr">0.360841 0.05882 -0.025263 1.27E-4 -0.004589 -0.008118 -0.006081 -1.69E-4 3.6E-5 -1.1E-4 -0.028499 -0.001145</array></module><list cmlx:templateRef="popanal"><scalar dataType="xsd:string" dictRef="x:popanal">14  H    0.011582   0.476443</scalar></list><module cmlx:lineCount="36" cmlx:templateRef="mulliken"><module cmlx:lineCount="17" cmlx:templateRef="l601.mullik"><scalar dataType="xsd:string" dictRef="g:title">Mulliken atomic charges:</scalar><scalar dataType="xsd:integer" dictRef="cc:serial">1</scalar><list cmlx:lineCount="14" cmlx:templateRef="row"><array dataType="xsd:integer" dictRef="cc:serial" size="14">1 2 3 4 5 6 7 8 9 10 11 12 13 14</array><array dataType="xsd:string" dictRef="cc:elementType" size="14">C C C C C C H H H H N O O H</array><array dataType="xsd:double" dictRef="x:charge" size="14">0.003125 0.065827 0.003125 -0.267672 -0.052755 -0.267672 0.141696 0.140059 0.141696 0.166125 -0.190426 -0.024626 -0.024626 0.166125</array></list><scalar dataType="xsd:string" dictRef="x:type">Mulliken</scalar><scalar dataType="xsd:double" dictRef="x:charge.sum">0.0</scalar></module><module cmlx:lineCount="17" cmlx:templateRef="l601.mullik"><scalar dataType="xsd:string" dictRef="g:title">Atomic charges with hydrogens summed into heavy atoms:</scalar><scalar dataType="xsd:integer" dictRef="cc:serial">1</scalar><list cmlx:lineCount="14" cmlx:templateRef="row"><array dataType="xsd:integer" dictRef="cc:serial" size="14">1 2 3 4 5 6 7 8 9 10 11 12 13 14</array><array dataType="xsd:string" dictRef="cc:elementType" size="14">C C C C C C H H H H N O O H</array><array dataType="xsd:double" dictRef="x:charge" size="14">0.16925 0.065827 0.16925 -0.125976 0.087304 -0.125976 0.0 0.0 0.0 0.0 -0.190426 -0.024626 -0.024626 0.0</array></list><scalar dataType="xsd:string" dictRef="x:type">Mulliken</scalar><scalar dataType="xsd:double" dictRef="x:charge.sum">0.0</scalar></module><scalar dataType="xsd:double" dictRef="g:electextent2">1119.5734</scalar> Charge=     0.0000 electrons</module><module cmlx:lineCount="18" cmlx:templateRef="multipole"><array dataType="xsd:double" size="3" dictRef="cc:dipole">-1.0E-4 4.9186 0.0</array><scalar dataType="xsd:double" dictRef="x:dipole">4.9186</scalar><array dataType="xsd:double" size="3" dictRef="cc:quadrupole">-53.4606 -56.1801 -48.1867</array><array dataType="xsd:double" size="3" dictRef="cc:quadrupole">-7.0E-4 0.0 0.0</array><array dataType="xsd:double" size="6" dictRef="cc:quadrupole">-0.8515 -3.571 4.4224 -7.0E-4 0.0 0.0</array><array dataType="xsd:double" size="10" dictRef="cc:octapole">0.0014 32.5503 0.0 -0.0054 -12.9923 0.0 0.0018 8.2012 0.0 0.0</array><array dataType="xsd:double" size="15" dictRef="cc:hexadecapole">-57.3252 -1017.2967 -352.9124 0.0279 0.0 0.0108 0.0 0.0 0.0 -185.3393 -80.1212 -234.7802 0.0 0.0 0.0101</array></module></module> Symmetry A'   KE= 2.750101128966D+02 Symmetry A"   KE= 1.602161917127D+02<module cmlx:lineCount="2" cmlx:templateRef="l601.nonmr"> Leave Link  601 at Sun Aug 20 15:38:18 2006, MaxMem=    6291456 cpu:       1.8</module><module cmlx:lineCount="1" cmlx:templateRef="l701"/> ... and contract with generalized density number  0.<module cmlx:lineCount="1" cmlx:templateRef="l702"/><module cmlx:lineCount="1" cmlx:templateRef="l701"/> Integral derivatives from FoFDir, PRISM(SPDF). Petite list used in FoFDir. MinBra= 0 MaxBra= 2 Meth= 1. IRaf=       0 NMat=   1 IRICut=       1 DoRegI=T DoRafI=F ISym2E= 1 JSym2E=1.<module cmlx:lineCount="2" cmlx:templateRef="l716.dipole"><array dataType="xsd:double" size="3" dictRef="x:d" cmlx:templateRef="dipole">-5.09340908E-5 1.93511154 -4.4408921E-14</array> ***** Axes restored to original set *****</module> ------------------------------------------------------------------- Center     Atomic                   Forces (Hartrees/Bohr) Number     Number              X              Y              Z -------------------------------------------------------------------    1          6          -0.000868336   -0.000008310   -0.001218176    2          6           0.004148868   -0.000005502   -0.002284768    3          6           0.000565266   -0.000008310    0.001385075    4          6           0.001488094    0.000018027    0.000893289    5          6           0.001437717   -0.000020926   -0.000791746    6          6           0.000040622    0.000018027   -0.001735149    7          1           0.000040903   -0.000007903    0.001894544    8          1          -0.001637406    0.000011751    0.000901714    9          1          -0.001579216   -0.000007903   -0.001047400   10          1           0.000404386   -0.000000537   -0.001873446   11          7          -0.003436556    0.000028783    0.001892500   12          8          -0.001373856   -0.000008331    0.000349612   13          8          -0.001029929   -0.000008331    0.000974144   14          1           0.001799440   -0.000000537    0.000659806 ------------------------------------------------------------------- Cartesian Forces:  Max     0.004148868 RMS     0.001318946<module cmlx:lineCount="97" cmlx:templateRef="l103"><list cmlx:templateRef="berny"><scalar dataType="xsd:string" dictRef="g:optimization">Internal  Forces:  Max     0.006667374 RMS     0.001079551</scalar></list> Search for a local minimum. Step number   1 out of a maximum of  73 All quantities printed in internal units (Hartrees-Bohrs-Radians) Second derivative matrix not updated -- first step.     Eigenvalues ---    0.00790   0.00790   0.01785   0.02147   0.02160     Eigenvalues ---    0.02173   0.02178   0.02191   0.02201   0.02202     Eigenvalues ---    0.02203   0.16000   0.16000   0.16000   0.16000     Eigenvalues ---    0.16000   0.22000   0.22000   0.23503   0.25000     Eigenvalues ---    0.25000   0.25000   0.35196   0.35253   0.35253     Eigenvalues ---    0.35543   0.35543   0.35960   0.42384   0.42605     Eigenvalues ---    0.46498   0.46728   0.47063   0.47092   0.93176     Eigenvalues ---    0.931761000.000001000.000001000.000001000.00000     Eigenvalues --- 1000.000001000.000001000.000001000.000001000.00000     Eigenvalues --- 1000.000001000.000001000.000001000.000001000.00000     Eigenvalues --- 1000.000001000.000001000.000001000.000001000.00000     Eigenvalues --- 1000.000001000.000001000.000001000.000001000.00000     Eigenvalues --- 1000.000001000.000001000.00000<module cmlx:lineCount="5" cmlx:templateRef="rfo"><list cmlx:templateRef="rfo"><scalar dataType="xsd:double" dictRef="g:lambda">-2.160722E-4</scalar></list><list cmlx:templateRef="nolinear"><scalar dataType="xsd:string" dictRef="g:linear">Linear search</scalar></list><list cmlx:lineCount="3" cmlx:templateRef="iteration"><array dataType="xsd:integer" dictRef="cc:serial" size="3">1 2 3</array><array dataType="xsd:double" dictRef="g:rmscart" size="3">0.00627503 6.12E-6 0.0</array><array dataType="xsd:double" dictRef="g:rmsint" size="3">4.93E-6 4.1E-7 4.1E-7</array></list></module><module cmlx:lineCount="65" cmlx:templateRef="l103.deltas"><list cmlx:lineCount="63" cmlx:templateRef="delta"><array dataType="xsd:string" dictRef="cc:variable" size="63">R1 R2 R3 R4 R5 R6 R7 R8 R9 R10 R11 R12 R13 R14 A1 A2 A3 A4 A5 A6 A7 A8 A9 A10 A11 A12 A13 A14 A15 A16 A17 A18 A19 A20 A21 D1 D2 D3 D4 D5 D6 D7 D8 D9 D10 D11 D12 D13 D14 D15 D16 D17 D18 D19 D20 D21 D22 D23 D24 D25 D26 D27 D28</array><array dataType="xsd:double" dictRef="g:lastval" size="63">2.62958 2.62919 2.04803 2.62958 2.77445 2.62919 2.04803 2.63726 2.05265 2.63726 2.05358 2.05265 2.31503 2.31503 2.06821 2.08537 2.12961 2.13484 2.07417 2.07417 2.06821 2.08537 2.12961 2.09748 2.08767 2.09804 2.10016 2.09151 2.09151 2.09748 2.08767 2.09804 2.05269 2.05269 2.1778 1.7E-4 -3.14138 -3.14151 1.3E-4 -9.0E-5 -3.1415 3.14159 1.8E-4 -1.7E-4 3.14151 3.14138 -1.3E-4 -3.14154 -9.0E-5 9.0E-5 3.14154 9.0E-5 3.1415 -3.14159 -1.8E-4 -2.0E-5 -3.14139 -3.14143 3.8E-4 2.0E-5 3.14143 3.14139 -3.8E-4</array><array dataType="xsd:double" dictRef="cc:deriv" size="63">7.4E-4 -1.2E-4 -0.00189 7.4E-4 0.00667 -1.2E-4 -0.00189 -4.5E-4 -0.00189 -4.5E-4 -0.00187 -0.00189 3.2E-4 3.2E-4 3.8E-4 1.3E-4 -5.1E-4 -0.00105 5.2E-4 5.2E-4 3.8E-4 1.3E-4 -5.1E-4 1.6E-4 0.0 -1.6E-4 -2.0E-5 1.0E-5 1.0E-5 1.6E-4 0.0 -1.6E-4 0.00107 0.00107 -0.00213 0.0 0.0 0.0 0.0 0.0 0.0 0.0 0.0 0.0 0.0 0.0 0.0 -1.0E-5 1.0E-5 -1.0E-5 1.0E-5 0.0 0.0 0.0 0.0 0.0 0.0 0.0 -1.0E-5 0.0 0.0 0.0 1.0E-5</array><array dataType="xsd:double" dictRef="cc:delta.linear" size="63">0.0 0.0 0.0 0.0 0.0 0.0 0.0 0.0 0.0 0.0 0.0 0.0 0.0 0.0 0.0 0.0 0.0 0.0 0.0 0.0 0.0 0.0 0.0 0.0 0.0 0.0 0.0 0.0 0.0 0.0 0.0 0.0 0.0 0.0 0.0 0.0 0.0 0.0 0.0 0.0 0.0 0.0 0.0 0.0 0.0 0.0 0.0 0.0 0.0 0.0 0.0 0.0 0.0 0.0 0.0 0.0 0.0 0.0 0.0 0.0 0.0 0.0 0.0</array><array dataType="xsd:double" dictRef="cc:delta.quad" size="63">0.00168 -2.6E-4 -0.00532 0.00168 0.01853 -2.6E-4 -0.00532 -0.00108 -0.00537 -0.00108 -0.00531 -0.00537 3.4E-4 3.4E-4 0.00183 0.00107 -0.00291 -0.00391 0.00195 0.00195 0.00183 0.00107 -0.00291 4.1E-4 2.9E-4 -7.0E-4 -5.8E-4 2.9E-4 2.9E-4 4.1E-4 2.9E-4 -7.0E-4 0.00426 0.00426 -0.00852 -1.6E-4 -2.0E-4 -7.0E-5 -1.1E-4 1.1E-4 -6.0E-5 1.0E-5 -1.6E-4 1.6E-4 7.0E-5 2.0E-4 1.1E-4 -0.00104 0.00108 -0.00108 0.00104 -1.1E-4 6.0E-5 -1.0E-5 1.6E-4 7.0E-5 -1.4E-4 -1.0E-4 -3.1E-4 -7.0E-5 1.0E-4 1.4E-4 3.1E-4</array><array dataType="xsd:double" dictRef="cc:delta.total" size="63">0.00168 -2.6E-4 -0.00532 0.00168 0.01853 -2.6E-4 -0.00532 -0.00108 -0.00537 -0.00108 -0.00531 -0.00537 3.4E-4 3.4E-4 0.00183 0.00107 -0.00291 -0.0039 0.00195 0.00195 0.00183 0.00107 -0.00291 4.1E-4 2.9E-4 -7.0E-4 -5.9E-4 2.9E-4 2.9E-4 4.1E-4 2.9E-4 -7.0E-4 0.00426 0.00426 -0.00852 -1.6E-4 -2.0E-4 -7.0E-5 -1.1E-4 1.1E-4 -6.0E-5 1.0E-5 -1.6E-4 1.6E-4 7.0E-5 2.0E-4 1.1E-4 -0.00104 0.00108 -0.00108 0.00104 -1.1E-4 6.0E-5 -1.0E-5 1.6E-4 7.0E-5 -1.4E-4 -1.0E-4 -3.1E-4 -7.0E-5 1.0E-4 1.4E-4 3.1E-4</array><array dataType="xsd:double" dictRef="cc:newval" size="63">2.63126 2.62893 2.04271 2.63126 2.79298 2.62893 2.04271 2.63618 2.04729 2.63618 2.04828 2.04729 2.31537 2.31537 2.07005 2.08644 2.1267 2.13093 2.07613 2.07613 2.07005 2.08644 2.1267 2.09789 2.08796 2.09734 2.09957 2.09181 2.09181 2.09789 2.08796 2.09734 2.05695 2.05695 2.16928 0.0 -3.14158 -3.14157 2.0E-5 2.0E-5 -3.14156 -3.14159 2.0E-5 0.0 3.14157 3.14158 -2.0E-5 3.1406 9.9E-4 -9.9E-4 -3.1406 -2.0E-5 3.14156 3.14159 -2.0E-5 5.0E-5 -3.14154 -3.14153 7.0E-5 -5.0E-5 3.14153 3.14154 -7.0E-5</array></list></module><module cmlx:lineCount="5" cmlx:templateRef="l103.itemconverge"><list cmlx:lineCount="4" cmlx:templateRef="row"><array dataType="xsd:string" dictRef="g:item"/><array dataType="xsd:double" dictRef="g:value" size="4">4.5E-4 3.0E-4 0.0018 0.0012</array><array dataType="xsd:double" dictRef="g:threshold" size="4">0.0 0.0 0.0 0.0</array><array dataType="xsd:string" dictRef="g:converged" size="4">NO NO NO NO</array></list></module><module cmlx:lineCount="1" cmlx:templateRef="preddelta"><list cmlx:templateRef="predicted"><scalar dataType="xsd:double" dictRef="g:predchange">-1.081067E-4</scalar></list></module> GradGradGradGradGradGradGradGradGradGradGradGradGradGradGradGradGradGrad</module><module cmlx:lineCount="20" cmlx:templateRef="l202.orient"><molecule id="a14" cmlx:templateRef="atom"><atomArray><atom id="a1" elementType="C" x3="0.003204" y3="8.8E-5" z3="-0.001154"><scalar dataType="xsd:integer" dictRef="cc:serial">1</scalar><scalar dataType="xsd:integer" dictRef="g:atomicType">0</scalar><scalar dataType="xsd:integer" dictRef="compchem:atomicNumber">6</scalar></atom><atom id="a2" elementType="C" x3="4.86E-4" y3="2.25E-4" z3="1.391245"><scalar dataType="xsd:integer" dictRef="cc:serial">2</scalar><scalar dataType="xsd:integer" dictRef="g:atomicType">0</scalar><scalar dataType="xsd:integer" dictRef="compchem:atomicNumber">6</scalar></atom><atom id="a3" elementType="C" x3="1.178659" y3="8.8E-5" z3="2.133332"><scalar dataType="xsd:integer" dictRef="cc:serial">3</scalar><scalar dataType="xsd:integer" dictRef="g:atomicType">0</scalar><scalar dataType="xsd:integer" dictRef="compchem:atomicNumber">6</scalar></atom><atom id="a4" elementType="C" x3="2.393164" y3="-2.0E-4" z3="1.454852"><scalar dataType="xsd:integer" dictRef="cc:serial">4</scalar><scalar dataType="xsd:integer" dictRef="g:atomicType">0</scalar><scalar dataType="xsd:integer" dictRef="compchem:atomicNumber">6</scalar></atom><atom id="a5" elementType="C" x3="2.417758" y3="-3.73E-4" z3="0.060062"><scalar dataType="xsd:integer" dictRef="cc:serial">5</scalar><scalar dataType="xsd:integer" dictRef="g:atomicType">0</scalar><scalar dataType="xsd:integer" dictRef="compchem:atomicNumber">6</scalar></atom><atom id="a6" elementType="C" x3="1.22587" y3="-2.0E-4" z3="-0.664816"><scalar dataType="xsd:integer" dictRef="cc:serial">6</scalar><scalar dataType="xsd:integer" dictRef="g:atomicType">0</scalar><scalar dataType="xsd:integer" dictRef="compchem:atomicNumber">6</scalar></atom><atom id="a7" elementType="H" x3="1.247395" y3="-2.77E-4" z3="-1.747979"><scalar dataType="xsd:integer" dictRef="cc:serial">7</scalar><scalar dataType="xsd:integer" dictRef="g:atomicType">0</scalar><scalar dataType="xsd:integer" dictRef="compchem:atomicNumber">1</scalar></atom><atom id="a8" elementType="H" x3="3.36721" y3="-6.5E-4" z3="-0.462799"><scalar dataType="xsd:integer" dictRef="cc:serial">8</scalar><scalar dataType="xsd:integer" dictRef="g:atomicType">0</scalar><scalar dataType="xsd:integer" dictRef="compchem:atomicNumber">1</scalar></atom><atom id="a9" elementType="H" x3="3.320055" y3="-2.77E-4" z3="2.015726"><scalar dataType="xsd:integer" dictRef="cc:serial">9</scalar><scalar dataType="xsd:integer" dictRef="g:atomicType">0</scalar><scalar dataType="xsd:integer" dictRef="compchem:atomicNumber">1</scalar></atom><atom id="a10" elementType="H" x3="1.12847" y3="2.2E-4" z3="3.213122"><scalar dataType="xsd:integer" dictRef="cc:serial">10</scalar><scalar dataType="xsd:integer" dictRef="g:atomicType">0</scalar><scalar dataType="xsd:integer" dictRef="compchem:atomicNumber">1</scalar></atom><atom id="a11" elementType="N" x3="-1.294162" y3="5.2E-4" z3="2.104204"><scalar dataType="xsd:integer" dictRef="cc:serial">11</scalar><scalar dataType="xsd:integer" dictRef="g:atomicType">0</scalar><scalar dataType="xsd:integer" dictRef="compchem:atomicNumber">7</scalar></atom><atom id="a12" elementType="O" x3="-1.273061" y3="-4.36E-4" z3="3.329264"><scalar dataType="xsd:integer" dictRef="cc:serial">12</scalar><scalar dataType="xsd:integer" dictRef="g:atomicType">0</scalar><scalar dataType="xsd:integer" dictRef="compchem:atomicNumber">8</scalar></atom><atom id="a13" elementType="O" x3="-2.318183" y3="-4.36E-4" z3="1.431448"><scalar dataType="xsd:integer" dictRef="cc:serial">13</scalar><scalar dataType="xsd:integer" dictRef="g:atomicType">0</scalar><scalar dataType="xsd:integer" dictRef="compchem:atomicNumber">8</scalar></atom><atom id="a14" elementType="H" x3="-0.93616" y3="2.2E-4" z3="-0.536001"><scalar dataType="xsd:integer" dictRef="cc:serial">14</scalar><scalar dataType="xsd:integer" dictRef="g:atomicType">0</scalar><scalar dataType="xsd:integer" dictRef="compchem:atomicNumber">1</scalar></atom></atomArray><formula formalCharge="0" concise="C 6 H 5 N 1 O 2"><atomArray elementType="C H N O" count="6.0 5.0 1.0 2.0"/></formula><bondArray><bond atomRefs2="a1 a2" id="a1_a2" order="2"/><bond atomRefs2="a1 a6" id="a1_a6" order="S"/><bond atomRefs2="a1 a14" id="a1_a14" order="S"/><bond atomRefs2="a2 a3" id="a2_a3" order="S"/><bond atomRefs2="a2 a11" id="a2_a11" order="S"/><bond atomRefs2="a3 a4" id="a3_a4" order="2"/><bond atomRefs2="a3 a10" id="a3_a10" order="S"/><bond atomRefs2="a4 a5" id="a4_a5" order="S"/><bond atomRefs2="a4 a9" id="a4_a9" order="S"/><bond atomRefs2="a5 a6" id="a5_a6" order="2"/><bond atomRefs2="a5 a8" id="a5_a8" order="S"/><bond atomRefs2="a6 a7" id="a6_a7" order="S"/><bond atomRefs2="a11 a12" id="a11_a12" order="S"/><bond atomRefs2="a11 a13" id="a11_a13" order="S"/></bondArray><property dictRef="cml:molmass"><scalar dataType="xsd:double" units="unit:dalton" xmlns:unit="http://www.xml-cml.org/unit/si/">123.1094</scalar></property></molecule></module><module cmlx:lineCount="31" cmlx:templateRef="l202.distmat"><array dataType="xsd:double" size="95" dictRef="cc:distance">0.0 1.392402 0.0 2.436744 1.392402 0.0 2.798546 2.393523 1.391171 0.0 2.41533 2.759575 2.41533 1.395007 0.0 1.391171 2.393523 2.798546 2.419827 1.395007 0.0 2.144623 3.377797 3.88192 3.401604 2.153779 1.083378 0.0 3.395534 3.843477 3.395534 2.150848 1.083901 2.150848 2.478973 0.0 3.88192 3.377797 2.144623 1.083378 2.153779 3.401604 4.296673 2.478973 0.0 3.405554 2.142798 1.080956 2.165864 3.406473 3.879161 4.962527 4.303993 2.497359 0.0 2.472993 1.47798 2.472993 3.744066 4.237555 3.744066 4.615065 5.321456 4.615065 2.664366 3.566587 2.319017 2.727854 4.1176 4.9305 4.711404 5.66843 5.99265 4.777248 2.404338 2.727854 2.319017 3.566587 4.711404 4.9305 4.1176 4.777248 5.99265 5.66843 3.87992 1.080956 2.142798 3.405554 3.879161 3.406473 2.165864 2.497359 4.303993 4.962527 4.280026</array></module><module cmlx:lineCount="6" cmlx:templateRef="l202.stoich"><scalar dataType="xsd:string" dictRef="cc:formula" cmlx:templateRef="stoich">C6H5NO2</scalar><scalar dataType="xsd:string" dictRef="cc:frameworkgroup" cmlx:templateRef="framework">CS[SG(C2HN),X(C4H4O2)]</scalar><scalar dataType="xsd:integer" dictRef="cc:degfreedom" cmlx:templateRef="degfreedom">20</scalar><scalar dataType="xsd:string" dictRef="cc:pointgroup">CS</scalar><scalar dataType="xsd:integer" dictRef="cc:operatorcount">2</scalar><scalar dataType="xsd:string" dictRef="cc:largestabelian">CS</scalar><scalar dataType="xsd:integer" dictRef="cc:operatorcount">2</scalar><scalar dataType="xsd:string" dictRef="cc:largestconciseabelian">CS</scalar><scalar dataType="xsd:integer" dictRef="cc:operatorcount">2</scalar></module><module cmlx:lineCount="20" cmlx:templateRef="l202.orient"><molecule id="a14" cmlx:templateRef="atom"><atomArray><atom id="a1" elementType="C" x3="-2.76E-4" y3="-0.43108" z3="1.218372"><scalar dataType="xsd:integer" dictRef="cc:serial">1</scalar><scalar dataType="xsd:integer" dictRef="g:atomicType">0</scalar><scalar dataType="xsd:integer" dictRef="compchem:atomicNumber">6</scalar></atom><atom id="a2" elementType="C" x3="-2.74E-4" y3="0.242977" z3="0.0"><scalar dataType="xsd:integer" dictRef="cc:serial">2</scalar><scalar dataType="xsd:integer" dictRef="g:atomicType">0</scalar><scalar dataType="xsd:integer" dictRef="compchem:atomicNumber">6</scalar></atom><atom id="a3" elementType="C" x3="-2.76E-4" y3="-0.43108" z3="-1.218372"><scalar dataType="xsd:integer" dictRef="cc:serial">3</scalar><scalar dataType="xsd:integer" dictRef="g:atomicType">0</scalar><scalar dataType="xsd:integer" dictRef="compchem:atomicNumber">6</scalar></atom><atom id="a4" elementType="C" x3="-2.76E-4" y3="-1.822225" z3="-1.209914"><scalar dataType="xsd:integer" dictRef="cc:serial">4</scalar><scalar dataType="xsd:integer" dictRef="g:atomicType">0</scalar><scalar dataType="xsd:integer" dictRef="compchem:atomicNumber">6</scalar></atom><atom id="a5" elementType="C" x3="-2.47E-4" y3="-2.516598" z3="0.0"><scalar dataType="xsd:integer" dictRef="cc:serial">5</scalar><scalar dataType="xsd:integer" dictRef="g:atomicType">0</scalar><scalar dataType="xsd:integer" dictRef="compchem:atomicNumber">6</scalar></atom><atom id="a6" elementType="C" x3="-2.76E-4" y3="-1.822225" z3="1.209914"><scalar dataType="xsd:integer" dictRef="cc:serial">6</scalar><scalar dataType="xsd:integer" dictRef="g:atomicType">0</scalar><scalar dataType="xsd:integer" dictRef="compchem:atomicNumber">6</scalar></atom><atom id="a7" elementType="H" x3="-3.11E-4" y3="-2.363584" z3="2.148336"><scalar dataType="xsd:integer" dictRef="cc:serial">7</scalar><scalar dataType="xsd:integer" dictRef="g:atomicType">0</scalar><scalar dataType="xsd:integer" dictRef="compchem:atomicNumber">1</scalar></atom><atom id="a8" elementType="H" x3="-1.94E-4" y3="-3.600499" z3="0.0"><scalar dataType="xsd:integer" dictRef="cc:serial">8</scalar><scalar dataType="xsd:integer" dictRef="g:atomicType">0</scalar><scalar dataType="xsd:integer" dictRef="compchem:atomicNumber">1</scalar></atom><atom id="a9" elementType="H" x3="-3.11E-4" y3="-2.363584" z3="-2.148336"><scalar dataType="xsd:integer" dictRef="cc:serial">9</scalar><scalar dataType="xsd:integer" dictRef="g:atomicType">0</scalar><scalar dataType="xsd:integer" dictRef="compchem:atomicNumber">1</scalar></atom><atom id="a10" elementType="H" x3="-2.92E-4" y3="0.133761" z3="-2.140013"><scalar dataType="xsd:integer" dictRef="cc:serial">10</scalar><scalar dataType="xsd:integer" dictRef="g:atomicType">0</scalar><scalar dataType="xsd:integer" dictRef="compchem:atomicNumber">1</scalar></atom><atom id="a11" elementType="N" x3="-2.63E-4" y3="1.720957" z3="0.0"><scalar dataType="xsd:integer" dictRef="cc:serial">11</scalar><scalar dataType="xsd:integer" dictRef="g:atomicType">0</scalar><scalar dataType="xsd:integer" dictRef="compchem:atomicNumber">7</scalar></atom><atom id="a12" elementType="O" x3="8.12E-4" y3="2.293427" z3="-1.08328"><scalar dataType="xsd:integer" dictRef="cc:serial">12</scalar><scalar dataType="xsd:integer" dictRef="g:atomicType">0</scalar><scalar dataType="xsd:integer" dictRef="compchem:atomicNumber">8</scalar></atom><atom id="a13" elementType="O" x3="8.12E-4" y3="2.293427" z3="1.08328"><scalar dataType="xsd:integer" dictRef="cc:serial">13</scalar><scalar dataType="xsd:integer" dictRef="g:atomicType">0</scalar><scalar dataType="xsd:integer" dictRef="compchem:atomicNumber">8</scalar></atom><atom id="a14" elementType="H" x3="-2.92E-4" y3="0.133761" z3="2.140013"><scalar dataType="xsd:integer" dictRef="cc:serial">14</scalar><scalar dataType="xsd:integer" dictRef="g:atomicType">0</scalar><scalar dataType="xsd:integer" dictRef="compchem:atomicNumber">1</scalar></atom></atomArray><formula formalCharge="0" concise="C 6 H 5 N 1 O 2"><atomArray elementType="C H N O" count="6.0 5.0 1.0 2.0"/></formula><bondArray><bond atomRefs2="a1 a2" id="a1_a2" order="2"/><bond atomRefs2="a1 a6" id="a1_a6" order="S"/><bond atomRefs2="a1 a14" id="a1_a14" order="S"/><bond atomRefs2="a2 a3" id="a2_a3" order="S"/><bond atomRefs2="a2 a11" id="a2_a11" order="S"/><bond atomRefs2="a3 a4" id="a3_a4" order="2"/><bond atomRefs2="a3 a10" id="a3_a10" order="S"/><bond atomRefs2="a4 a5" id="a4_a5" order="S"/><bond atomRefs2="a4 a9" id="a4_a9" order="S"/><bond atomRefs2="a5 a6" id="a5_a6" order="2"/><bond atomRefs2="a5 a8" id="a5_a8" order="S"/><bond atomRefs2="a6 a7" id="a6_a7" order="S"/><bond atomRefs2="a11 a12" id="a11_a12" order="S"/><bond atomRefs2="a11 a13" id="a11_a13" order="S"/></bondArray><property dictRef="cml:molmass"><scalar dataType="xsd:double" units="unit:dalton" xmlns:unit="http://www.xml-cml.org/unit/si/">123.1094</scalar></property></molecule></module><module cmlx:lineCount="1" cmlx:templateRef="l202.rotconst"><array dataType="xsd:double" size="3" dictRef="cc:rotconst" cmlx:templateRef="rotconst">3.9845833 1.281267 0.9695139</array></module><scalar dataType="xsd:integer" dictRef="g:buffer" cmlx:templateRef="buffer">131072</scalar><scalar dataType="xsd:string" dictRef="g:raffenetti" cmlx:templateRef="raff">Raffenetti</scalar><scalar dataType="xsd:string" dictRef="g:twoe" cmlx:templateRef="twoe">Two-electron</scalar><module cmlx:lineCount="13" cmlx:templateRef="l301.basis"><scalar dataType="xsd:string" dictRef="cc:basis">6-311+G(d,p)</scalar><scalar dataType="xsd:string" dictRef="cc:diffuse">(5D, 7F)</scalar><list cmlx:lineCount="2" cmlx:templateRef="symmadapt"><array dataType="xsd:integer" dictRef="cc:adapted" size="2">131 97</array><array dataType="xsd:string" dictRef="cc:symm" size="2">A' A"</array></list><scalar dataType="xsd:integer" dictRef="cc:basiscount">228</scalar><scalar dataType="xsd:integer" dictRef="g:primbasis">364</scalar><scalar dataType="xsd:integer" dictRef="cc:cartesianbasis">237</scalar><scalar dataType="xsd:integer" dictRef="cc:alphae">32</scalar><scalar dataType="xsd:integer" dictRef="cc:betae">32</scalar> IExCor= 402 DFT=T Ex=B+HF Corr=LYP ExCW=0 ScaHFX=  0.200000 ScaDFX=  0.800000  0.720000  1.000000  0.810000 IRadAn=      0 IRanWt=     -1 IRanGd=            0 ICorTp=0 NAtoms=   14 NActive=   14 NUniq=    9 SFac= 3.02D+00 NAtFMM=   60 Big=F</module> NPDir=0 NMtPBC=     1 NCelOv=     1 NCel=       1 NClECP=     1 NCelD=      1         NCelK=      1 NCelE2=     1 NClLst=     1 CellRange=     0.0.<module cmlx:lineCount="1" cmlx:templateRef="l302.basis"><list cmlx:templateRef="onee"><scalar dataType="xsd:string" dictRef="g:onee">One-electron integrals</scalar></list></module> One-electron integral symmetry used in STVInt NBasis=   228 RedAO= T  NBF=   131    97 NBsUse=   228 1.00D-06 NBFU=   131    97 Precomputing XC quadrature grid using IXCGrd= 2 IRadAn=           0 IRanWt=          -1 IRanGd=           0. NRdTot=     898 NPtTot=      113984 NUsed=      120327 NTot=      120359 NSgBfM=   237   237   237   237.<module cmlx:lineCount="1" cmlx:templateRef="l303.basis"><list cmlx:templateRef="l303"><scalar dataType="xsd:integer" dictRef="g:dipdrv">1</scalar></list></module> Initial guess read from the read-write file: Guess basis will be translated and rotated to current coordinates. Initial guess orbital symmetries:       Occupied  (A") (A') (A') (A') (A") (A') (A') (A") (A') (A')                 (A") (A') (A') (A") (A') (A") (A') (A') (A') (A")                 (A') (A") (A') (A") (A') (A') (A") (A") (A') (A")                 (A') (A")       Virtual   (A') (A") (A') (A') (A") (A') (A') (A") (A') (A')                 (A") (A') (A') (A") (A') (A') (A") (A') (A") (A')                 (A') (A") (A') (A") (A') (A') (A") (A') (A') (A")                 (A') (A') (A") (A') (A') (A") (A") (A") (A') (A')                 (A") (A") (A') (A') (A') (A") (A') (A") (A') (A")                 (A') (A') (A") (A') (A") (A') (A') (A") (A") (A')                 (A") (A") (A') (A') (A") (A') (A') (A") (A') (A')                 (A") (A') (A') (A') (A") (A') (A") (A') (A") (A')                 (A") (A') (A') (A") (A') (A") (A") (A') (A") (A')                 (A') (A") (A") (A') (A") (A') (A') (A") (A') (A')                 (A") (A") (A') (A') (A") (A') (A') (A') (A") (A')                 (A") (A") (A') (A") (A') (A") (A") (A') (A') (A')                 (A") (A") (A') (A") (A') (A') (A") (A") (A') (A")                 (A') (A') (A") (A') (A") (A') (A") (A') (A") (A')                 (A') (A') (A') (A") (A') (A') (A") (A") (A') (A")                 (A') (A') (A") (A') (A") (A") (A') (A") (A') (A')                 (A") (A') (A") (A') (A") (A") (A") (A') (A') (A')                 (A") (A') (A') (A') (A") (A') (A') (A") (A") (A')                 (A") (A") (A') (A") (A') (A') (A") (A') (A') (A")                 (A') (A") (A') (A') (A') (A") The electronic state of the initial guess is 1-A'. Generating alternative initial guess. Harris functional with IExCor=  402 diagonalized for initial guess. ExpMin= 4.38D-02 ExpMax= 8.59D+03 ExpMxC= 1.30D+03 IAcc=2 IRadAn=         4 AccDes= 0.00D+00 HarFok:  IExCor= 402 AccDes= 0.00D+00 IRadAn=         4 IDoV=1 ScaDFX=  1.000000  1.000000  1.000000  1.000000 Harris En= -437.023083806909    <module cmlx:lineCount="224" cmlx:templateRef="l502"><list cmlx:templateRef="l502.type"><scalar dataType="xsd:string" dictRef="g:l502.type">Closed</scalar></list> Requested convergence on RMS density matrix=1.00D-08 within 128 cycles. Requested convergence on MAX density matrix=1.00D-06. Requested convergence on             energy=1.00D-06. No special actions if energy rises. Using DIIS extrapolation, IDIIS=  1040. Integral symmetry usage will be decided dynamically.       120326 words used for storage of precomputed grid. IEnd=    337146 IEndB=    337146 NGot=   6291456 MDV=   6027357 LenX=   6027357 Fock matrices will be formed incrementally for  20 cycles.<module cmlx:lineCount="207" cmlx:templateRef="l502.cycle"><list cmlx:templateRef="cycle"><list><scalar dataType="xsd:integer" dictRef="cc:cycle">1</scalar><scalar dataType="xsd:integer" dictRef="g:pass">1</scalar><scalar dataType="xsd:integer" dictRef="g:idiag">1</scalar></list></list><module cmlx:lineCount="1" cmlx:templateRef="l502.e"><list cmlx:templateRef="l502.e"><scalar dataType="xsd:double" dictRef="g:l502.e">-429.226206503351</scalar></list></module> Recover alternate guess density for next cycle. Cycle   2  Pass 1  IDiag  1:<module cmlx:lineCount="1" cmlx:templateRef="l502.ediff"><list cmlx:templateRef="l502.ediff"><list><scalar dataType="xsd:double" dictRef="g:l502.e">-436.544956988159</scalar><scalar dataType="xsd:double" dictRef="g:l502.deltae">-7.318750484809</scalar></list></list></module> Cycle   3  Pass 1  IDiag  1:<module cmlx:lineCount="1" cmlx:templateRef="l502.ediff"><list cmlx:templateRef="l502.ediff"><list><scalar dataType="xsd:double" dictRef="g:l502.e">-436.141319121522</scalar><scalar dataType="xsd:double" dictRef="g:l502.deltae">0.403637866638</scalar></list></list></module> Cycle   4  Pass 1  IDiag  1:<module cmlx:lineCount="1" cmlx:templateRef="l502.ediff"><list cmlx:templateRef="l502.ediff"><list><scalar dataType="xsd:double" dictRef="g:l502.e">-436.850447533867</scalar><scalar dataType="xsd:double" dictRef="g:l502.deltae">-0.709128412346</scalar></list></list></module> Cycle   5  Pass 1  IDiag  1:<module cmlx:lineCount="1" cmlx:templateRef="l502.ediff"><list cmlx:templateRef="l502.ediff"><list><scalar dataType="xsd:double" dictRef="g:l502.e">-436.866319917956</scalar><scalar dataType="xsd:double" dictRef="g:l502.deltae">-0.015872384088</scalar></list></list></module> Cycle   6  Pass 1  IDiag  1:<module cmlx:lineCount="1" cmlx:templateRef="l502.ediff"><list cmlx:templateRef="l502.ediff"><list><scalar dataType="xsd:double" dictRef="g:l502.e">-436.873905212381</scalar><scalar dataType="xsd:double" dictRef="g:l502.deltae">-0.007585294426</scalar></list></list></module> Cycle   7  Pass 1  IDiag  1:                    CP:  5.55D-01<module cmlx:lineCount="1" cmlx:templateRef="l502.ediff"><list cmlx:templateRef="l502.ediff"><list><scalar dataType="xsd:double" dictRef="g:l502.e">-436.874586279412</scalar><scalar dataType="xsd:double" dictRef="g:l502.deltae">-6.8106703E-4</scalar></list></list></module> Cycle   8  Pass 1  IDiag  1:                    CP:  6.77D-01  7.66D-01<module cmlx:lineCount="1" cmlx:templateRef="l502.ediff"><list cmlx:templateRef="l502.ediff"><list><scalar dataType="xsd:double" dictRef="g:l502.e">-436.874602519434</scalar><scalar dataType="xsd:double" dictRef="g:l502.deltae">-1.6240022E-5</scalar></list></list></module> Cycle   9  Pass 1  IDiag  1:                    CP:  6.52D-01  8.11D-01  6.86D-01<module cmlx:lineCount="1" cmlx:templateRef="l502.ediff"><list cmlx:templateRef="l502.ediff"><list><scalar dataType="xsd:double" dictRef="g:l502.e">-436.874603448074</scalar><scalar dataType="xsd:double" dictRef="g:l502.deltae">-9.2864E-7</scalar></list></list></module> Cycle  10  Pass 1  IDiag  1:                    CP:  6.53D-01  8.17D-01  6.85D-01  8.29D-01<module cmlx:lineCount="1" cmlx:templateRef="l502.ediff"><list cmlx:templateRef="l502.ediff"><list><scalar dataType="xsd:double" dictRef="g:l502.e">-436.874603535737</scalar><scalar dataType="xsd:double" dictRef="g:l502.deltae">-8.7663E-8</scalar></list></list></module> Cycle  11  Pass 1  IDiag  1:                    CP:  6.55D-01  8.16D-01  7.04D-01  8.39D-01  8.75D-01<module cmlx:lineCount="1" cmlx:templateRef="l502.ediff"><list cmlx:templateRef="l502.ediff"><list><scalar dataType="xsd:double" dictRef="g:l502.e">-436.874603536855</scalar><scalar dataType="xsd:double" dictRef="g:l502.deltae">-1.118E-9</scalar></list></list></module> Cycle  12  Pass 1  IDiag  1:                    CP:  6.56D-01  8.15D-01  7.09D-01  8.34D-01  8.68D-01                    CP:  1.03D+00<module cmlx:lineCount="1" cmlx:templateRef="l502.ediff"><list cmlx:templateRef="l502.ediff"><list><scalar dataType="xsd:double" dictRef="g:l502.e">-436.874603537399</scalar><scalar dataType="xsd:double" dictRef="g:l502.deltae">-5.43E-10</scalar></list></list></module> Cycle  13  Pass 1  IDiag  1:                    CP:  6.56D-01  8.16D-01  7.08D-01  8.34D-01  8.84D-01                    CP:  1.06D+00  1.02D+00<module cmlx:lineCount="1" cmlx:templateRef="l502.ediff"><list cmlx:templateRef="l502.ediff"><list><scalar dataType="xsd:double" dictRef="g:l502.e">-436.874603537335</scalar><scalar dataType="xsd:double" dictRef="g:l502.deltae">6.4E-11</scalar></list></list></module> Cycle  14  Pass 1  IDiag  1:                    CP:  6.56D-01  8.16D-01  7.09D-01  8.34D-01  8.82D-01                    CP:  1.07D+00  1.04D+00  9.13D-01<module cmlx:lineCount="1" cmlx:templateRef="l502.ediff"><list cmlx:templateRef="l502.ediff"><list><scalar dataType="xsd:double" dictRef="g:l502.e">-436.874603537342</scalar><scalar dataType="xsd:double" dictRef="g:l502.deltae">-8.0E-12</scalar></list></list></module> RMSDP=1.68D-09 MaxDP=9.91D-08 DE=-7.50D-12 OVMax= 7.55D-08</module><module cmlx:lineCount="4" cmlx:templateRef="l502.footer"><list cmlx:templateRef="l502"><scalar dataType="xsd:string" dictRef="g:l502">SCF Done:  E(RB+HF-LYP) =  -436.874603537     A.U. after   14 cycles</scalar><scalar dataType="xsd:string" dictRef="g:l502">Convg  =    0.1677D-08             -V/T =  2.0038</scalar><scalar dataType="xsd:string" dictRef="g:l502">S**2   =   0.0000</scalar><scalar dataType="xsd:string" dictRef="g:l502">KE= 4.352224000739D+02 PE=-1.844568935345D+03 EE= 5.602892894488D+02</scalar></list></module></module><module cmlx:lineCount="1" cmlx:templateRef="l701"/> ... and contract with generalized density number  0.<module cmlx:lineCount="1" cmlx:templateRef="l702"/><module cmlx:lineCount="1" cmlx:templateRef="l701"/> Integral derivatives from FoFDir, PRISM(SPDF). Petite list used in FoFDir. MinBra= 0 MaxBra= 2 Meth= 1. IRaf=       0 NMat=   1 IRICut=       1 DoRegI=T DoRafI=F ISym2E= 1 JSym2E=1.<module cmlx:lineCount="2" cmlx:templateRef="l716.dipole"><array dataType="xsd:double" size="3" dictRef="x:d" cmlx:templateRef="dipole">-9.9341886E-4 -1.94745873 3.55271368E-14</array> ***** Axes restored to original set *****</module> ------------------------------------------------------------------- Center     Atomic                   Forces (Hartrees/Bohr) Number     Number              X              Y              Z -------------------------------------------------------------------    1          6          -0.000645731    0.000014393    0.000703382    2          6           0.002006341    0.000061461   -0.001104885    3          6          -0.000939641    0.000014393    0.000169676    4          6          -0.000007444   -0.000005168   -0.000004106    5          6           0.000064821    0.000001603   -0.000035697    6          6          -0.000000509   -0.000005168    0.000008486    7          1          -0.000063879   -0.000002797   -0.000018366    8          1           0.000012466    0.000002900   -0.000006865    9          1          -0.000018629   -0.000002797    0.000063803   10          1           0.000063661    0.000000686    0.000209005   11          7          -0.002919023   -0.000289543    0.001607496   12          8           0.001441487    0.000104675   -0.000447342   13          8           0.001148677    0.000104675   -0.000979052   14          1          -0.000142597    0.000000686   -0.000165535 ------------------------------------------------------------------- Cartesian Forces:  Max     0.002919023 RMS     0.000739216<module cmlx:lineCount="98" cmlx:templateRef="l103"><list cmlx:templateRef="berny"><scalar dataType="xsd:string" dictRef="g:optimization">Internal  Forces:  Max     0.002236646 RMS     0.000411357</scalar></list> Search for a local minimum. Step number   2 out of a maximum of  73 All quantities printed in internal units (Hartrees-Bohrs-Radians) Update second derivatives using D2CorX and points  1  2<module cmlx:lineCount="1" cmlx:templateRef="l103.trust"> Trust test= 8.35D-01 RLast= 2.57D-02 DXMaxT set to 3.00D-01</module>     Eigenvalues ---    0.00790   0.00792   0.01783   0.02147   0.02160     Eigenvalues ---    0.02173   0.02178   0.02191   0.02201   0.02202     Eigenvalues ---    0.02203   0.15826   0.16000   0.16000   0.16000     Eigenvalues ---    0.16010   0.21992   0.22000   0.23700   0.25000     Eigenvalues ---    0.25000   0.25000   0.35105   0.35210   0.35253     Eigenvalues ---    0.35342   0.35543   0.37707   0.42596   0.45118     Eigenvalues ---    0.46498   0.47063   0.47089   0.48681   0.93176     Eigenvalues ---    0.936541000.000001000.000001000.000001000.00000     Eigenvalues --- 1000.000001000.000001000.000001000.000001000.00000     Eigenvalues --- 1000.000001000.000001000.000001000.000001000.00000     Eigenvalues --- 1000.000001000.000001000.000001000.000001000.00000     Eigenvalues --- 1000.000001000.000001000.000001000.000001000.00000     Eigenvalues --- 1000.000001000.000001000.00000<module cmlx:lineCount="5" cmlx:templateRef="rfo"> Quartic linear search produced a step of -0.13825. Iteration  1 RMS(Cart)=  0.00317680 RMS(Int)=  0.00003080 Iteration  2 RMS(Cart)=  0.00002675 RMS(Int)=  0.00001811 Iteration  3 RMS(Cart)=  0.00000000 RMS(Int)=  0.00001811</module><module cmlx:lineCount="65" cmlx:templateRef="l103.deltas"><list cmlx:lineCount="63" cmlx:templateRef="delta"><array dataType="xsd:string" dictRef="cc:variable" size="63">R1 R2 R3 R4 R5 R6 R7 R8 R9 R10 R11 R12 R13 R14 A1 A2 A3 A4 A5 A6 A7 A8 A9 A10 A11 A12 A13 A14 A15 A16 A17 A18 A19 A20 A21 D1 D2 D3 D4 D5 D6 D7 D8 D9 D10 D11 D12 D13 D14 D15 D16 D17 D18 D19 D20 D21 D22 D23 D24 D25 D26 D27 D28</array><array dataType="xsd:double" dictRef="g:lastval" size="63">2.63126 2.62893 2.04271 2.63126 2.79298 2.62893 2.04271 2.63618 2.04729 2.63618 2.04828 2.04729 2.31537 2.31537 2.07005 2.08644 2.1267 2.13093 2.07613 2.07613 2.07005 2.08644 2.1267 2.09789 2.08796 2.09734 2.09957 2.09181 2.09181 2.09789 2.08796 2.09734 2.05695 2.05695 2.16928 0.0 -3.14158 -3.14157 2.0E-5 2.0E-5 -3.14156 -3.14159 2.0E-5 0.0 3.14157 3.14158 -2.0E-5 3.1406 9.9E-4 -9.9E-4 -3.1406 -2.0E-5 3.14156 3.14159 -2.0E-5 5.0E-5 -3.14154 -3.14153 7.0E-5 -5.0E-5 3.14153 3.14154 -7.0E-5</array><array dataType="xsd:double" dictRef="cc:deriv" size="63">-6.8E-4 -1.0E-5 2.1E-4 -6.8E-4 3.8E-4 -1.0E-5 2.1E-4 1.9E-4 2.0E-5 1.9E-4 1.0E-5 2.0E-5 -4.2E-4 -4.2E-4 -3.5E-4 2.5E-4 1.0E-4 8.6E-4 -4.3E-4 -4.3E-4 -3.5E-4 2.5E-4 1.0E-4 -7.0E-5 -3.0E-5 1.0E-4 -1.0E-5 1.0E-5 1.0E-5 -7.0E-5 -3.0E-5 1.0E-4 -0.00112 -0.00112 0.00224 1.0E-5 0.0 0.0 0.0 0.0 0.0 0.0 0.0 -1.0E-5 0.0 0.0 0.0 1.1E-4 -1.0E-4 1.0E-4 -1.1E-4 0.0 0.0 0.0 0.0 0.0 0.0 0.0 0.0 0.0 0.0 0.0 0.0</array><array dataType="xsd:double" dictRef="cc:delta.linear" size="63">-2.3E-4 4.0E-5 7.4E-4 -2.3E-4 -0.00256 4.0E-5 7.4E-4 1.5E-4 7.4E-4 1.5E-4 7.3E-4 7.4E-4 -5.0E-5 -5.0E-5 -2.5E-4 -1.5E-4 4.0E-4 5.4E-4 -2.7E-4 -2.7E-4 -2.5E-4 -1.5E-4 4.0E-4 -6.0E-5 -4.0E-5 1.0E-4 8.0E-5 -4.0E-5 -4.0E-5 -6.0E-5 -4.0E-5 1.0E-4 -5.9E-4 -5.9E-4 0.00118 2.0E-5 3.0E-5 1.0E-5 1.0E-5 -2.0E-5 1.0E-5 0.0 2.0E-5 -2.0E-5 -1.0E-5 -3.0E-5 -1.0E-5 1.4E-4 -1.5E-4 1.5E-4 -1.4E-4 2.0E-5 -1.0E-5 0.0 -2.0E-5 -1.0E-5 2.0E-5 1.0E-5 4.0E-5 1.0E-5 -1.0E-5 -2.0E-5 -4.0E-5</array><array dataType="xsd:double" dictRef="cc:delta.quad" size="63">-8.4E-4 -8.0E-5 -9.5E-4 -8.4E-4 0.00597 -8.0E-5 -9.5E-4 1.2E-4 -0.00143 1.2E-4 -0.00142 -0.00143 -3.0E-4 -3.0E-4 -9.4E-4 0.00141 -4.7E-4 0.00173 -8.7E-4 -8.7E-4 -9.4E-4 0.00141 -4.7E-4 2.0E-5 -2.3E-4 2.1E-4 1.1E-4 -5.0E-5 -5.0E-5 2.0E-5 -2.3E-4 2.1E-4 -0.00268 -0.00268 0.0054 1.7E-4 4.0E-5 7.0E-5 -5.0E-5 -9.0E-5 -1.3E-4 1.0E-5 -3.0E-5 -1.7E-4 -7.0E-5 -4.0E-5 5.0E-5 0.01135 -0.01123 0.01123 -0.01135 9.0E-5 1.3E-4 -1.0E-5 3.0E-5 -3.0E-5 -9.0E-5 -6.0E-5 -1.2E-4 3.0E-5 6.0E-5 9.0E-5 1.2E-4</array><array dataType="xsd:double" dictRef="cc:delta.total" size="63">-0.00107 -5.0E-5 -2.2E-4 -0.00107 0.0034 -5.0E-5 -2.2E-4 2.7E-4 -6.8E-4 2.7E-4 -6.8E-4 -6.8E-4 -3.4E-4 -3.4E-4 -0.00119 0.00126 -7.0E-5 0.00227 -0.00114 -0.00114 -0.00119 0.00126 -7.0E-5 -4.0E-5 -2.7E-4 3.1E-4 1.9E-4 -9.0E-5 -9.0E-5 -4.0E-5 -2.7E-4 3.1E-4 -0.00335 -0.00335 0.0065 1.9E-4 7.0E-5 8.0E-5 -4.0E-5 -1.1E-4 -1.2E-4 0.0 -1.0E-5 -1.9E-4 -8.0E-5 -7.0E-5 4.0E-5 0.0115 -0.01138 0.01138 -0.0115 1.1E-4 1.2E-4 0.0 1.0E-5 -4.0E-5 -7.0E-5 -5.0E-5 -8.0E-5 4.0E-5 5.0E-5 7.0E-5 8.0E-5</array><array dataType="xsd:double" dictRef="cc:newval" size="63">2.63018 2.62889 2.04249 2.63018 2.79638 2.62889 2.04249 2.63645 2.0466 2.63645 2.04759 2.0466 2.31503 2.31503 2.06885 2.0877 2.12663 2.13321 2.07499 2.07499 2.06885 2.0877 2.12663 2.09785 2.08769 2.09764 2.09976 2.09171 2.09171 2.09785 2.08769 2.09764 2.0536 2.0536 2.17578 1.9E-4 -3.14151 -3.1415 -2.0E-5 -9.0E-5 3.1415 -3.14158 1.0E-5 -1.9E-4 3.1415 3.14151 2.0E-5 -3.13109 -0.0104 0.0104 3.13109 9.0E-5 -3.1415 3.14158 -1.0E-5 1.0E-5 3.14158 -3.14158 -1.0E-5 -1.0E-5 3.14158 -3.14158 1.0E-5</array></list></module><module cmlx:lineCount="5" cmlx:templateRef="l103.itemconverge"><list cmlx:lineCount="4" cmlx:templateRef="row"><array dataType="xsd:string" dictRef="g:item"/><array dataType="xsd:double" dictRef="g:value" size="4">4.5E-4 3.0E-4 0.0018 0.0012</array><array dataType="xsd:double" dictRef="g:threshold" size="4">0.0 0.0 0.0 0.0</array><array dataType="xsd:string" dictRef="g:converged" size="4">NO NO NO NO</array></list></module><module cmlx:lineCount="1" cmlx:templateRef="preddelta"><list cmlx:templateRef="predicted"><scalar dataType="xsd:double" dictRef="g:predchange">-1.714954E-5</scalar></list></module> GradGradGradGradGradGradGradGradGradGradGradGradGradGradGradGradGradGrad</module><module cmlx:lineCount="20" cmlx:templateRef="l202.orient"><molecule id="a14" cmlx:templateRef="atom"><atomArray><atom id="a1" elementType="C" x3="0.002598" y3="-0.001901" z3="-0.001125"><scalar dataType="xsd:integer" dictRef="cc:serial">1</scalar><scalar dataType="xsd:integer" dictRef="g:
[...]
="l103.optimizedparam"><list cmlx:templateRef="completed"><scalar dataType="xsd:string" dictRef="g:optimization">Optimization completed.</scalar><scalar dataType="xsd:string" dictRef="g:optimization">-- Stationary point found.</scalar></list><list cmlx:templateRef="length"><array dataType="xsd:string" size="14" dictRef="g:symbol">R1 R2 R3 R4 R5 R6 R7 R8 R9 R10 R11 R12 R13 R14</array><array dataType="xsd:integer" size="14" dictRef="g:atom1">1 1 1 2 2 3 3 4 4 5 5 6 11 11</array><array dataType="xsd:integer" size="14" dictRef="g:atom2">2 6 14 3 11 4 10 5 9 6 8 7 12 13</array><array dataType="xsd:double" size="14" dictRef="cc:distance">1.3914 1.3914 1.0811 1.3914 1.4807 1.3914 1.0811 1.3952 1.0833 1.3952 1.0839 1.0833 1.2246 1.2246</array><array delimiter="|" dataType="xsd:string" size="14" dictRef="g:deriv">|-DE/DX =    0.0|-DE/DX =    0.0001|-DE/DX =    0.0|-DE/DX =    0.0|-DE/DX =    0.0001|-DE/DX =    0.0001|-DE/DX =    0.0|-DE/DX =    0.0|-DE/DX =    0.0001|-DE/DX =    0.0|-DE/DX =    0.0|-DE/DX =    0.0001|-DE/DX =   -0.0001|-DE/DX =   -0.0001|</array></list><list cmlx:templateRef="angle"><array dataType="xsd:string" size="21" dictRef="g:symbol">A1 A2 A3 A4 A5 A6 A7 A8 A9 A10 A11 A12 A13 A14 A15 A16 A17 A18 A19 A20 A21</array><array dataType="xsd:integer" size="21" dictRef="g:atom1">2 2 6 1 1 3 2 2 4 3 3 5 4 4 6 1 1 5 2 2 12</array><array dataType="xsd:integer" size="21" dictRef="g:atom2">1 1 1 2 2 2 3 3 3 4 4 4 5 5 5 6 6 6 11 11 11</array><array dataType="xsd:integer" size="21" dictRef="g:atom3">6 14 14 3 11 11 4 10 10 5 9 9 6 8 8 5 7 7 12 13 13</array><array dataType="xsd:double" size="21" dictRef="cc:angle">118.4986 119.6459 121.8555 122.2988 118.8506 118.8506 118.4986 119.6459 121.8555 120.1982 119.6139 120.1878 120.3076 119.8462 119.8462 120.1982 119.6139 120.1878 117.6645 117.6645 124.6711</array><array delimiter="|" dataType="xsd:string" size="21" dictRef="g:deriv">|-DE/DX =    0.0|-DE/DX =    0.0|-DE/DX =    0.0|-DE/DX =    0.0|-DE/DX =    0.0|-DE/DX =    0.0|-DE/DX =    0.0|-DE/DX =    0.0|-DE/DX =    0.0|-DE/DX =    0.0|-DE/DX =    0.0|-DE/DX =    0.0|-DE/DX =    0.0|-DE/DX =    0.0|-DE/DX =    0.0|-DE/DX =    0.0|-DE/DX =    0.0|-DE/DX =    0.0|-DE/DX =    0.0|-DE/DX =    0.0|-DE/DX =    0.0|</array></list><list cmlx:templateRef="dihed"><array dataType="xsd:string" size="27" dictRef="g:symbol">D1 D2 D3 D4 D5 D6 D7 D8 D9 D10 D11 D12 D13 D14 D15 D16 D17 D18 D19 D20 D21 D22 D23 D24 D25 D26 D27</array><array dataType="xsd:integer" size="27" dictRef="g:atom1">6 6 14 14 2 2 14 14 1 1 11 11 1 1 3 3 2 2 10 10 3 3 9 9 4 4 8</array><array dataType="xsd:integer" size="27" dictRef="g:atom2">1 1 1 1 1 1 1 1 2 2 2 2 2 2 2 2 3 3 3 3 4 4 4 4 5 5 5</array><array dataType="xsd:integer" size="27" dictRef="g:atom3">2 2 2 2 6 6 6 6 3 3 3 3 11 11 11 11 4 4 4 4 5 5 5 5 6 6 6</array><array dataType="xsd:integer" size="27" dictRef="g:atom4">3 11 3 11 5 7 5 7 4 10 4 10 12 13 12 13 5 9 5 9 6 8 6 8 1 7 1</array><array dataType="xsd:double" size="27" dictRef="cc:dihed">-3.0E-4 179.9997 179.9997 -2.0E-4 0.0 179.9997 179.9999 -4.0E-4 3.0E-4 -179.9997 180.0003 2.0E-4 179.9992 8.0E-4 -8.0E-4 180.0008 0.0 -179.9997 180.0001 4.0E-4 -4.0E-4 -180.0006 179.9993 -9.0E-4 4.0E-4 180.0007 180.0006</array><array delimiter="|" dataType="xsd:string" size="27" dictRef="g:deriv">|-DE/DX =    0.0|-DE/DX =    0.0|-DE/DX =    0.0|-DE/DX =    0.0|-DE/DX =    0.0|-DE/DX =    0.0|-DE/DX =    0.0|-DE/DX =    0.0|-DE/DX =    0.0|-DE/DX =    0.0|-DE/DX =    0.0|-DE/DX =    0.0|-DE/DX =    0.0|-DE/DX =    0.0|-DE/DX =    0.0|-DE/DX =    0.0|-DE/DX =    0.0|-DE/DX =    0.0|-DE/DX =    0.0|-DE/DX =    0.0|-DE/DX =    0.0|-DE/DX =    0.0|-DE/DX =    0.0|-DE/DX =    0.0|-DE/DX =    0.0|-DE/DX =    0.0|-DE/DX =    0.0|</array></list> ! D28   D(8,5,6,7)              0.0009         -DE/DX =    0.0                 !</module> -------------------------------------------------------------------------------- GradGradGradGradGradGradGradGradGradGradGradGradGradGradGradGradGradGrad</module><module cmlx:lineCount="187" cmlx:templateRef="l9999.archive"><scalar dataType="xsd:string" dictRef="cc:hostname">GINC-PUBLIX</scalar><scalar dataType="xsd:string" dictRef="g:operation">Freq</scalar><scalar dataType="xsd:string" dictRef="cc:method">RB3LYP</scalar><scalar dataType="xsd:string" dictRef="cc:basis">6-311+G(d,p)</scalar><scalar dataType="xsd:string" dictRef="cc:jobname">NOBODY</scalar><scalar dataType="xsd:date" dictRef="cc:date">2006-08-21T00:00:00Z</scalar><scalar dataType="xsd:string" dictRef="g:keyword">#P</scalar><scalar dataType="xsd:string" dictRef="g:keyword">GEOM=ALLCHECK</scalar><scalar dataType="xsd:string" dictRef="g:keyword">GUESS=READ</scalar><scalar dataType="xsd:string" dictRef="g:keyword">SCRF=CHECK</scalar><scalar dataType="xsd:string" dictRef="g:keyword">GENCHK</scalar><scalar dataType="xsd:string" dictRef="g:keyword">RB3LYP/6-311+G(D,P)</scalar><scalar dataType="xsd:string" dictRef="g:keyword">FREQ</scalar><scalar dataType="xsd:string" dictRef="cc:title">nitrobz basis</scalar><molecule id="a14"><atomArray><atom id="a1" elementType="C" x3="-0.2113687364" y3="-3.24945E-5" z3="-1.2748915222"><scalar dataType="xsd:integer" dictRef="compchem:atomicNumber">6</scalar></atom><atom id="a2" elementType="C" x3="-0.2115914765" y3="2.01403E-5" z3="0.1165227186"><scalar dataType="xsd:integer" dictRef="compchem:atomicNumber">6</scalar></atom><atom id="a3" elementType="C" x3="0.9644144814" y3="-3.24938E-5" z3="0.8601917485"><scalar dataType="xsd:integer" dictRef="compchem:atomicNumber">6</scalar></atom><atom id="a4" elementType="C" x3="2.1790357813" y3="-1.341228E-4" z3="0.1815454351"><scalar dataType="xsd:integer" dictRef="compchem:atomicNumber">6</scalar></atom><atom id="a5" elementType="C" x3="2.2035021584" y3="-1.805477E-4" z3="-1.2134612704"><scalar dataType="xsd:integer" dictRef="compchem:atomicNumber">6</scalar></atom><atom id="a6" elementType="C" x3="1.0114994275" y3="-1.341234E-4" z3="-1.9385625059"><scalar dataType="xsd:integer" dictRef="compchem:atomicNumber">6</scalar></atom><atom id="a7" elementType="H" x3="1.0327604673" y3="-1.815117E-4" z3="-3.0216966009"><scalar dataType="xsd:integer" dictRef="compchem:atomicNumber">1</scalar></atom><atom id="a8" elementType="H" x3="3.152909492" y3="-2.492389E-4" z3="-1.7362967144"><scalar dataType="xsd:integer" dictRef="compchem:atomicNumber">1</scalar></atom><atom id="a9" elementType="H" x3="3.1057607727" y3="-1.815105E-4" z3="0.7426267926"><scalar dataType="xsd:integer" dictRef="compchem:atomicNumber">1</scalar></atom><atom id="a10" elementType="H" x3="0.9142012498" y3="6.8526E-6" z3="1.9401610188"><scalar dataType="xsd:integer" dictRef="compchem:atomicNumber">1</scalar></atom><atom id="a11" elementType="N" x3="-1.5086437561" y3="1.347876E-4" z3="0.8308050718"><scalar dataType="xsd:integer" dictRef="compchem:atomicNumber">7</scalar></atom><atom id="a12" elementType="O" x3="-1.4834894972" y3="1.635563E-4" z3="2.0551681786"><scalar dataType="xsd:integer" dictRef="compchem:atomicNumber">8</scalar></atom><atom id="a13" elementType="O" x3="-2.5299078006" y3="1.635557E-4" z3="0.1549962931"><scalar dataType="xsd:integer" dictRef="compchem:atomicNumber">8</scalar></atom><atom id="a14" elementType="H" x3="-1.1508971202" y3="6.8515E-6" z3="-1.8098133945"><scalar dataType="xsd:integer" dictRef="compchem:atomicNumber">1</scalar></atom></atomArray><formula formalCharge="0" concise="C 6 H 5 N 1 O 2" dictRef="cc:formula.calc"/><bondArray><bond atomRefs2="a1 a2" id="a1_a2" order="2"/><bond atomRefs2="a1 a6" id="a1_a6" order="S"/><bond atomRefs2="a1 a14" id="a1_a14" order="S"/><bond atomRefs2="a2 a3" id="a2_a3" order="S"/><bond atomRefs2="a2 a11" id="a2_a11" order="S"/><bond atomRefs2="a3 a4" id="a3_a4" order="2"/><bond atomRefs2="a3 a10" id="a3_a10" order="S"/><bond atomRefs2="a4 a5" id="a4_a5" order="S"/><bond atomRefs2="a4 a9" id="a4_a9" order="S"/><bond atomRefs2="a5 a6" id="a5_a6" order="2"/><bond atomRefs2="a5 a8" id="a5_a8" order="S"/><bond atomRefs2="a6 a7" id="a6_a7" order="S"/><bond atomRefs2="a11 a12" id="a11_a12" order="S"/><bond atomRefs2="a11 a13" id="a11_a13" order="S"/></bondArray><property dictRef="cml:molmass"><scalar dataType="xsd:double" units="unit:dalton" xmlns:unit="http://www.xml-cml.org/unit/si/">123.1094</scalar></property><formula concise="C 6 H 5 N 1 O 2" dictRef="cc:formula.user"/></molecule><scalar dataType="xsd:string" dictRef="cc:version">Sun64-SVR4-Unix-G03RevB.04</scalar><scalar dataType="xsd:string" dictRef="cc:electronicstate">1-A'</scalar><scalar dataType="xsd:double" dictRef="cc:hfenergy" units="nonsi:hartree">-436.8746215</scalar><scalar dataType="xsd:double" dictRef="cc:rmsd" units="nonsi:unknown">1.745E-9</scalar><scalar dataType="xsd:double" dictRef="cc:rmsf" units="nonsi:unknown">5.214E-5</scalar><array dataType="xsd:double" size="3" dictRef="cc:dipole" units="nonsi:debye">1.6943228 -1.365E-4 -0.9330579</array><array dataType="xsd:double" size="126" dictRef="cc:dipolederiv" units="nonsi:unknown">0.0457153 -4.6E-6 0.0574294 -1.26E-5 -0.0677227 -2.9E-6 -0.2065531 1.45E-5 -0.017494 -0.3282248 3.09E-5 0.2257834 3.99E-5 0.0451793 -2.2E-5 0.2257834 -1.7E-5 -0.042567 0.0679448 -1.47E-5 -0.1924909 -4.3E-6 -0.0677227 1.22E-5 0.0714917 -3.9E-6 -0.0397237 0.0467911 -7.3E-6 0.183129 -1.36E-5 -0.1333928 -1.36E-5 0.1417942 -9.8E-6 -0.1337386 0.1226775 -1.27E-5 -0.02965 -7.3E-6 -0.1007128 4.0E-6 -0.02965 7.0E-6 0.0851647 -0.2289417 4.4E-6 -0.0326323 4.2E-6 -0.1333928 1.87E-5 0.0087025 1.14E-5 0.1419941 0.0655931 4.8E-6 0.0036637 3.7E-6 0.140936 -9.9E-6 0.0120915 -8.8E-6 -0.069288 -0.0370799 1.26E-5 0.0655168 1.21E-5 0.1371912 -6.6E-6 0.0655168 -6.9E-6 0.045811 -0.0378568 1.0E-5 -0.0533501 1.04E-5 0.140936 2.2E-6 -0.0617779 7.0E-7 0.0341618 0.1206971 1.8E-6 0.0048772 2.4E-6 0.1473126 -3.4E-6 -0.0093648 -2.8E-6 0.0469779 1.8180214 -1.089E-4 -0.1300759 -1.141E-4 0.2234066 6.28E-5 -0.1300759 6.0E-5 1.6534514 -0.5957214 2.9E-5 0.1828871 2.86E-5 -0.2396652 -3.68E-5 0.0940856 -4.27E-5 -1.1681594 -1.1296902 5.15E-5 -0.2436991 4.63E-5 -0.2396652 -4.5E-6 -0.1548976 -1.7E-6 -0.6341906 0.0700745 3.3E-6 -0.0413883 4.2E-6 0.1473126 -2.0E-7 -0.0271463 0.0 0.0976005</array><array dataType="xsd:double" size="6" dictRef="cc:polarizability" units="nonsi:unknown">108.3131241 -0.0042474 45.1905962 -7.3388041 0.002339 99.0281784</array><scalar dataType="xsd:string" dictRef="cc:pointgroup">CS [SG(C2H1N1),X(C4H4O2)]</scalar><array dataType="xsd:double" size="903" dictRef="x:unknown">0.73930966 -3.722E-5 0.13348155 0.03705476 1.837E-5 0.67559896 -0.11876839 4.41E-6 0.00897688 0.58015069 2.45E-6 -0.05526359 -1.069E-5 -2.677E-5 0.12073468 -0.04874856 -7.19E-6 -0.32126359 0.0944806 1.474E-5 0.69968614 0.03280199 -4.21E-6 -0.07050512 -0.24542123 1.035E-5 -0.07114276 0.66032527 -2.68E-6 0.00483973 3.29E-6 8.43E-6 -0.05526359 1.1E-7 -3.542E-5 0.13348155 -0.0264031 5.1E-7 -0.02850143 -0.1288682 3.64E-6 -0.19461074 -0.01291017 2.164E-5 0.75458335 -0.01741299 2.01E-6 0.03068406 -0.06007529 3.31E-6 -0.02382332 -0.28857477 1.902E-5 0.12100139 0.72096258 1.84E-6 -0.00346238 -3.65E-6 5.08E-6 0.00314766 3.48E-6 1.656E-5 -0.06168424 -1.18E-5 -3.8E-5 0.13391854 0.02745047 -3.36E-6 -0.04953962 0.02661655 3.4E-7 0.05938819 0.05536744 -7.76E-6 -0.17835052 0.03740818 1.402E-5 0.67498126 -0.05747703 4.61E-6 0.02047167 -0.01663267 -3.0E-7 -0.02742185 0.03184456 -5.6E-7 0.03228445 -0.13082834 5.66E-6 0.03478641 0.71938664 3.12E-6 0.00560443 7.2E-7 -1.2E-7 -0.00469453 6.0E-8 1.06E-6 0.00560444 -3.02E-6 3.17E-6 -0.06345451 -1.041E-5 -3.483E-5 0.13948116 -0.02421972 3.57E-6 0.06521769 -0.02742185 1.6E-7 -0.05132638 0.07697584 -5.8E-6 -0.0241039 -0.02974971 -6.09E-6 -0.32834545 -0.03615446 1.918E-5 0.67364456 -0.28953562 1.673E-5 0.05475961 0.02398323 1.49E-6 0.07979134 -0.06662268 3.91E-6 -0.00367921 0.03714891 -4.74E-6 -0.07381394 -0.27417009 1.049E-5 -0.0558905 0.65432112 1.883E-5 -0.06168424 -7.69E-6 -2.2E-7 0.00314766 -6.15E-6 4.07E-6 -0.00346238 4.0E-7 -3.13E-6 0.00698777 3.63E-6 8.17E-6 -0.06345451 -1.52E-6 -3.216E-5 0.13391854 0.12039356 -1.193E-5 -0.17738967 0.02935148 -2.98E-6 -0.02467034 -4.4562E-4 9.0E-8 -3.2993E-4 -0.0298153 7.1E-7 -0.02840617 -0.12042663 2.89E-6 -0.18500371 -0.00474871 2.462E-5 0.74162272 0.0027626 1.19E-6 0.02927157 -0.0042288 8.0E-7 0.00161122 -0.00128253 2.0E-8 2.94E-5 -0.00440675 6.2E-7 -0.00247203 0.00498458 -1.2E-6 -0.02812988 -0.05879731 1.45E-6 0.00507862 0.05883309 3.0E-8 0.00342569 -2.35E-6 8.3E-7 0.00728923 -2.8E-7 -8.0E-8 -9.8026E-4 8.0E-8 6.1E-7 0.00695116 -1.5E-7 1.9E-7 0.00343552 1.39E-6 1.3E-6 -0.03737705 -1.321E-5 -2.26E-6 0.0258252 -0.00153168 -4.7E-7 -0.01053187 0.00262753 -4.6E-7 0.00106939 -8.785E-5 7.0E-8 6.4397E-4 -0.0030983 -9.0E-8 4.5972E-4 0.00296672 -7.8E-7 -0.01131998 0.00528416 -1.294E-5 -0.33877739 -0.00595831 1.426E-5 0.35815944 -0.00310597 4.3E-7 -0.00364097 3.8059E-4 -6.0E-8 -0.0011307 0.00160786 2.6E-7 -4.7169E-4 0.00357968 -5.0E-8 -0.0021857 -0.27303649 1.678E-5 0.11760242 -0.0179172 1.8E-6 0.01514469 8.9462E-4 -2.7E-7 -2.1684E-4 0.28781635 5.1E-7 0.00709306 -1.1E-7 -1.0E-8 7.29E-6 0.0 3.6E-7 0.00709306 -3.7E-7 1.04E-6 0.00423854 -4.3E-7 1.651E-5 -0.03952798 -9.09E-6 9.2E-7 0.00423854 -6.5E-7 -2.8E-7 -0.00391336 2.2E-7 -1.867E-5 0.02623882 -0.00345362 -4.0E-8 -9.9378E-4 -0.0011307 3.0E-8 -0.00104995 -6.5904E-4 -3.4E-7 -0.00570761 0.02874346 -2.15E-6 -0.00971944 0.11760242 -9.24E-6 -0.12424766 -0.01578447 1.19E-6 0.01177744 5.1044E-4 1.1E-7 7.4781E-4 -0.12626983 1.028E-5 0.12806164 1.1978E-4 -5.0E-8 7.9924E-4 -0.0023599 8.2E-7 0.00380978 -0.01926504 1.03E-6 -0.0154662 -0.26344019 1.172E-5 -0.1241714 0.00470851 2.0E-8 0.00279209 0.00158552 4.1E-7 6.9237E-4 9.645E-5 2.0E-8 2.2031E-4 6.5713E-4 -3.3E-7 -3.6708E-4 0.27799504 -1.1E-7 -9.8026E-4 2.0E-8 6.8E-7 0.00728923 -5.6E-7 2.0E-6 0.00342569 1.24E-6 1.186E-5 -0.03737705 5.96E-6 -1.07E-6 0.00343552 -9.0E-7 4.5E-7 0.00695116 -4.3E-7 -2.0E-8 1.1926E-4 -4.0E-8 -2.4E-7 -0.00391336 1.7E-7 -1.326E-5 0.0258252 9.1649E-4 -5.0E-8 -7.5833E-4 0.00279347 -4.3E-7 -7.9952E-4 0.01533705 -7.6E-7 0.01149577 -0.12437693 5.69E-6 -0.13413451 -0.02830452 1.43E-6 -0.01104392 0.00131863 -4.8E-7 -0.00553255 -0.00134428 4.0E-8 -6.1457E-4 3.602E-4 1.2E-7 9.8531E-4 0.1326819 -5.71E-6 0.13899749 -0.00507952 6.2E-7 -0.00229699 0.00645684 -1.02E-6 -0.02636965 -0.05726354 1.6E-6 0.01014254 0.00417841 9.7E-7 0.02740576 -0.00450929 8.5E-7 0.00216543 -0.0011452 0.0 7.658E-5 7.662E-5 -6.0E-8 1.347E-5 6.067E-5 2.0E-8 0.0012699 0.00102857 -3.7E-7 -5.0893E-4 0.05601864 6.0E-7 0.00534902 7.0E-8 -2.5E-7 0.00457927 1.05E-6 1.79E-6 -0.03864998 -1.085E-5 -2.0E-7 0.00463505 -2.05E-6 8.2E-7 0.00757442 -4.9E-7 1.2E-7 -0.00117236 4.0E-8 -5.0E-8 -8.3723E-4 3.0E-8 -3.0E-8 -1.4434E-4 -1.1E-7 -3.7E-7 -0.0043624 1.8E-7 -2.35E-6 0.02626968 -0.0027596 4.0E-8 6.5082E-4 0.00100085 -6.5E-7 -0.01282533 0.00800299 -1.076E-5 -0.34553624 -0.00150577 -3.1E-7 -0.00720967 0.00200191 -3.5E-7 7.5124E-4 2.3124E-4 4.0E-8 6.4573E-4 2.636E-5 2.0E-8 -5.615E-5 -1.995E-4 0.0 -3.5276E-4 8.958E-5 1.6E-7 7.4057E-4 -0.01143482 1.206E-5 0.36519379 -0.00488181 9.4E-7 0.0293135 -0.10570365 3.37E-6 -9.9835E-4 -0.0421154 2.9E-6 0.01210776 1.707E-4 3.4E-7 -0.00914738 -0.00141518 -1.8E-7 -0.00185828 0.00913665 -1.1E-7 -0.00377106 8.4046E-4 -2.0E-8 -9.2418E-4 -1.797E-4 -1.1E-7 -1.8964E-4 -1.5824E-4 8.0E-8 8.2088E-4 6.9308E-4 -2.8E-7 6.6394E-4 0.6973752 1.41E-6 -0.00579913 -2.27E-6 1.98E-6 -0.06716774 -1.09E-6 2.67E-6 -0.00579913 2.0E-8 2.9E-7 0.00947017 4.3E-7 -1.7E-7 -0.00207522 9.0E-8 -2.1E-7 0.00947017 -4.7E-7 7.0E-8 8.5236E-4 1.0E-8 -8.0E-8 -0.00152278 4.0E-8 2.0E-8 8.5236E-4 -6.0E-8 -4.3E-7 -0.00435496 0.0 -2.259E-5 0.21297028 0.03566145 -2.84E-6 -0.01591264 -9.9835E-4 -1.85E-6 -0.10696674 0.00575981 7.3E-7 0.02132097 -0.00944285 3.5E-7 9.6455E-4 -0.00185828 1.0E-7 -0.00376624 -0.00347558 -4.7E-7 -0.0080014 0.00145264 -1.1E-7 -2.2358E-4 -1.8964E-4 6.0E-8 -4.1962E-4 -0.00155595 8.0E-8 7.7512E-4 -0.00303582 2.1E-7 -0.00350923 0.12727963 1.244E-5 0.85840748 -0.00576716 5.0E-7 -0.00245128 0.00462392 1.8E-6 0.04075269 -0.00711441 6.5E-7 0.00195127 0.00199422 -1.8E-7 8.2604E-4 1.9008E-4 7.0E-8 0.00174538 -9.9861E-4 1.0E-7 0.00252861 -6.1681E-4 2.0E-8 3.3423E-4 -1.932E-5 2.0E-8 2.5195E-4 -8.107E-5 0.0 -1.1191E-4 -0.00214488 2.6E-7 0.00373708 -0.13286017 4.09E-6 0.01805505 0.13526074 6.6E-7 0.00362384 1.7E-7 1.84E-6 0.01580757 -4.92E-6 3.7E-7 0.00242226 -2.9E-7 -1.4E-7 -8.75E-4 -7.0E-8 -1.0E-8 2.4841E-4 -1.5E-7 1.1E-7 -0.00132336 -1.1E-7 2.0E-8 -4.361E-4 -1.0E-8 1.0E-8 1.2843E-4 -1.0E-8 1.0E-8 7.98E-6 1.0E-8 2.0E-7 -7.791E-5 -2.1E-7 3.8E-6 -0.0712707 -1.201E-5 -5.87E-6 0.02615635 0.00549666 -3.0E-7 0.00392957 0.02467547 -3.32E-6 -0.05364594 -0.008489 3.0E-7 -0.00355746 0.00209887 -1.3E-7 -8.1318E-4 -6.6455E-4 2.0E-8 3.322E-5 0.00242733 -1.9E-7 -0.00107322 6.1071E-4 -3.0E-8 -3.4608E-4 1.6886E-4 -2.0E-8 2.4591E-4 3.4678E-4 -2.0E-8 -5.501E-5 0.00257716 -1.1E-7 0.00143613 0.01433546 -1.302E-5 -0.51394714 0.01783502 1.647E-5 0.65152267 -0.00162033 1.0E-7 -0.00501348 -0.06655243 3.77E-6 -0.02035016 -2.1767E-4 5.2E-7 0.00900723 -0.00329097 2.1E-7 9.772E-4 -4.1027E-4 2.0E-8 -0.00104432 -0.00133228 1.0E-8 -5.45E-6 -1.6857E-4 2.0E-8 2.9143E-4 -2.002E-5 3.0E-8 1.6842E-4 -8.5037E-4 4.0E-8 4.6296E-4 0.00128068 -8.0E-8 -6.818E-5 -0.41966535 1.319E-5 -0.16709536 0.00742962 -1.01E-6 -0.06060615 0.48785804 4.4E-7 0.00242226 -1.6E-7 5.14E-6 0.01580757 1.07E-6 2.1E-7 0.00362384 -6.5E-7 1.5E-7 -0.00132336 -3.0E-8 1.2E-7 2.4841E-4 9.0E-8 -2.0E-8 -8.75E-4 1.6E-7 0.0 7.98E-6 -1.0E-8 2.0E-8 1.2843E-4 0.0 2.0E-8 -4.361E-4 -1.0E-8 2.0E-8 4.872E-4 0.0 1.219E-5 -0.0712707 3.21E-6 -1.51E-6 0.02510103 2.4E-7 -1.706E-5 0.02615635 0.00542679 -7.1E-7 -0.00905155 -0.00427294 2.6E-7 0.01753041 0.00105929 -2.6E-7 -0.00161991 0.00107848 1.0E-8 0.00121913 0.0013656 -7.0E-8 6.3357E-4 -0.00127828 2.2E-7 0.00251332 -1.6726E-4 0.0 3.249E-5 2.5151E-4 0.0 2.466E-4 1.8648E-4 0.0 -1.1252E-4 0.00147643 -1.1E-7 5.2377E-4 -0.16337577 3.5E-6 -0.22714195 -0.08618611 1.15E-6 -0.08543007 0.24088544 -3.84E-6 0.29892537 -0.2713452 9.95E-6 -0.12742347 0.00414708 0.0 -4.6029E-4 0.00129762 3.0E-7 0.00127454 -5.19E-6 -3.0E-8 9.524E-4 -0.00263502 7.5E-7 0.00318756 -0.01565643 7.7E-7 -0.01405314 0.00101234 -3.3E-7 7.931E-5 -7.182E-4 0.0 -6.9221E-4 -3.62E-5 -5.0E-8 -4.501E-5 3.4891E-4 2.0E-8 2.1392E-4 -0.00123659 -2.4E-7 -5.5676E-4 1.0386E-4 0.0 -8.1263E-4 -0.00244008 2.9E-7 0.00355033 0.2871631 1.013E-5 -0.03864998 4.29E-6 -1.02E-6 0.00457927 -3.4E-7 2.6E-7 0.00534902 -5.4E-7 3.0E-8 -0.00117236 -1.2E-7 8.5E-7 0.00757442 -4.3E-7 1.62E-6 0.00463505 1.26E-6 -3.5E-7 -0.0043624 2.2E-7 8.0E-8 -1.4434E-4 8.0E-8 -6.0E-8 -8.3723E-4 3.0E-8 -4.0E-8 7.0454E-4 -6.0E-8 -3.3E-7 -0.00435496 1.2E-7 5.0E-8 4.872E-4 1.3E-7 2.3E-7 -7.791E-5 -1.6E-7 -1.145E-5 0.02626968 -0.12528392 4.4E-6 -0.13145458 -0.02783079 1.21E-6 -0.01051558 0.00173714 -5.4E-7 -0.00572632 7.9774E-4 -3.0E-8 -4.9428E-4 0.00335108 -5.3E-7 -0.00112302 0.01485839 -6.5E-7 0.01262517 -5.1919E-4 2.2E-7 7.568E-4 7.7719E-4 -2.0E-8 4.2611E-4 -5.79E-5 4.0E-8 5.667E-5 -0.00148106 7.0E-8 -4.5267E-4 -0.00425652 3.6E-7 -0.00157955 7.3198E-4 -2.0E-8 0.0017006 0.00239042 -5.0E-8 0.00173133 0.13478545 -4.46E-6 0.13404933</array><array dataType="xsd:double" size="42" dictRef="x:unknown">4.611E-5 -1.9E-7 -4.849E-5 -1.039E-4 -9.0E-7 5.722E-5 6.563E-5 -1.9E-7 -1.304E-5 -1.3E-6 2.6E-7 7.154E-5 6.888E-5 -2.1E-7 -3.793E-5 -6.115E-5 2.6E-7 -3.715E-5 -8.82E-6 -3.8E-7 5.013E-5 -4.019E-5 5.0E-7 2.213E-5 -4.708E-5 -3.8E-7 -1.934E-5 1.067E-5 -2.0E-8 -1.832E-5 1.2954E-4 4.26E-6 -7.134E-5 2.888E-5 -1.5E-6 1.466E-4 -1.0845E-4 -1.5E-6 -1.0278E-4 2.119E-5 -2.0E-8 7.8E-7</array></module> THERE IS MORE TO LIFE THAN INCREASING ITS SPEED.                                       -- GANDHI<module cmlx:lineCount="3" cmlx:templateRef="jobcpu"><scalar dictRef="cc:jobtime" dataType="xsd:string">PT9847.400S</scalar><scalar dataType="xsd:date" dictRef="cc:jobdatetime.end">2006-08-21T20:30:49Z</scalar><scalar dataType="xsd:string" dictRef="cc:program">Gaussian 03</scalar></module></module>
