 Entering Gaussian System, Link 0=g03
 Initial command:
 /apps/gaussian/g09/g09/l1.exe /home/scan-user-1/run/26158/Gau-7622.inp -scrdir=/home/scan-user-1/run/26158/
 Entering Link 1 = /apps/gaussian/g09/g09/l1.exe PID=      7623.
  
 Copyright (c) 1988,1990,1992,1993,1995,1998,2003,2009, Gaussian, Inc.
                  All Rights Reserved.
  
 This is part of the Gaussian(R) 09 program.  It is based on
 the Gaussian(R) 03 system (copyright 2003, Gaussian, Inc.),
 the Gaussian(R) 98 system (copyright 1998, Gaussian, Inc.),
 the Gaussian(R) 94 system (copyright 1995, Gaussian, Inc.),
 the Gaussian 92(TM) system (copyright 1992, Gaussian, Inc.),
 the Gaussian 90(TM) system (copyright 1990, Gaussian, Inc.),
 the Gaussian 88(TM) system (copyright 1988, Gaussian, Inc.),
 the Gaussian 86(TM) system (copyright 1986, Carnegie Mellon
 University), and the Gaussian 82(TM) system (copyright 1983,
 Carnegie Mellon University). Gaussian is a federally registered
 trademark of Gaussian, Inc.
  
 This software contains proprietary and confidential information,
 including trade secrets, belonging to Gaussian, Inc.
  
 This software is provided under written license and may be
 used, copied, transmitted, or stored only in accord with that
 written license.
  
 The following legend is applicable only to US Government
 contracts under FAR:
  
                    RESTRICTED RIGHTS LEGEND
  
 Use, reproduction and disclosure by the US Government is
 subject to restrictions as set forth in subparagraphs (a)
 and (c) of the Commercial Computer Software - Restricted
 Rights clause in FAR 52.227-19.
  
 Gaussian, Inc.
 340 Quinnipiac St., Bldg. 40, Wallingford CT 06492
  
  
 ---------------------------------------------------------------
 Warning -- This program may not be used in any manner that
 competes with the business of Gaussian, Inc. or will provide
 assistance to any competitor of Gaussian, Inc.  The licensee
 of this program is prohibited from giving any competitor of
 Gaussian, Inc. access to this program.  By using this program,
 the user acknowledges that Gaussian, Inc. is engaged in the
 business of creating and licensing software in the field of
 computational chemistry and represents and warrants to the
 licensee that it is not a competitor of Gaussian, Inc. and that
 it will not use this program in any manner prohibited above.
 ---------------------------------------------------------------
  

 Cite this work as:
 Gaussian 09, Revision A.02,
 M. J. Frisch, G. W. Trucks, H. B. Schlegel, G. E. Scuseria, 
 M. A. Robb, J. R. Cheeseman, G. Scalmani, V. Barone, B. Mennucci, 
 G. A. Petersson, H. Nakatsuji, M. Caricato, X. Li, H. P. Hratchian, 
 A. F. Izmaylov, J. Bloino, G. Zheng, J. L. Sonnenberg, M. Hada, 
 M. Ehara, K. Toyota, R. Fukuda, J. Hasegawa, M. Ishida, T. Nakajima, 
 Y. Honda, O. Kitao, H. Nakai, T. Vreven, J. A. Montgomery, Jr., 
 J. E. Peralta, F. Ogliaro, M. Bearpark, J. J. Heyd, E. Brothers, 
 K. N. Kudin, V. N. Staroverov, R. Kobayashi, J. Normand, 
 K. Raghavachari, A. Rendell, J. C. Burant, S. S. Iyengar, J. Tomasi, 
 M. Cossi, N. Rega, J. M. Millam, M. Klene, J. E. Knox, J. B. Cross, 
 V. Bakken, C. Adamo, J. Jaramillo, R. Gomperts, R. E. Stratmann, 
 O. Yazyev, A. J. Austin, R. Cammi, C. Pomelli, J. W. Ochterski, 
 R. L. Martin, K. Morokuma, V. G. Zakrzewski, G. A. Voth, 
 P. Salvador, J. J. Dannenberg, S. Dapprich, A. D. Daniels, 
 O. Farkas, J. B. Foresman, J. V. Ortiz, J. Cioslowski, 
 and D. J. Fox, Gaussian, Inc., Wallingford CT, 2009.
 
 ******************************************
 Gaussian 09:  EM64L-G09RevA.02 11-Jun-2009
                15-Mar-2010 
 ******************************************
 %nprocshared=4
 Will use up to    4 processors via shared memory.
 %mem=7000MB
 %NoSave
 %Chk=chk.chk
 %rwf=/tmp/pbs.3645966.cx1/rwf
 -------------------------------------
 # opt b3lyp/lanl2dz geom=connectivity
 -------------------------------------
 1/14=-1,18=20,19=15,26=3,38=1,57=2/1,3;
 2/9=110,12=2,17=6,18=5,40=1/2;
 3/5=6,6=3,11=2,16=1,25=1,30=1,71=1,74=-5/1,2,3;
 4//1;
 5/5=2,38=5/2;
 6/7=2,8=2,9=2,10=2,28=1/1;
 7//1,2,3,16;
 1/14=-1,18=20,19=15/3(2);
 2/9=110/2;
 99//99;
 2/9=110/2;
 3/5=6,6=3,11=2,16=1,25=1,30=1,71=1,74=-5/1,2,3;
 4/5=5,16=3/1;
 5/5=2,38=5/2;
 7//1,2,3,16;
 1/14=-1,18=20,19=15/3(-5);
 2/9=110/2;
 6/7=2,8=2,9=2,10=2,19=2,28=1/1;
 99/9=1/99;
 -----------------
 BrF3 Optimisation
 -----------------
 Symbolic Z-matrix:
 Charge =  0 Multiplicity = 1
 Br                    0.47703   0.54177  -1.50927 
 F                    -0.38297   2.03133  -1.50927 
 F                     0.47703   0.84044   0.1846 
 F                     0.47703   0.84044  -3.20314 
 

 GradGradGradGradGradGradGradGradGradGradGradGradGradGradGradGradGradGrad
 Berny optimization.
 Initialization pass.
                           ----------------------------
                           !    Initial Parameters    !
                           ! (Angstroms and Degrees)  !
 --------------------------                            --------------------------
 ! Name  Definition              Value          Derivative Info.                !
 --------------------------------------------------------------------------------
 ! R1    R(1,2)                  1.72           estimate D2E/DX2                !
 ! R2    R(1,3)                  1.72           estimate D2E/DX2                !
 ! R3    R(1,4)                  1.72           estimate D2E/DX2                !
 ! A1    A(2,1,3)               81.3508         estimate D2E/DX2                !
 ! A2    A(2,1,4)               81.3508         estimate D2E/DX2                !
 ! A3    A(3,1,4)              160.0            estimate D2E/DX2                !
 ! D1    D(2,1,4,3)             30.3813         estimate D2E/DX2                !
 --------------------------------------------------------------------------------
 Trust Radius=3.00D-01 FncErr=1.00D-07 GrdErr=1.00D-06
 Number of steps in this run=  20 maximum allowed number of steps= 100.
 GradGradGradGradGradGradGradGradGradGradGradGradGradGradGradGradGradGrad

                          Input orientation:                          
 ---------------------------------------------------------------------
 Center     Atomic      Atomic             Coordinates (Angstroms)
 Number     Number       Type             X           Y           Z
 ---------------------------------------------------------------------
      1         35           0        0.477032    0.541769   -1.509269
      2          9           0       -0.382968    2.031333   -1.509269
      3          9           0        0.477032    0.840444    0.184601
      4          9           0        0.477032    0.840444   -3.203138
 ---------------------------------------------------------------------
                    Distance matrix (angstroms):
                    1          2          3          4
     1  Br   0.000000
     2  F    1.720000   0.000000
     3  F    1.720000   2.242099   0.000000
     4  F    1.720000   2.242099   3.387739   0.000000
 Stoichiometry    BrF3
 Framework group  CS[SG(BrF),X(F2)]
 Deg. of freedom     4
 Full point group                 CS      NOp   2
 Largest Abelian subgroup         CS      NOp   2
 Largest concise Abelian subgroup CS      NOp   2
                         Standard orientation:                         
 ---------------------------------------------------------------------
 Center     Atomic      Atomic             Coordinates (Angstroms)
 Number     Number       Type             X           Y           Z
 ---------------------------------------------------------------------
      1         35           0        0.124839   -0.302939    0.000000
      2          9           0       -0.735161    1.186625    0.000000
      3          9           0        0.124839   -0.004264    1.693869
      4          9           0        0.124839   -0.004264   -1.693869
 ---------------------------------------------------------------------
 Rotational constants (GHZ):     10.9711407      4.6099204      3.2715656
 Standard basis: LANL2DZ (5D, 7F)
 There are    22 symmetry adapted basis functions of A'  symmetry.
 There are    13 symmetry adapted basis functions of A"  symmetry.
 Integral buffers will be    131072 words long.
 Raffenetti 2 integral format.
 Two-electron integral symmetry is turned on.
    35 basis functions,    87 primitive gaussians,    35 cartesian basis functions
    17 alpha electrons       17 beta electrons
       nuclear repulsion energy       109.0354751196 Hartrees.



 Warning!  Br atom    1 may be hypervalent but has no d functions.



 NAtoms=    4 NActive=    4 NUniq=    3 SFac= 1.33D+00 NAtFMM=   80 NAOKFM=F Big=F
 One-electron integrals computed using PRISM.
   2 Symmetry operations used in ECPInt.
 ECPInt:  NShTT=     190 NPrTT=    1412 LenC2=     190 LenP2D=    1087.
 LDataN:  DoStor=T MaxTD1= 4 Len=   56
 NBasis=    35 RedAO= T  NBF=    22    13
 NBsUse=    35 1.00D-06 NBFU=    22    13
 Harris functional with IExCor=  402 diagonalized for initial guess.
 ExpMin= 1.38D-01 ExpMax= 1.00D+04 ExpMxC= 3.50D+02 IAcc=1 IRadAn=         1 AccDes= 0.00D+00
 HarFok:  IExCor=  402 AccDes= 0.00D+00 IRadAn=         1 IDoV= 1
 ScaDFX=  1.000000  1.000000  1.000000  1.000000
 FoFCou: FMM=F IPFlag=           0 FMFlag=      100000 FMFlg1=           0
         NFxFlg=           0 DoJE=T BraDBF=F KetDBF=T FulRan=T
         Omega=  0.000000  0.000000  1.000000  0.000000  0.000000 ICntrl=     500 IOpCl=  0
         NMat0=    1 NMatS0=    1 NMatT0=    0 NMatD0=    1 NMtDS0=    0 NMtDT0=    0
         I1Cent=           4 NGrid=           0.
 Petite list used in FoFCou.
 Initial guess orbital symmetries:
       Occupied  (A') (A") (A') (A') (A") (A') (A') (A") (A') (A")
                 (A') (A") (A') (A') (A") (A') (A')
       Virtual   (A') (A") (A") (A') (A") (A') (A") (A') (A') (A')
                 (A') (A') (A") (A") (A') (A') (A") (A')
 The electronic state of the initial guess is 1-A'.
 Requested convergence on RMS density matrix=1.00D-08 within 128 cycles.
 Requested convergence on MAX density matrix=1.00D-06.
 Requested convergence on             energy=1.00D-06.
 No special actions if energy rises.
 Keep R1 ints in memory in canonical form, NReq=1116646.
 Integral accuracy reduced to 1.0D-05 until final iterations.
 Initial convergence to 1.0D-05 achieved.  Increase integral accuracy.
 SCF Done:  E(RB3LYP) =  -312.454875177     A.U. after   14 cycles
             Convg  =    0.7116D-08             -V/T =  2.0303

 **********************************************************************

            Population analysis using the SCF density.

 **********************************************************************

 Orbital symmetries:
       Occupied  (A') (A") (A') (A') (A") (A') (A') (A") (A') (A')
                 (A") (A') (A") (A') (A") (A') (A')
       Virtual   (A') (A") (A') (A") (A') (A") (A") (A') (A') (A')
                 (A') (A') (A") (A") (A') (A') (A") (A')
 The electronic state is 1-A'.
 Alpha  occ. eigenvalues --  -24.75451 -24.70751 -24.70751  -1.31056  -1.22996
 Alpha  occ. eigenvalues --   -1.20819  -0.85843  -0.59745  -0.58757  -0.55151
 Alpha  occ. eigenvalues --   -0.49441  -0.45134  -0.44239  -0.43670  -0.41054
 Alpha  occ. eigenvalues --   -0.39754  -0.33432
 Alpha virt. eigenvalues --   -0.14780  -0.04282   0.37275   0.38458   0.41034
 Alpha virt. eigenvalues --    0.67105   0.74786   0.76470   0.84017   0.87514
 Alpha virt. eigenvalues --    0.88751   0.89514   0.91863   1.07116   1.36412
 Alpha virt. eigenvalues --    1.57445   1.88956  18.16836
          Condensed to atoms (all electrons):
              1          2          3          4
     1  Br   5.888360   0.005729  -0.094767  -0.094767
     2  F    0.005729   9.464236  -0.053468  -0.053468
     3  F   -0.094767  -0.053468   9.610091   0.004353
     4  F   -0.094767  -0.053468   0.004353   9.610091
 Mulliken atomic charges:
              1
     1  Br   1.295446
     2  F   -0.363029
     3  F   -0.466208
     4  F   -0.466208
 Sum of Mulliken atomic charges =   0.00000
 Mulliken charges with hydrogens summed into heavy atoms:
              1
     1  Br   1.295446
     2  F   -0.363029
     3  F   -0.466208
     4  F   -0.466208
 Sum of Mulliken charges with hydrogens summed into heavy atoms =   0.00000
 Electronic spatial extent (au):  <R**2>=            322.0697
 Charge=              0.0000 electrons
 Dipole moment (field-independent basis, Debye):
    X=              0.7767    Y=             -2.5101    Z=              0.0000  Tot=              2.6275
 Quadrupole moment (field-independent basis, Debye-Ang):
   XX=            -28.7929   YY=            -28.6641   ZZ=            -38.4823
   XY=              0.5437   XZ=              0.0000   YZ=              0.0000
 Traceless Quadrupole moment (field-independent basis, Debye-Ang):
   XX=              3.1868   YY=              3.3157   ZZ=             -6.5025
   XY=              0.5437   XZ=              0.0000   YZ=              0.0000
 Octapole moment (field-independent basis, Debye-Ang**2):
  XXX=              2.4384  YYY=             -9.3079  ZZZ=              0.0000  XYY=              3.0891
  XXY=             -2.9400  XXZ=              0.0000  XZZ=             -0.4352  YZZ=             -2.6749
  YYZ=              0.0000  XYZ=              0.0000
 Hexadecapole moment (field-independent basis, Debye-Ang**3):
 XXXX=            -44.2393 YYYY=            -73.2038 ZZZZ=           -235.9996 XXXY=             14.3751
 XXXZ=              0.0000 YYYX=             14.4222 YYYZ=              0.0000 ZZZX=              0.0000
 ZZZY=              0.0000 XXYY=            -19.8869 XXZZ=            -40.6552 YYZZ=            -44.9387
 XXYZ=              0.0000 YYXZ=              0.0000 ZZXY=              4.5067
 N-N= 1.090354751196D+02 E-N=-9.595413425190D+02  KE= 3.032600037009D+02
 Symmetry A'   KE= 1.976712774700D+02
 Symmetry A"   KE= 1.055887262309D+02
   2 Symmetry operations used in ECPInt.
 ECPInt:  NShTT=     190 NPrTT=    1412 LenC2=     190 LenP2D=    1087.
 LDataN:  DoStor=T MaxTD1= 5 Len=  102
 Calling FoFJK, ICntrl=      2127 FMM=F ISym2X=1 I1Cent= 0 IOpClX= 0 NMat=1 NMatS=1 NMatT=0.
 ***** Axes restored to original set *****
 -------------------------------------------------------------------
 Center     Atomic                   Forces (Hartrees/Bohr)
 Number     Number              X              Y              Z
 -------------------------------------------------------------------
      1       35           0.057454291   -0.111703463    0.000000000
      2        9          -0.051018755    0.090837720    0.000000000
      3        9          -0.003217768    0.010432871    0.132302566
      4        9          -0.003217768    0.010432871   -0.132302566
 -------------------------------------------------------------------
 Cartesian Forces:  Max     0.132302566 RMS     0.071809586

 GradGradGradGradGradGradGradGradGradGradGradGradGradGradGradGradGradGrad
 Berny optimization.
 Internal  Forces:  Max     0.132108302 RMS     0.081953030
 Search for a local minimum.
 Step number   1 out of a maximum of   20
 All quantities printed in internal units (Hartrees-Bohrs-Radians)
 Mixed Optimization -- RFO/linear search
 Second derivative matrix not updated -- first step.
 The second derivative matrix:
                          R1        R2        R3        A1        A2
           R1           0.30859
           R2           0.00000   0.30859
           R3           0.00000   0.00000   0.30859
           A1           0.00000   0.00000   0.00000   0.25000
           A2           0.00000   0.00000   0.00000   0.00000   0.25000
           A3           0.00000   0.00000   0.00000   0.00000   0.00000
           D1           0.00000   0.00000   0.00000   0.00000   0.00000
                          A3        D1
           A3           0.25000
           D1           0.00000   0.01561
     Eigenvalues ---    0.01817   0.25000   0.25000   0.30859   0.30859
     Eigenvalues ---    0.308591000.00000
 RFO step:  Lambda=-1.12339839D-01 EMin= 1.81650243D-02
 Linear search not attempted -- first point.
 Maximum step size (   0.300) exceeded in Quadratic search.
    -- Step size scaled by   0.578
 Iteration  1 RMS(Cart)=  0.11663831 RMS(Int)=  0.00176519
 Iteration  2 RMS(Cart)=  0.00191897 RMS(Int)=  0.00014834
 Iteration  3 RMS(Cart)=  0.00000787 RMS(Int)=  0.00014813
 Iteration  4 RMS(Cart)=  0.00000000 RMS(Int)=  0.00014813
 ClnCor:  largest displacement from symmetrization is 9.04D-04 for atom     4.
 Variable       Old X    -DE/DX   Delta X   Delta X   Delta X     New X
                                 (Linear)    (Quad)   (Total)
    R1        3.25033   0.10417   0.00000   0.14300   0.14300   3.39333
    R2        3.25033   0.13211   0.00000   0.18135   0.18158   3.43191
    R3        3.25033   0.13211   0.00000   0.18135   0.18158   3.43191
    A1        1.41984   0.01285   0.00000   0.01944   0.01939   1.43923
    A2        1.41984   0.01233   0.00000   0.01864   0.01939   1.43923
    A3        2.79253   0.03012   0.00000   0.04893   0.04893   2.84145
    D1        0.53025  -0.00577   0.00000  -0.02556  -0.02526   0.50500
         Item               Value     Threshold  Converged?
 Maximum Force            0.132108     0.000450     NO 
 RMS     Force            0.081953     0.000300     NO 
 Maximum Displacement     0.192390     0.001800     NO 
 RMS     Displacement     0.117673     0.001200     NO 
 Predicted change in Energy=-5.125266D-02
 GradGradGradGradGradGradGradGradGradGradGradGradGradGradGradGradGradGrad

                          Input orientation:                          
 ---------------------------------------------------------------------
 Center     Atomic      Atomic             Coordinates (Angstroms)
 Number     Number       Type             X           Y           Z
 ---------------------------------------------------------------------
      1         35           0        0.495090    0.541288   -1.509269
      2          9           0       -0.418666    2.087084   -1.509269
      3          9           0        0.485957    0.812651    0.286409
      4          9           0        0.485957    0.812651   -3.304946
 ---------------------------------------------------------------------
                    Distance matrix (angstroms):
                    1          2          3          4
     1  Br   0.000000
     2  F    1.795672   0.000000
     3  F    1.816089   2.380542   0.000000
     4  F    1.816089   2.380542   3.591355   0.000000
 Stoichiometry    BrF3
 Framework group  CS[SG(BrF),X(F2)]
 Deg. of freedom     4
 Full point group                 CS      NOp   2
 Largest Abelian subgroup         CS      NOp   2
 Largest concise Abelian subgroup CS      NOp   2
                         Standard orientation:                         
 ---------------------------------------------------------------------
 Center     Atomic      Atomic             Coordinates (Angstroms)
 Number     Number       Type             X           Y           Z
 ---------------------------------------------------------------------
      1         35           0        0.125020   -0.307552    0.000000
      2          9           0       -0.736226    1.268105    0.000000
      3          9           0        0.125020   -0.036035    1.795677
      4          9           0        0.125020   -0.036035   -1.795677
 ---------------------------------------------------------------------
 Rotational constants (GHZ):     10.0733916      4.1094341      2.9343656
 Standard basis: LANL2DZ (5D, 7F)
 There are    22 symmetry adapted basis functions of A'  symmetry.
 There are    13 symmetry adapted basis functions of A"  symmetry.
 Integral buffers will be    131072 words long.
 Raffenetti 2 integral format.
 Two-electron integral symmetry is turned on.
    35 basis functions,    87 primitive gaussians,    35 cartesian basis functions
    17 alpha electrons       17 beta electrons
       nuclear repulsion energy       103.2266556634 Hartrees.



 Warning!  Br atom    1 may be hypervalent but has no d functions.



 NAtoms=    4 NActive=    4 NUniq=    3 SFac= 1.33D+00 NAtFMM=   80 NAOKFM=F Big=F
 One-electron integrals computed using PRISM.
   2 Symmetry operations used in ECPInt.
 ECPInt:  NShTT=     190 NPrTT=    1412 LenC2=     190 LenP2D=    1071.
 LDataN:  DoStor=T MaxTD1= 4 Len=   56
 NBasis=    35 RedAO= T  NBF=    22    13
 NBsUse=    35 1.00D-06 NBFU=    22    13
 Initial guess read from the read-write file.
 B after Tr=     0.000000    0.000000    0.000000
         Rot=    1.000000    0.000000    0.000000    0.000000 Ang=   0.00 deg.
 Initial guess orbital symmetries:
       Occupied  (A') (A") (A') (A') (A") (A') (A') (A") (A') (A')
                 (A") (A') (A") (A') (A") (A') (A')
       Virtual   (A') (A") (A') (A") (A') (A") (A") (A') (A') (A')
                 (A') (A') (A") (A") (A') (A') (A") (A')
 Harris functional with IExCor=  402 diagonalized for initial guess.
 ExpMin= 1.38D-01 ExpMax= 1.00D+04 ExpMxC= 3.50D+02 IAcc=1 IRadAn=         1 AccDes= 0.00D+00
 HarFok:  IExCor=  402 AccDes= 0.00D+00 IRadAn=         1 IDoV= 1
 ScaDFX=  1.000000  1.000000  1.000000  1.000000
 FoFCou: FMM=F IPFlag=           0 FMFlag=      100000 FMFlg1=           0
         NFxFlg=           0 DoJE=T BraDBF=F KetDBF=T FulRan=T
         Omega=  0.000000  0.000000  1.000000  0.000000  0.000000 ICntrl=     500 IOpCl=  0
         NMat0=    1 NMatS0=    1 NMatT0=    0 NMatD0=    1 NMtDS0=    0 NMtDT0=    0
         I1Cent=           4 NGrid=           0.
 Petite list used in FoFCou.
 Requested convergence on RMS density matrix=1.00D-08 within 128 cycles.
 Requested convergence on MAX density matrix=1.00D-06.
 Requested convergence on             energy=1.00D-06.
 No special actions if energy rises.
 Keep R1 ints in memory in canonical form, NReq=1116646.
 Integral accuracy reduced to 1.0D-05 until final iterations.
 Initial convergence to 1.0D-05 achieved.  Increase integral accuracy.
 SCF Done:  E(RB3LYP) =  -312.500900610     A.U. after   15 cycles
             Convg  =    0.4924D-08             -V/T =  2.0323
   2 Symmetry operations used in ECPInt.
 ECPInt:  NShTT=     190 NPrTT=    1412 LenC2=     190 LenP2D=    1071.
 LDataN:  DoStor=T MaxTD1= 5 Len=  102
 Calling FoFJK, ICntrl=      2127 FMM=F ISym2X=1 I1Cent= 0 IOpClX= 0 NMat=1 NMatS=1 NMatT=0.
 ***** Axes restored to original set *****
 -------------------------------------------------------------------
 Center     Atomic                   Forces (Hartrees/Bohr)
 Number     Number              X              Y              Z
 -------------------------------------------------------------------
      1       35           0.029576931   -0.044256517    0.000000000
      2        9          -0.022293108    0.039915186    0.000000000
      3        9          -0.003641911    0.002170665    0.060243666
      4        9          -0.003641911    0.002170665   -0.060243666
 -------------------------------------------------------------------
 Cartesian Forces:  Max     0.060243666 RMS     0.031908970

 GradGradGradGradGradGradGradGradGradGradGradGradGradGradGradGradGradGrad
 Berny optimization.
 Using GEDIIS/GDIIS optimizer.
 Internal  Forces:  Max     0.059910403 RMS     0.037167764
 Search for a local minimum.
 Step number   2 out of a maximum of   20
 All quantities printed in internal units (Hartrees-Bohrs-Radians)
 Mixed Optimization -- RFO/linear search
 Update second derivatives using D2CorX and points    1    2
 DE= -4.60D-02 DEPred=-5.13D-02 R= 8.98D-01
 SS=  1.41D+00  RLast= 3.00D-01 DXNew= 5.0454D-01 9.0088D-01
 Trust test= 8.98D-01 RLast= 3.00D-01 DXMaxT set to 5.05D-01
 The second derivative matrix:
                          R1        R2        R3        A1        A2
           R1           0.33402
           R2           0.02893   0.34116
           R3           0.02893   0.03257   0.34116
           A1           0.00148   0.00156   0.00156   0.25004
           A2           0.00119   0.00120   0.00120   0.00001   0.24998
           A3           0.00232   0.00217   0.00217  -0.00004  -0.00011
           D1          -0.00123  -0.00149  -0.00149  -0.00011  -0.00010
                          A3        D1
           A3           0.24956
           D1          -0.00025   0.01564
 Use linear search instead of GDIIS.
     Eigenvalues ---    0.01736   0.24942   0.25000   0.30841   0.30859
     Eigenvalues ---    0.399541000.00000
 RFO step:  Lambda=-4.66508177D-03 EMin= 1.73584386D-02
 Quartic linear search produced a step of  1.49243.
 Iteration  1 RMS(Cart)=  0.13887451 RMS(Int)=  0.09906834
 Iteration  2 RMS(Cart)=  0.05557068 RMS(Int)=  0.01290000
 Iteration  3 RMS(Cart)=  0.00518567 RMS(Int)=  0.01026518
 Iteration  4 RMS(Cart)=  0.00010973 RMS(Int)=  0.01026473
 Iteration  5 RMS(Cart)=  0.00000008 RMS(Int)=  0.01026473
 ClnCor:  largest displacement from symmetrization is 1.01D-04 for atom     4.
 Variable       Old X    -DE/DX   Delta X   Delta X   Delta X     New X
                                 (Linear)    (Quad)   (Total)
    R1        3.39333   0.04570   0.21342  -0.01440   0.19902   3.59234
    R2        3.43191   0.05991   0.27100  -0.00257   0.26846   3.70037
    R3        3.43191   0.05991   0.27100  -0.00257   0.26846   3.70037
    A1        1.43923   0.00722   0.02894  -0.00622   0.03836   1.47759
    A2        1.43923   0.00688   0.02894  -0.00631   0.03836   1.47759
    A3        2.84145   0.01679   0.07302   0.05624   0.11361   2.95507
    D1        0.50500  -0.00464  -0.03769  -0.43128  -0.46907   0.03593
         Item               Value     Threshold  Converged?
 Maximum Force            0.059910     0.000450     NO 
 RMS     Force            0.037168     0.000300     NO 
 Maximum Displacement     0.290947     0.001800     NO 
 RMS     Displacement     0.196811     0.001200     NO 
 Predicted change in Energy=-4.778603D-03
 GradGradGradGradGradGradGradGradGradGradGradGradGradGradGradGradGradGrad

                          Input orientation:                          
 ---------------------------------------------------------------------
 Center     Atomic      Atomic             Coordinates (Angstroms)
 Number     Number       Type             X           Y           Z
 ---------------------------------------------------------------------
      1         35           0        0.568487    0.587066   -1.509269
      2          9           0       -0.469092    2.179919   -1.509269
      3          9           0        0.474483    0.743328    0.440371
      4          9           0        0.474483    0.743328   -3.458909
 ---------------------------------------------------------------------
                    Distance matrix (angstroms):
                    1          2          3          4
     1  Br   0.000000
     2  F    1.900986   0.000000
     3  F    1.958150   2.599081   0.000000
     4  F    1.958150   2.599081   3.899280   0.000000
 Stoichiometry    BrF3
 Framework group  CS[SG(BrF),X(F2)]
 Deg. of freedom     4
 Full point group                 CS      NOp   2
 Largest Abelian subgroup         CS      NOp   2
 Largest concise Abelian subgroup CS      NOp   2
                         Standard orientation:                         
 ---------------------------------------------------------------------
 Center     Atomic      Atomic             Coordinates (Angstroms)
 Number     Number       Type             X           Y           Z
 ---------------------------------------------------------------------
      1         35           0        0.009869   -0.328716    0.000000
      2          9           0       -0.058118    1.571054    0.000000
      3          9           0        0.009869   -0.146358    1.949640
      4          9           0        0.009869   -0.146358   -1.949640
 ---------------------------------------------------------------------
 Rotational constants (GHZ):      8.9783187      3.4991108      2.5178656
 Standard basis: LANL2DZ (5D, 7F)
 There are    22 symmetry adapted basis functions of A'  symmetry.
 There are    13 symmetry adapted basis functions of A"  symmetry.
 Integral buffers will be    131072 words long.
 Raffenetti 2 integral format.
 Two-electron integral symmetry is turned on.
    35 basis functions,    87 primitive gaussians,    35 cartesian basis functions
    17 alpha electrons       17 beta electrons
       nuclear repulsion energy        95.5640686431 Hartrees.
 NAtoms=    4 NActive=    4 NUniq=    3 SFac= 1.33D+00 NAtFMM=   80 NAOKFM=F Big=F
 One-electron integrals computed using PRISM.
   2 Symmetry operations used in ECPInt.
 ECPInt:  NShTT=     190 NPrTT=    1412 LenC2=     190 LenP2D=    1041.
 LDataN:  DoStor=T MaxTD1= 4 Len=   56
 NBasis=    35 RedAO= T  NBF=    22    13
 NBsUse=    35 1.00D-06 NBFU=    22    13
 Initial guess read from the read-write file.
 B after Tr=     0.000000    0.000000    0.000000
         Rot=    1.000000    0.000000    0.000000    0.000000 Ang=   0.00 deg.
 Initial guess orbital symmetries:
       Occupied  (A') (A") (A') (A') (A") (A') (A') (A") (A') (A')
                 (A") (A') (A") (A') (A") (A') (A')
       Virtual   (A') (A") (A') (A") (A') (A") (A") (A') (A') (A')
                 (A') (A') (A") (A") (A') (A') (A") (A')
 Harris functional with IExCor=  402 diagonalized for initial guess.
 ExpMin= 1.38D-01 ExpMax= 1.00D+04 ExpMxC= 3.50D+02 IAcc=1 IRadAn=         1 AccDes= 0.00D+00
 HarFok:  IExCor=  402 AccDes= 0.00D+00 IRadAn=         1 IDoV= 1
 ScaDFX=  1.000000  1.000000  1.000000  1.000000
 FoFCou: FMM=F IPFlag=           0 FMFlag=      100000 FMFlg1=           0
         NFxFlg=           0 DoJE=T BraDBF=F KetDBF=T FulRan=T
         Omega=  0.000000  0.000000  1.000000  0.000000  0.000000 ICntrl=     500 IOpCl=  0
         NMat0=    1 NMatS0=    1 NMatT0=    0 NMatD0=    1 NMtDS0=    0 NMtDT0=    0
         I1Cent=           4 NGrid=           0.
 Petite list used in FoFCou.
 Requested convergence on RMS density matrix=1.00D-08 within 128 cycles.
 Requested convergence on MAX density matrix=1.00D-06.
 Requested convergence on             energy=1.00D-06.
 No special actions if energy rises.
 Keep R1 ints in memory in canonical form, NReq=1116646.
 Integral accuracy reduced to 1.0D-05 until final iterations.
 Initial convergence to 1.0D-05 achieved.  Increase integral accuracy.
 SCF Done:  E(RB3LYP) =  -312.519927301     A.U. after   17 cycles
             Convg  =    0.2174D-08             -V/T =  2.0342
   2 Symmetry operations used in ECPInt.
 ECPInt:  NShTT=     190 NPrTT=    1412 LenC2=     190 LenP2D=    1041.
 LDataN:  DoStor=T MaxTD1= 5 Len=  102
 Calling FoFJK, ICntrl=      2127 FMM=F ISym2X=1 I1Cent= 0 IOpClX= 0 NMat=1 NMatS=1 NMatT=0.
 ***** Axes restored to original set *****
 -------------------------------------------------------------------
 Center     Atomic                   Forces (Hartrees/Bohr)
 Number     Number              X              Y              Z
 -------------------------------------------------------------------
      1       35          -0.003638816    0.006249815    0.000000000
      2        9           0.003168719   -0.004630435    0.000000000
      3        9           0.000235048   -0.000809690   -0.002871344
      4        9           0.000235048   -0.000809690    0.002871344
 -------------------------------------------------------------------
 Cartesian Forces:  Max     0.006249815 RMS     0.002911097

 GradGradGradGradGradGradGradGradGradGradGradGradGradGradGradGradGradGrad
 Berny optimization.
 Using GEDIIS/GDIIS optimizer.
 Internal  Forces:  Max     0.005609625 RMS     0.002709806
 Search for a local minimum.
 Step number   3 out of a maximum of   20
 All quantities printed in internal units (Hartrees-Bohrs-Radians)
 Mixed Optimization -- RFO/linear search
 Update second derivatives using D2CorX and points    2    3
 DE= -1.90D-02 DEPred=-4.78D-03 R= 3.98D+00
 SS=  1.41D+00  RLast= 6.48D-01 DXNew= 8.4853D-01 1.9433D+00
 Trust test= 3.98D+00 RLast= 6.48D-01 DXMaxT set to 8.49D-01
 The second derivative matrix:
                          R1        R2        R3        A1        A2
           R1           0.30483
           R2          -0.01242   0.28329
           R3          -0.01242  -0.02530   0.28329
           A1          -0.00243  -0.00396  -0.00396   0.24951
           A2          -0.00281  -0.00441  -0.00441  -0.00053   0.24944
           A3          -0.01164  -0.01695  -0.01695  -0.00189  -0.00197
           D1           0.00248   0.00361   0.00361   0.00038   0.00039
                          A3        D1
           A3           0.24349
           D1           0.00139   0.01520
 Use linear search instead of GDIIS.
     Eigenvalues ---    0.01504   0.22023   0.25000   0.27460   0.30859
     Eigenvalues ---    0.310891000.00000
 RFO step:  Lambda=-8.20495783D-05 EMin= 1.50413695D-02
 Quartic linear search produced a step of -0.07139.
 Iteration  1 RMS(Cart)=  0.01349614 RMS(Int)=  0.00047456
 Iteration  2 RMS(Cart)=  0.00028626 RMS(Int)=  0.00040573
 Iteration  3 RMS(Cart)=  0.00000006 RMS(Int)=  0.00040573
 ClnCor:  largest displacement from symmetrization is 1.13D-04 for atom     4.
 Variable       Old X    -DE/DX   Delta X   Delta X   Delta X     New X
                                 (Linear)    (Quad)   (Total)
    R1        3.59234  -0.00561  -0.01421  -0.00767  -0.02188   3.57047
    R2        3.70037  -0.00293  -0.01916   0.00320  -0.01594   3.68443
    R3        3.70037  -0.00293  -0.01916   0.00320  -0.01594   3.68443
    A1        1.47759   0.00067  -0.00274   0.00446   0.00107   1.47866
    A2        1.47759   0.00067  -0.00274   0.00436   0.00107   1.47866
    A3        2.95507   0.00134  -0.00811   0.00854   0.00107   2.95614
    D1        0.03593  -0.00013   0.03349   0.04372   0.07724   0.11316
         Item               Value     Threshold  Converged?
 Maximum Force            0.005610     0.000450     NO 
 RMS     Force            0.002710     0.000300     NO 
 Maximum Displacement     0.019361     0.001800     NO 
 RMS     Displacement     0.013478     0.001200     NO 
 Predicted change in Energy=-4.481043D-05
 GradGradGradGradGradGradGradGradGradGradGradGradGradGradGradGradGradGrad

                          Input orientation:                          
 ---------------------------------------------------------------------
 Center     Atomic      Atomic             Coordinates (Angstroms)
 Number     Number       Type             X           Y           Z
 ---------------------------------------------------------------------
      1         35           0        0.558242    0.585595   -1.509269
      2          9           0       -0.465969    2.173317   -1.509269
      3          9           0        0.478057    0.747344    0.432071
      4          9           0        0.478057    0.747344   -3.450609
 ---------------------------------------------------------------------
                    Distance matrix (angstroms):
                    1          2          3          4
     1  Br   0.000000
     2  F    1.889410   0.000000
     3  F    1.949716   2.587158   0.000000
     4  F    1.949716   2.587158   3.882681   0.000000
 Stoichiometry    BrF3
 Framework group  CS[SG(BrF),X(F2)]
 Deg. of freedom     4
 Full point group                 CS      NOp   2
 Largest Abelian subgroup         CS      NOp   2
 Largest concise Abelian subgroup CS      NOp   2
                         Standard orientation:                         
 ---------------------------------------------------------------------
 Center     Atomic      Atomic             Coordinates (Angstroms)
 Number     Number       Type             X           Y           Z
 ---------------------------------------------------------------------
      1         35           0        0.030840   -0.324943    0.000000
      2          9           0       -0.181611    1.552485    0.000000
      3          9           0        0.030840   -0.144409    1.941340
      4          9           0        0.030840   -0.144409   -1.941340
 ---------------------------------------------------------------------
 Rotational constants (GHZ):      9.0841191      3.5288497      2.5418334
 Standard basis: LANL2DZ (5D, 7F)
 There are    22 symmetry adapted basis functions of A'  symmetry.
 There are    13 symmetry adapted basis functions of A"  symmetry.
 Integral buffers will be    131072 words long.
 Raffenetti 2 integral format.
 Two-electron integral symmetry is turned on.
    35 basis functions,    87 primitive gaussians,    35 cartesian basis functions
    17 alpha electrons       17 beta electrons
       nuclear repulsion energy        96.0178195687 Hartrees.
 NAtoms=    4 NActive=    4 NUniq=    3 SFac= 1.33D+00 NAtFMM=   80 NAOKFM=F Big=F
 One-electron integrals computed using PRISM.
   2 Symmetry operations used in ECPInt.
 ECPInt:  NShTT=     190 NPrTT=    1412 LenC2=     190 LenP2D=    1045.
 LDataN:  DoStor=T MaxTD1= 4 Len=   56
 NBasis=    35 RedAO= T  NBF=    22    13
 NBsUse=    35 1.00D-06 NBFU=    22    13
 Initial guess read from the read-write file.
 B after Tr=     0.000000    0.000000    0.000000
         Rot=    1.000000    0.000000    0.000000    0.000000 Ang=   0.00 deg.
 Initial guess orbital symmetries:
       Occupied  (A') (A") (A') (A') (A') (A") (A') (A') (A") (A')
                 (A") (A') (A') (A") (A") (A') (A')
       Virtual   (A') (A") (A') (A') (A") (A") (A") (A') (A') (A')
                 (A') (A') (A") (A") (A') (A') (A") (A')
 Requested convergence on RMS density matrix=1.00D-08 within 128 cycles.
 Requested convergence on MAX density matrix=1.00D-06.
 Requested convergence on             energy=1.00D-06.
 No special actions if energy rises.
 Keep R1 ints in memory in canonical form, NReq=1116646.
 SCF Done:  E(RB3LYP) =  -312.520005618     A.U. after   10 cycles
             Convg  =    0.8508D-08             -V/T =  2.0341
   2 Symmetry operations used in ECPInt.
 ECPInt:  NShTT=     190 NPrTT=    1412 LenC2=     190 LenP2D=    1045.
 LDataN:  DoStor=T MaxTD1= 5 Len=  102
 Calling FoFJK, ICntrl=      2127 FMM=F ISym2X=1 I1Cent= 0 IOpClX= 0 NMat=1 NMatS=1 NMatT=0.
 ***** Axes restored to original set *****
 -------------------------------------------------------------------
 Center     Atomic                   Forces (Hartrees/Bohr)
 Number     Number              X              Y              Z
 -------------------------------------------------------------------
      1       35          -0.000431554    0.003043866    0.000000000
      2        9           0.001135509   -0.001345421    0.000000000
      3        9          -0.000351978   -0.000849223   -0.000131060
      4        9          -0.000351978   -0.000849223    0.000131060
 -------------------------------------------------------------------
 Cartesian Forces:  Max     0.003043866 RMS     0.001090695

 GradGradGradGradGradGradGradGradGradGradGradGradGradGradGradGradGradGrad
 Berny optimization.
 Using GEDIIS/GDIIS optimizer.
 Internal  Forces:  Max     0.001746879 RMS     0.000960011
 Search for a local minimum.
 Step number   4 out of a maximum of   20
 All quantities printed in internal units (Hartrees-Bohrs-Radians)
 Mixed Optimization -- En-DIIS/RFO-DIIS
 Update second derivatives using D2CorX and points    2    3    4
 DE= -7.83D-05 DEPred=-4.48D-05 R= 1.75D+00
 SS=  1.41D+00  RLast= 8.34D-02 DXNew= 1.4270D+00 2.5019D-01
 Trust test= 1.75D+00 RLast= 8.34D-02 DXMaxT set to 8.49D-01
 The second derivative matrix:
                          R1        R2        R3        A1        A2
           R1           0.26691
           R2          -0.02520   0.28126
           R3          -0.02520  -0.02733   0.28126
           A1           0.00740   0.00137   0.00137   0.24860
           A2           0.00737   0.00110   0.00110  -0.00147   0.24845
           A3           0.01231  -0.00397  -0.00397  -0.00412  -0.00429
           D1           0.01482   0.00970   0.00970  -0.00130  -0.00136
                          A3        D1
           A3           0.23804
           D1          -0.00272   0.01257
 Use linear search instead of GDIIS.
     Eigenvalues ---    0.01062   0.22125   0.23710   0.25001   0.29991
     Eigenvalues ---    0.308591000.00000
 RFO step:  Lambda=-1.14544688D-04 EMin= 1.06156364D-02
 Quartic linear search produced a step of  0.87586.
 Iteration  1 RMS(Cart)=  0.01677438 RMS(Int)=  0.00106005
 Iteration  2 RMS(Cart)=  0.00113206 RMS(Int)=  0.00047888
 Iteration  3 RMS(Cart)=  0.00000091 RMS(Int)=  0.00047888
 ClnCor:  largest displacement from symmetrization is 2.71D-06 for atom     4.
 Variable       Old X    -DE/DX   Delta X   Delta X   Delta X     New X
                                 (Linear)    (Quad)   (Total)
    R1        3.57047  -0.00175  -0.01916   0.00022  -0.01894   3.55152
    R2        3.68443  -0.00019  -0.01396   0.00443  -0.00953   3.67490
    R3        3.68443  -0.00019  -0.01396   0.00443  -0.00953   3.67490
    A1        1.47866   0.00072   0.00093   0.00431   0.00598   1.48464
    A2        1.47866   0.00071   0.00093   0.00430   0.00598   1.48464
    A3        2.95614   0.00145   0.00094   0.00705   0.00727   2.96341
    D1        0.11316  -0.00047   0.06765   0.07710   0.14472   0.25788
         Item               Value     Threshold  Converged?
 Maximum Force            0.001747     0.000450     NO 
 RMS     Force            0.000960     0.000300     NO 
 Maximum Displacement     0.034367     0.001800     NO 
 RMS     Displacement     0.016926     0.001200     NO 
 Predicted change in Energy=-1.443983D-04
 GradGradGradGradGradGradGradGradGradGradGradGradGradGradGradGradGradGrad

                          Input orientation:                          
 ---------------------------------------------------------------------
 Center     Atomic      Atomic             Coordinates (Angstroms)
 Number     Number       Type             X           Y           Z
 ---------------------------------------------------------------------
      1         35           0        0.540056    0.584227   -1.509269
      2          9           0       -0.466729    2.171196   -1.509269
      3          9           0        0.487531    0.749088    0.427694
      4          9           0        0.487531    0.749088   -3.446231
 ---------------------------------------------------------------------
                    Distance matrix (angstroms):
                    1          2          3          4
     1  Br   0.000000
     2  F    1.879385   0.000000
     3  F    1.944675   2.585503   0.000000
     4  F    1.944675   2.585503   3.873925   0.000000
 Stoichiometry    BrF3
 Framework group  CS[SG(BrF),X(F2)]
 Deg. of freedom     4
 Full point group                 CS      NOp   2
 Largest Abelian subgroup         CS      NOp   2
 Largest concise Abelian subgroup CS      NOp   2
                         Standard orientation:                         
 ---------------------------------------------------------------------
 Center     Atomic      Atomic             Coordinates (Angstroms)
 Number     Number       Type             X           Y           Z
 ---------------------------------------------------------------------
      1         35           0        0.069318   -0.314094    0.000000
      2          9           0       -0.408205    1.503613    0.000000
      3          9           0        0.069318   -0.141068    1.936962
      4          9           0        0.069318   -0.141068   -1.936962
 ---------------------------------------------------------------------
 Rotational constants (GHZ):      9.1549794      3.5438039      2.5561882
 Standard basis: LANL2DZ (5D, 7F)
 There are    22 symmetry adapted basis functions of A'  symmetry.
 There are    13 symmetry adapted basis functions of A"  symmetry.
 Integral buffers will be    131072 words long.
 Raffenetti 2 integral format.
 Two-electron integral symmetry is turned on.
    35 basis functions,    87 primitive gaussians,    35 cartesian basis functions
    17 alpha electrons       17 beta electrons
       nuclear repulsion energy        96.2467451510 Hartrees.
 NAtoms=    4 NActive=    4 NUniq=    3 SFac= 1.33D+00 NAtFMM=   80 NAOKFM=F Big=F
 One-electron integrals computed using PRISM.
   2 Symmetry operations used in ECPInt.
 ECPInt:  NShTT=     190 NPrTT=    1412 LenC2=     190 LenP2D=    1045.
 LDataN:  DoStor=T MaxTD1= 4 Len=   56
 NBasis=    35 RedAO= T  NBF=    22    13
 NBsUse=    35 1.00D-06 NBFU=    22    13
 Initial guess read from the read-write file.
 B after Tr=     0.000000    0.000000    0.000000
         Rot=    1.000000    0.000000    0.000000    0.000000 Ang=   0.00 deg.
 Initial guess orbital symmetries:
       Occupied  (A') (A") (A') (A') (A') (A") (A') (A') (A") (A')
                 (A") (A') (A') (A") (A") (A') (A')
       Virtual   (A') (A") (A') (A') (A") (A") (A") (A') (A') (A')
                 (A') (A') (A") (A") (A') (A') (A") (A')
 Harris functional with IExCor=  402 diagonalized for initial guess.
 ExpMin= 1.38D-01 ExpMax= 1.00D+04 ExpMxC= 3.50D+02 IAcc=1 IRadAn=         1 AccDes= 0.00D+00
 HarFok:  IExCor=  402 AccDes= 0.00D+00 IRadAn=         1 IDoV= 1
 ScaDFX=  1.000000  1.000000  1.000000  1.000000
 FoFCou: FMM=F IPFlag=           0 FMFlag=      100000 FMFlg1=           0
         NFxFlg=           0 DoJE=T BraDBF=F KetDBF=T FulRan=T
         Omega=  0.000000  0.000000  1.000000  0.000000  0.000000 ICntrl=     500 IOpCl=  0
         NMat0=    1 NMatS0=    1 NMatT0=    0 NMatD0=    1 NMtDS0=    0 NMtDT0=    0
         I1Cent=           4 NGrid=           0.
 Petite list used in FoFCou.
 Requested convergence on RMS density matrix=1.00D-08 within 128 cycles.
 Requested convergence on MAX density matrix=1.00D-06.
 Requested convergence on             energy=1.00D-06.
 No special actions if energy rises.
 Keep R1 ints in memory in canonical form, NReq=1116646.
 Integral accuracy reduced to 1.0D-05 until final iterations.
 Initial convergence to 1.0D-05 achieved.  Increase integral accuracy.
 SCF Done:  E(RB3LYP) =  -312.519912554     A.U. after   15 cycles
             Convg  =    0.7091D-08             -V/T =  2.0341
   2 Symmetry operations used in ECPInt.
 ECPInt:  NShTT=     190 NPrTT=    1412 LenC2=     190 LenP2D=    1045.
 LDataN:  DoStor=T MaxTD1= 5 Len=  102
 Calling FoFJK, ICntrl=      2127 FMM=F ISym2X=1 I1Cent= 0 IOpClX= 0 NMat=1 NMatS=1 NMatT=0.
 ***** Axes restored to original set *****
 -------------------------------------------------------------------
 Center     Atomic                   Forces (Hartrees/Bohr)
 Number     Number              X              Y              Z
 -------------------------------------------------------------------
      1       35           0.003467634    0.000240282    0.000000000
      2        9          -0.000763340    0.001599100    0.000000000
      3        9          -0.001352147   -0.000919691    0.001717707
      4        9          -0.001352147   -0.000919691   -0.001717707
 -------------------------------------------------------------------
 Cartesian Forces:  Max     0.003467634 RMS     0.001485242

 GradGradGradGradGradGradGradGradGradGradGradGradGradGradGradGradGradGrad
 Berny optimization.
 Using GEDIIS/GDIIS optimizer.
 Internal  Forces:  Max     0.001760552 RMS     0.001381570
 Search for a local minimum.
 Step number   5 out of a maximum of   20
 All quantities printed in internal units (Hartrees-Bohrs-Radians)
 Mixed Optimization -- RFO/linear search
 Update second derivatives using D2CorX and points    2    3    5    4
 DE=  9.31D-05 DEPred=-1.44D-04 R=-6.44D-01
 Trust test=-6.44D-01 RLast= 1.47D-01 DXMaxT set to 4.24D-01
 The second derivative matrix:
                          R1        R2        R3        A1        A2
           R1           0.31493
           R2           0.00217   0.28291
           R3           0.00217  -0.02568   0.28291
           A1           0.01658  -0.00037  -0.00037   0.24290
           A2           0.01618  -0.00089  -0.00089  -0.00717   0.24275
           A3           0.02220  -0.01453  -0.01453  -0.01268  -0.01290
           D1           0.01481   0.00518   0.00518  -0.00719  -0.00716
                          A3        D1
           A3           0.22048
           D1          -0.00988   0.00788
 Use linear search instead of GDIIS.
 Skip linear search -- no minimum in search direction.
 Steepest descent instead of Quadratic search.
 Steepest descent step scaled to max of 0.05000.
 Iteration  1 RMS(Cart)=  0.04744842 RMS(Int)=  0.00362839
 Iteration  2 RMS(Cart)=  0.00243880 RMS(Int)=  0.00009099
 Iteration  3 RMS(Cart)=  0.00003713 RMS(Int)=  0.00008721
 Iteration  4 RMS(Cart)=  0.00000000 RMS(Int)=  0.00008721
 ClnCor:  largest displacement from symmetrization is 8.10D-04 for atom     4.
 Variable       Old X    -DE/DX   Delta X   Delta X   Delta X     New X
                                 (Linear)    (Quad)   (Total)
    R1        3.55152   0.00176   0.00000   0.05000   0.05000   3.60152
    R2        3.67490   0.00167   0.00000   0.04739   0.04762   3.72252
    R3        3.67490   0.00167   0.00000   0.04739   0.04762   3.72252
    A1        1.48464   0.00075   0.00000   0.02123   0.02111   1.50575
    A2        1.48464   0.00072   0.00000   0.02054   0.02111   1.50575
    A3        2.96341   0.00157   0.00000   0.04460   0.04465   3.00805
    D1        0.25788  -0.00107   0.00000  -0.03037  -0.03007   0.22781
         Item               Value     Threshold  Converged?
 Maximum Force            0.001761     0.000450     NO 
 RMS     Force            0.001382     0.000300     NO 
 Maximum Displacement     0.062396     0.001800     NO 
 RMS     Displacement     0.049835     0.001200     NO 
 Predicted change in Energy=-1.009329D-03
 GradGradGradGradGradGradGradGradGradGradGradGradGradGradGradGradGradGrad

                          Input orientation:                          
 ---------------------------------------------------------------------
 Center     Atomic      Atomic             Coordinates (Angstroms)
 Number     Number       Type             X           Y           Z
 ---------------------------------------------------------------------
      1         35           0        0.541721    0.600532   -1.509269
      2          9           0       -0.488057    2.204215   -1.509269
      3          9           0        0.497456    0.724283    0.456215
      4          9           0        0.497456    0.724283   -3.474752
 ---------------------------------------------------------------------
                    Distance matrix (angstroms):
                    1          2          3          4
     1  Br   0.000000
     2  F    1.905844   0.000000
     3  F    1.969873   2.650388   0.000000
     4  F    1.969873   2.650388   3.930967   0.000000
 Stoichiometry    BrF3
 Framework group  CS[SG(BrF),X(F2)]
 Deg. of freedom     4
 Full point group                 CS      NOp   2
 Largest Abelian subgroup         CS      NOp   2
 Largest concise Abelian subgroup CS      NOp   2
                         Standard orientation:                         
 ---------------------------------------------------------------------
 Center     Atomic      Atomic             Coordinates (Angstroms)
 Number     Number       Type             X           Y           Z
 ---------------------------------------------------------------------
      1         35           0        0.062348   -0.307695    0.000000
      2          9           0       -0.367160    1.549121    0.000000
      3          9           0        0.062348   -0.176265    1.965483
      4          9           0        0.062348   -0.176265   -1.965483
 ---------------------------------------------------------------------
 Rotational constants (GHZ):      8.8289200      3.4424077      2.4772949
 Standard basis: LANL2DZ (5D, 7F)
 There are    22 symmetry adapted basis functions of A'  symmetry.
 There are    13 symmetry adapted basis functions of A"  symmetry.
 Integral buffers will be    131072 words long.
 Raffenetti 2 integral format.
 Two-electron integral symmetry is turned on.
    35 basis functions,    87 primitive gaussians,    35 cartesian basis functions
    17 alpha electrons       17 beta electrons
       nuclear repulsion energy        94.5896208525 Hartrees.
 NAtoms=    4 NActive=    4 NUniq=    3 SFac= 1.33D+00 NAtFMM=   80 NAOKFM=F Big=F
 One-electron integrals computed using PRISM.
   2 Symmetry operations used in ECPInt.
 ECPInt:  NShTT=     190 NPrTT=    1412 LenC2=     188 LenP2D=    1037.
 LDataN:  DoStor=T MaxTD1= 4 Len=   56
 NBasis=    35 RedAO= T  NBF=    22    13
 NBsUse=    35 1.00D-06 NBFU=    22    13
 Initial guess read from the read-write file.
 B after Tr=     0.000000    0.000000    0.000000
         Rot=    1.000000    0.000000    0.000000    0.000000 Ang=   0.00 deg.
 Initial guess orbital symmetries:
       Occupied  (A') (A") (A') (A') (A') (A") (A') (A') (A") (A')
                 (A") (A') (A') (A") (A") (A') (A')
       Virtual   (A') (A") (A') (A') (A") (A") (A") (A') (A') (A')
                 (A') (A') (A") (A") (A') (A') (A") (A')
 Harris functional with IExCor=  402 diagonalized for initial guess.
 ExpMin= 1.38D-01 ExpMax= 1.00D+04 ExpMxC= 3.50D+02 IAcc=1 IRadAn=         1 AccDes= 0.00D+00
 HarFok:  IExCor=  402 AccDes= 0.00D+00 IRadAn=         1 IDoV= 1
 ScaDFX=  1.000000  1.000000  1.000000  1.000000
 FoFCou: FMM=F IPFlag=           0 FMFlag=      100000 FMFlg1=           0
         NFxFlg=           0 DoJE=T BraDBF=F KetDBF=T FulRan=T
         Omega=  0.000000  0.000000  1.000000  0.000000  0.000000 ICntrl=     500 IOpCl=  0
         NMat0=    1 NMatS0=    1 NMatT0=    0 NMatD0=    1 NMtDS0=    0 NMtDT0=    0
         I1Cent=           4 NGrid=           0.
 Petite list used in FoFCou.
 Requested convergence on RMS density matrix=1.00D-08 within 128 cycles.
 Requested convergence on MAX density matrix=1.00D-06.
 Requested convergence on             energy=1.00D-06.
 No special actions if energy rises.
 Keep R1 ints in memory in canonical form, NReq=1116646.
 Integral accuracy reduced to 1.0D-05 until final iterations.
 Initial convergence to 1.0D-05 achieved.  Increase integral accuracy.
 SCF Done:  E(RB3LYP) =  -312.519538864     A.U. after   15 cycles
             Convg  =    0.8713D-08             -V/T =  2.0344
   2 Symmetry operations used in ECPInt.
 ECPInt:  NShTT=     190 NPrTT=    1412 LenC2=     188 LenP2D=    1037.
 LDataN:  DoStor=T MaxTD1= 5 Len=  102
 Calling FoFJK, ICntrl=      2127 FMM=F ISym2X=1 I1Cent= 0 IOpClX= 0 NMat=1 NMatS=1 NMatT=0.
 ***** Axes restored to original set *****
 -------------------------------------------------------------------
 Center     Atomic                   Forces (Hartrees/Bohr)
 Number     Number              X              Y              Z
 -------------------------------------------------------------------
      1       35          -0.001953470    0.007288352    0.000000000
      2        9           0.004440081   -0.006813393    0.000000000
      3        9          -0.001243306   -0.000237480   -0.006086193
      4        9          -0.001243306   -0.000237480    0.006086193
 -------------------------------------------------------------------
 Cartesian Forces:  Max     0.007288352 RMS     0.004086162

 GradGradGradGradGradGradGradGradGradGradGradGradGradGradGradGradGradGrad
 Berny optimization.
 Using GEDIIS/GDIIS optimizer.
 Internal  Forces:  Max     0.008130928 RMS     0.004523622
 Search for a local minimum.
 Step number   6 out of a maximum of   20
 All quantities printed in internal units (Hartrees-Bohrs-Radians)
 Mixed Optimization -- RFO/linear search
 Update second derivatives using D2CorX and points    2    3    5    6    4
 The second derivative matrix:
                          R1        R2        R3        A1        A2
           R1           0.27111
           R2          -0.02354   0.27677
           R3          -0.02354  -0.03182   0.27677
           A1          -0.00898  -0.01696  -0.01696   0.23113
           A2          -0.00893  -0.01712  -0.01712  -0.01879   0.23129
           A3          -0.01927  -0.03816  -0.03816  -0.03263  -0.03260
           D1           0.01084   0.00156   0.00156  -0.00907  -0.00899
                          A3        D1
           A3           0.18480
           D1          -0.01209   0.00707
 Use linear search instead of GDIIS.
 Skip linear search -- no minimum in search direction.
 Steepest descent instead of Quadratic search.
 Steepest descent step scaled to max of 0.05000.
 Iteration  1 RMS(Cart)=  0.02863070 RMS(Int)=  0.00007995
 Iteration  2 RMS(Cart)=  0.00006856 RMS(Int)=  0.00000152
 Iteration  3 RMS(Cart)=  0.00000003 RMS(Int)=  0.00000152
 ClnCor:  largest displacement from symmetrization is 6.66D-05 for atom     4.
 Variable       Old X    -DE/DX   Delta X   Delta X   Delta X     New X
                                 (Linear)    (Quad)   (Total)
    R1        3.60152  -0.00813   0.00000  -0.05000  -0.05000   3.55152
    R2        3.72252  -0.00606   0.00000  -0.03727  -0.03725   3.68527
    R3        3.72252  -0.00606   0.00000  -0.03727  -0.03725   3.68527
    A1        1.50575  -0.00073   0.00000  -0.00449  -0.00451   1.50123
    A2        1.50575  -0.00074   0.00000  -0.00455  -0.00451   1.50123
    A3        3.00805  -0.00149   0.00000  -0.00916  -0.00914   2.99891
    D1        0.22781  -0.00062   0.00000  -0.00379  -0.00376   0.22404
         Item               Value     Threshold  Converged?
 Maximum Force            0.008131     0.000450     NO 
 RMS     Force            0.004524     0.000300     NO 
 Maximum Displacement     0.038328     0.001800     NO 
 RMS     Displacement     0.028596     0.001200     NO 
 Predicted change in Energy=-1.381228D-04
 GradGradGradGradGradGradGradGradGradGradGradGradGradGradGradGradGradGrad

                          Input orientation:                          
 ---------------------------------------------------------------------
 Center     Atomic      Atomic             Coordinates (Angstroms)
 Number     Number       Type             X           Y           Z
 ---------------------------------------------------------------------
      1         35           0        0.539377    0.602435   -1.509269
      2          9           0       -0.475077    2.184513   -1.509269
      3          9           0        0.492146    0.733171    0.435932
      4          9           0        0.492146    0.733171   -3.454470
 ---------------------------------------------------------------------
                    Distance matrix (angstroms):
                    1          2          3          4
     1  Br   0.000000
     2  F    1.879385   0.000000
     3  F    1.950162   2.612608   0.000000
     4  F    1.950162   2.612608   3.890402   0.000000
 Stoichiometry    BrF3
 Framework group  CS[SG(BrF),X(F2)]
 Deg. of freedom     4
 Full point group                 CS      NOp   2
 Largest Abelian subgroup         CS      NOp   2
 Largest concise Abelian subgroup CS      NOp   2
                         Standard orientation:                         
 ---------------------------------------------------------------------
 Center     Atomic      Atomic             Coordinates (Angstroms)
 Number     Number       Type             X           Y           Z
 ---------------------------------------------------------------------
      1         35           0        0.060466   -0.306385    0.000000
      2          9           0       -0.356075    1.526258    0.000000
      3          9           0        0.060466   -0.167379    1.945201
      4          9           0        0.060466   -0.167379   -1.945201
 ---------------------------------------------------------------------
 Rotational constants (GHZ):      9.0982422      3.5145088      2.5358444
 Standard basis: LANL2DZ (5D, 7F)
 There are    22 symmetry adapted basis functions of A'  symmetry.
 There are    13 symmetry adapted basis functions of A"  symmetry.
 Integral buffers will be    131072 words long.
 Raffenetti 2 integral format.
 Two-electron integral symmetry is turned on.
    35 basis functions,    87 primitive gaussians,    35 cartesian basis functions
    17 alpha electrons       17 beta electrons
       nuclear repulsion energy        95.7594341722 Hartrees.
 NAtoms=    4 NActive=    4 NUniq=    3 SFac= 1.33D+00 NAtFMM=   80 NAOKFM=F Big=F
 One-electron integrals computed using PRISM.
   2 Symmetry operations used in ECPInt.
 ECPInt:  NShTT=     190 NPrTT=    1412 LenC2=     190 LenP2D=    1041.
 LDataN:  DoStor=T MaxTD1= 4 Len=   56
 NBasis=    35 RedAO= T  NBF=    22    13
 NBsUse=    35 1.00D-06 NBFU=    22    13
 Initial guess read from the read-write file.
 B after Tr=     0.000000    0.000000    0.000000
         Rot=    1.000000    0.000000    0.000000    0.000000 Ang=   0.00 deg.
 Initial guess orbital symmetries:
       Occupied  (A') (A") (A') (A') (A') (A") (A') (A') (A") (A')
                 (A") (A') (A') (A") (A") (A') (A')
       Virtual   (A') (A") (A') (A') (A") (A") (A") (A') (A') (A')
                 (A') (A") (A') (A") (A') (A') (A") (A')
 Harris functional with IExCor=  402 diagonalized for initial guess.
 ExpMin= 1.38D-01 ExpMax= 1.00D+04 ExpMxC= 3.50D+02 IAcc=1 IRadAn=         1 AccDes= 0.00D+00
 HarFok:  IExCor=  402 AccDes= 0.00D+00 IRadAn=         1 IDoV= 1
 ScaDFX=  1.000000  1.000000  1.000000  1.000000
 FoFCou: FMM=F IPFlag=           0 FMFlag=      100000 FMFlg1=           0
         NFxFlg=           0 DoJE=T BraDBF=F KetDBF=T FulRan=T
         Omega=  0.000000  0.000000  1.000000  0.000000  0.000000 ICntrl=     500 IOpCl=  0
         NMat0=    1 NMatS0=    1 NMatT0=    0 NMatD0=    1 NMtDS0=    0 NMtDT0=    0
         I1Cent=           4 NGrid=           0.
 Petite list used in FoFCou.
 Requested convergence on RMS density matrix=1.00D-08 within 128 cycles.
 Requested convergence on MAX density matrix=1.00D-06.
 Requested convergence on             energy=1.00D-06.
 No special actions if energy rises.
 Keep R1 ints in memory in canonical form, NReq=1116646.
 Integral accuracy reduced to 1.0D-05 until final iterations.
 Initial convergence to 1.0D-05 achieved.  Increase integral accuracy.
 SCF Done:  E(RB3LYP) =  -312.519962547     A.U. after   14 cycles
             Convg  =    0.6722D-08             -V/T =  2.0341
   2 Symmetry operations used in ECPInt.
 ECPInt:  NShTT=     190 NPrTT=    1412 LenC2=     190 LenP2D=    1041.
 LDataN:  DoStor=T MaxTD1= 5 Len=  102
 Calling FoFJK, ICntrl=      2127 FMM=F ISym2X=1 I1Cent= 0 IOpClX= 0 NMat=1 NMatS=1 NMatT=0.
 ***** Axes restored to original set *****
 -------------------------------------------------------------------
 Center     Atomic                   Forces (Hartrees/Bohr)
 Number     Number              X              Y              Z
 -------------------------------------------------------------------
      1       35           0.003238263   -0.000858338    0.000000000
      2        9          -0.000521789    0.001001473    0.000000000
      3        9          -0.001358237   -0.000071568    0.000086303
      4        9          -0.001358237   -0.000071568   -0.000086303
 -------------------------------------------------------------------
 Cartesian Forces:  Max     0.003238263 RMS     0.001162363

 GradGradGradGradGradGradGradGradGradGradGradGradGradGradGradGradGradGrad
 Berny optimization.
 Using GEDIIS/GDIIS optimizer.
 Internal  Forces:  Max     0.001125792 RMS     0.000664979
 Search for a local minimum.
 Step number   7 out of a maximum of   20
 All quantities printed in internal units (Hartrees-Bohrs-Radians)
 Mixed Optimization -- En-DIIS/RFO-DIIS
 Update second derivatives using D2CorX and points    2    3    5    6    7
                                                      4
 The second derivative matrix:
                          R1        R2        R3        A1        A2
           R1           0.23180
           R2          -0.03333   0.26477
           R3          -0.03333  -0.04382   0.26477
           A1           0.00760  -0.00722  -0.00722   0.22089
           A2           0.00781  -0.00738  -0.00738  -0.02908   0.22096
           A3           0.02037  -0.01928  -0.01928  -0.05441  -0.05453
           D1           0.00320   0.00034   0.00034  -0.00599  -0.00587
                          A3        D1
           A3           0.13537
           D1          -0.00470   0.00671
 Use linear search instead of GDIIS.
 Quartic linear search produced a step of -0.68617.
 Iteration  1 RMS(Cart)=  0.01971075 RMS(Int)=  0.00499487
 Iteration  2 RMS(Cart)=  0.00139354 RMS(Int)=  0.00001328
 Iteration  3 RMS(Cart)=  0.00000837 RMS(Int)=  0.00001188
 Iteration  4 RMS(Cart)=  0.00000000 RMS(Int)=  0.00001188
 ClnCor:  largest displacement from symmetrization is 6.29D-09 for atom     2.
 Variable       Old X    -DE/DX   Delta X   Delta X   Delta X     New X
                                 (Linear)    (Quad)   (Total)
    R1        3.55152   0.00113   0.01300   0.00000   0.01300   3.56452
    R2        3.68527   0.00011  -0.00058   0.00000  -0.00058   3.68469
    R3        3.68527   0.00011  -0.00058   0.00000  -0.00058   3.68469
    A1        1.50123  -0.00047  -0.01549   0.00000  -0.01551   1.48572
    A2        1.50123  -0.00048  -0.01549   0.00000  -0.01551   1.48572
    A3        2.99891  -0.00094  -0.02935   0.00000  -0.02933   2.96958
    D1        0.22404  -0.00068  -0.07608   0.00000  -0.07608   0.14796
         Item               Value     Threshold  Converged?
 Maximum Force            0.001126     0.000450     NO 
 RMS     Force            0.000665     0.000300     NO 
 Maximum Displacement     0.023591     0.001800     NO 
 RMS     Displacement     0.019951     0.001200     NO 
 Predicted change in Energy=-1.064809D-05
 GradGradGradGradGradGradGradGradGradGradGradGradGradGradGradGradGradGrad

                          Input orientation:                          
 ---------------------------------------------------------------------
 Center     Atomic      Atomic             Coordinates (Angstroms)
 Number     Number       Type             X           Y           Z
 ---------------------------------------------------------------------
      1         35           0        0.551861    0.590478   -1.509269
      2          9           0       -0.469031    2.176596   -1.509269
      3          9           0        0.482881    0.743108    0.433380
      4          9           0        0.482881    0.743108   -3.451918
 ---------------------------------------------------------------------
                    Distance matrix (angstroms):
                    1          2          3          4
     1  Br   0.000000
     2  F    1.886264   0.000000
     3  F    1.949856   2.595170   0.000000
     4  F    1.949856   2.595170   3.885298   0.000000
 Stoichiometry    BrF3
 Framework group  CS[SG(BrF),X(F2)]
 Deg. of freedom     4
 Full point group                 CS      NOp   2
 Largest Abelian subgroup         CS      NOp   2
 Largest concise Abelian subgroup CS      NOp   2
                         Standard orientation:                         
 ---------------------------------------------------------------------
 Center     Atomic      Atomic             Coordinates (Angstroms)
 Number     Number       Type             X           Y           Z
 ---------------------------------------------------------------------
      1         35           0        0.040220   -0.319470    0.000000
      2          9           0       -0.236850    1.546334    0.000000
      3          9           0        0.040220   -0.151976    1.942649
      4          9           0        0.040220   -0.151976   -1.942649
 ---------------------------------------------------------------------
 Rotational constants (GHZ):      9.0902647      3.5239705      2.5399126
 Standard basis: LANL2DZ (5D, 7F)
 There are    22 symmetry adapted basis functions of A'  symmetry.
 There are    13 symmetry adapted basis functions of A"  symmetry.
 Integral buffers will be    131072 words long.
 Raffenetti 2 integral format.
 Two-electron integral symmetry is turned on.
    35 basis functions,    87 primitive gaussians,    35 cartesian basis functions
    17 alpha electrons       17 beta electrons
       nuclear repulsion energy        95.9350568283 Hartrees.
 NAtoms=    4 NActive=    4 NUniq=    3 SFac= 1.33D+00 NAtFMM=   80 NAOKFM=F Big=F
 One-electron integrals computed using PRISM.
   2 Symmetry operations used in ECPInt.
 ECPInt:  NShTT=     190 NPrTT=    1412 LenC2=     190 LenP2D=    1041.
 LDataN:  DoStor=T MaxTD1= 4 Len=   56
 NBasis=    35 RedAO= T  NBF=    22    13
 NBsUse=    35 1.00D-06 NBFU=    22    13
 Initial guess read from the read-write file.
 B after Tr=     0.000000    0.000000    0.000000
         Rot=    1.000000    0.000000    0.000000    0.000000 Ang=   0.00 deg.
 Initial guess orbital symmetries:
       Occupied  (A') (A") (A') (A') (A') (A") (A') (A') (A") (A')
                 (A") (A') (A') (A") (A") (A') (A')
       Virtual   (A') (A") (A') (A') (A") (A") (A") (A') (A') (A')
                 (A') (A') (A") (A") (A') (A') (A") (A')
 Harris functional with IExCor=  402 diagonalized for initial guess.
 ExpMin= 1.38D-01 ExpMax= 1.00D+04 ExpMxC= 3.50D+02 IAcc=1 IRadAn=         1 AccDes= 0.00D+00
 HarFok:  IExCor=  402 AccDes= 0.00D+00 IRadAn=         1 IDoV= 1
 ScaDFX=  1.000000  1.000000  1.000000  1.000000
 FoFCou: FMM=F IPFlag=           0 FMFlag=      100000 FMFlg1=           0
         NFxFlg=           0 DoJE=T BraDBF=F KetDBF=T FulRan=T
         Omega=  0.000000  0.000000  1.000000  0.000000  0.000000 ICntrl=     500 IOpCl=  0
         NMat0=    1 NMatS0=    1 NMatT0=    0 NMatD0=    1 NMtDS0=    0 NMtDT0=    0
         I1Cent=           4 NGrid=           0.
 Petite list used in FoFCou.
 Requested convergence on RMS density matrix=1.00D-08 within 128 cycles.
 Requested convergence on MAX density matrix=1.00D-06.
 Requested convergence on             energy=1.00D-06.
 No special actions if energy rises.
 Keep R1 ints in memory in canonical form, NReq=1116646.
 Integral accuracy reduced to 1.0D-05 until final iterations.
 Initial convergence to 1.0D-05 achieved.  Increase integral accuracy.
 SCF Done:  E(RB3LYP) =  -312.520008523     A.U. after   14 cycles
             Convg  =    0.4316D-08             -V/T =  2.0341
   2 Symmetry operations used in ECPInt.
 ECPInt:  NShTT=     190 NPrTT=    1412 LenC2=     190 LenP2D=    1041.
 LDataN:  DoStor=T MaxTD1= 5 Len=  102
 Calling FoFJK, ICntrl=      2127 FMM=F ISym2X=1 I1Cent= 0 IOpClX= 0 NMat=1 NMatS=1 NMatT=0.
 ***** Axes restored to original set *****
 -------------------------------------------------------------------
 Center     Atomic                   Forces (Hartrees/Bohr)
 Number     Number              X              Y              Z
 -------------------------------------------------------------------
      1       35           0.000765103    0.001893219    0.000000000
      2        9           0.000654897   -0.000672209    0.000000000
      3        9          -0.000710000   -0.000610505   -0.000080678
      4        9          -0.000710000   -0.000610505    0.000080678
 -------------------------------------------------------------------
 Cartesian Forces:  Max     0.001893219 RMS     0.000753717

 GradGradGradGradGradGradGradGradGradGradGradGradGradGradGradGradGradGrad
 Berny optimization.
 Using GEDIIS/GDIIS optimizer.
 Internal  Forces:  Max     0.000919958 RMS     0.000503949
 Search for a local minimum.
 Step number   8 out of a maximum of   20
 All quantities printed in internal units (Hartrees-Bohrs-Radians)
 Mixed Optimization -- En-DIIS/RFO-DIIS
 Swaping is turned off.
 Update second derivatives using D2CorX and points    2    3    5    6    4
                                                      7    8
 The second derivative matrix:
                          R1        R2        R3        A1        A2
           R1           0.22621
           R2          -0.03064   0.26074
           R3          -0.03064  -0.04785   0.26074
           A1           0.00702  -0.00589  -0.00589   0.21985
           A2           0.00728  -0.00608  -0.00608  -0.03010   0.21995
           A3           0.02206  -0.01715  -0.01715  -0.05599  -0.05611
           D1           0.00080  -0.00065  -0.00065  -0.00561  -0.00549
                          A3        D1
           A3           0.13102
           D1          -0.00291   0.00501
     Eigenvalues ---    0.00418   0.06991   0.17590   0.25000   0.26991
     Eigenvalues ---    0.308591000.00000
 En-DIIS/RFO-DIIS IScMMF=        0 using points:     8    7
 RFO step:  Lambda=-8.22246511D-06.
 DIIS coeffs:      1.03264     -0.03264
 Iteration  1 RMS(Cart)=  0.01202309 RMS(Int)=  0.00048582
 Iteration  2 RMS(Cart)=  0.00059594 RMS(Int)=  0.00024823
 Iteration  3 RMS(Cart)=  0.00000019 RMS(Int)=  0.00024823
 ClnCor:  largest displacement from symmetrization is 3.40D-05 for atom     4.
 Variable       Old X    -DE/DX   Delta X   Delta X   Delta X     New X
                                  (DIIS)     (GDIIS)  (Total)
    R1        3.56452  -0.00092   0.00042  -0.00452  -0.00409   3.56043
    R2        3.68469  -0.00010  -0.00002  -0.00135  -0.00138   3.68331
    R3        3.68469  -0.00010  -0.00002  -0.00135  -0.00138   3.68331
    A1        1.48572   0.00031  -0.00051  -0.00037  -0.00049   1.48524
    A2        1.48572   0.00030  -0.00051  -0.00034  -0.00049   1.48524
    A3        2.96958   0.00063  -0.00096   0.00215   0.00080   2.97038
    D1        0.14796  -0.00057  -0.00248  -0.11239  -0.11488   0.03308
         Item               Value     Threshold  Converged?
 Maximum Force            0.000920     0.000450     NO 
 RMS     Force            0.000504     0.000300     NO 
 Maximum Displacement     0.020561     0.001800     NO 
 RMS     Displacement     0.011955     0.001200     NO 
 Predicted change in Energy=-3.468112D-05
 GradGradGradGradGradGradGradGradGradGradGradGradGradGradGradGradGradGrad

                          Input orientation:                          
 ---------------------------------------------------------------------
 Center     Atomic      Atomic             Coordinates (Angstroms)
 Number     Number       Type             X           Y           Z
 ---------------------------------------------------------------------
      1         35           0        0.562742    0.597597   -1.509269
      2          9           0       -0.466809    2.175523   -1.509269
      3          9           0        0.476326    0.740091    0.432719
      4          9           0        0.476326    0.740091   -3.451256
 ---------------------------------------------------------------------
                    Distance matrix (angstroms):
                    1          2          3          4
     1  Br   0.000000
     2  F    1.884098   0.000000
     3  F    1.949125   2.592544   0.000000
     4  F    1.949125   2.592544   3.883975   0.000000
 Stoichiometry    BrF3
 Framework group  CS[SG(BrF),X(F2)]
 Deg. of freedom     4
 Full point group                 CS      NOp   2
 Largest Abelian subgroup         CS      NOp   2
 Largest concise Abelian subgroup CS      NOp   2
                         Standard orientation:                         
 ---------------------------------------------------------------------
 Center     Atomic      Atomic             Coordinates (Angstroms)
 Number     Number       Type             X           Y           Z
 ---------------------------------------------------------------------
      1         35           0        0.009013   -0.321732    0.000000
      2          9           0       -0.053074    1.561343    0.000000
      3          9           0        0.009013   -0.155082    1.941987
      4          9           0        0.009013   -0.155082   -1.941987
 ---------------------------------------------------------------------
 Rotational constants (GHZ):      9.1156806      3.5267517      2.5429445
 Standard basis: LANL2DZ (5D, 7F)
 There are    22 symmetry adapted basis functions of A'  symmetry.
 There are    13 symmetry adapted basis functions of A"  symmetry.
 Integral buffers will be    131072 words long.
 Raffenetti 2 integral format.
 Two-electron integral symmetry is turned on.
    35 basis functions,    87 primitive gaussians,    35 cartesian basis functions
    17 alpha electrons       17 beta electrons
       nuclear repulsion energy        96.0054297162 Hartrees.
 NAtoms=    4 NActive=    4 NUniq=    3 SFac= 1.33D+00 NAtFMM=   80 NAOKFM=F Big=F
 One-electron integrals computed using PRISM.
   2 Symmetry operations used in ECPInt.
 ECPInt:  NShTT=     190 NPrTT=    1412 LenC2=     190 LenP2D=    1041.
 LDataN:  DoStor=T MaxTD1= 4 Len=   56
 NBasis=    35 RedAO= T  NBF=    22    13
 NBsUse=    35 1.00D-06 NBFU=    22    13
 Initial guess read from the read-write file.
 B after Tr=     0.000000    0.000000    0.000000
         Rot=    1.000000    0.000000    0.000000    0.000000 Ang=   0.00 deg.
 Initial guess orbital symmetries:
       Occupied  (A') (A") (A') (A') (A') (A") (A') (A') (A") (A')
                 (A") (A') (A') (A") (A") (A') (A')
       Virtual   (A') (A") (A') (A') (A") (A") (A") (A') (A') (A')
                 (A') (A') (A") (A") (A') (A') (A") (A')
 Harris functional with IExCor=  402 diagonalized for initial guess.
 ExpMin= 1.38D-01 ExpMax= 1.00D+04 ExpMxC= 3.50D+02 IAcc=1 IRadAn=         1 AccDes= 0.00D+00
 HarFok:  IExCor=  402 AccDes= 0.00D+00 IRadAn=         1 IDoV= 1
 ScaDFX=  1.000000  1.000000  1.000000  1.000000
 FoFCou: FMM=F IPFlag=           0 FMFlag=      100000 FMFlg1=           0
         NFxFlg=           0 DoJE=T BraDBF=F KetDBF=T FulRan=T
         Omega=  0.000000  0.000000  1.000000  0.000000  0.000000 ICntrl=     500 IOpCl=  0
         NMat0=    1 NMatS0=    1 NMatT0=    0 NMatD0=    1 NMtDS0=    0 NMtDT0=    0
         I1Cent=           4 NGrid=           0.
 Petite list used in FoFCou.
 Requested convergence on RMS density matrix=1.00D-08 within 128 cycles.
 Requested convergence on MAX density matrix=1.00D-06.
 Requested convergence on             energy=1.00D-06.
 No special actions if energy rises.
 Keep R1 ints in memory in canonical form, NReq=1116646.
 Integral accuracy reduced to 1.0D-05 until final iterations.
 Initial convergence to 1.0D-05 achieved.  Increase integral accuracy.
 SCF Done:  E(RB3LYP) =  -312.520088341     A.U. after   14 cycles
             Convg  =    0.2201D-08             -V/T =  2.0341
   2 Symmetry operations used in ECPInt.
 ECPInt:  NShTT=     190 NPrTT=    1412 LenC2=     190 LenP2D=    1041.
 LDataN:  DoStor=T MaxTD1= 5 Len=  102
 Calling FoFJK, ICntrl=      2127 FMM=F ISym2X=1 I1Cent= 0 IOpClX= 0 NMat=1 NMatS=1 NMatT=0.
 ***** Axes restored to original set *****
 -------------------------------------------------------------------
 Center     Atomic                   Forces (Hartrees/Bohr)
 Number     Number              X              Y              Z
 -------------------------------------------------------------------
      1       35           0.000062594    0.000452679    0.000000000
      2        9           0.000102260    0.000043164    0.000000000
      3        9          -0.000082427   -0.000247921    0.000157445
      4        9          -0.000082427   -0.000247921   -0.000157445
 -------------------------------------------------------------------
 Cartesian Forces:  Max     0.000452679 RMS     0.000184222

 GradGradGradGradGradGradGradGradGradGradGradGradGradGradGradGradGradGrad
 Berny optimization.
 Using GEDIIS/GDIIS optimizer.
 Internal  Forces:  Max     0.000445153 RMS     0.000223724
 Search for a local minimum.
 Step number   9 out of a maximum of   20
 All quantities printed in internal units (Hartrees-Bohrs-Radians)
 Mixed Optimization -- En-DIIS/RFO-DIIS
 Swaping is turned off.
 Update second derivatives using D2CorX and points    3    5    6    4    7
                                                      8    9
 DE= -7.98D-05 DEPred=-3.47D-05 R= 2.30D+00
 SS=  1.41D+00  RLast= 1.15D-01 DXNew= 7.1352D-01 3.4493D-01
 Trust test= 2.30D+00 RLast= 1.15D-01 DXMaxT set to 4.24D-01
 The second derivative matrix:
[...]
 NAtoms=    4 NActive=    4 NUniq=    3 SFac= 1.33D+00 NAtFMM=   80 NAOKFM=F Big=F
 One-electron integrals computed using PRISM.
   2 Symmetry operations used in ECPInt.
 ECPInt:  NShTT=     190 NPrTT=    1412 LenC2=     190 LenP2D=    1041.
 LDataN:  DoStor=T MaxTD1= 4 Len=   56
 NBasis=    35 RedAO= T  NBF=    22    13
 NBsUse=    35 1.00D-06 NBFU=    22    13
 Initial guess read from the read-write file.
 B after Tr=     0.000000    0.000000    0.000000
         Rot=    1.000000    0.000000    0.000000    0.000000 Ang=   0.00 deg.
 Initial guess orbital symmetries:
       Occupied  (A') (A") (A') (A') (A') (A") (A') (A') (A") (A')
                 (A") (A') (A') (A") (A") (A') (A')
       Virtual   (A') (A") (A') (A') (A") (A") (A") (A') (A') (A')
                 (A') (A') (A") (A") (A') (A') (A") (A')
 Requested convergence on RMS density matrix=1.00D-08 within 128 cycles.
 Requested convergence on MAX density matrix=1.00D-06.
 Requested convergence on             energy=1.00D-06.
 No special actions if energy rises.
 Keep R1 ints in memory in canonical form, NReq=1116646.
 SCF Done:  E(RB3LYP) =  -312.520096214     A.U. after    9 cycles
             Convg  =    0.9765D-08             -V/T =  2.0341
   2 Symmetry operations used in ECPInt.
 ECPInt:  NShTT=     190 NPrTT=    1412 LenC2=     190 LenP2D=    1041.
 LDataN:  DoStor=T MaxTD1= 5 Len=  102
 Calling FoFJK, ICntrl=      2127 FMM=F ISym2X=1 I1Cent= 0 IOpClX= 0 NMat=1 NMatS=1 NMatT=0.
 ***** Axes restored to original set *****
 -------------------------------------------------------------------
 Center     Atomic                   Forces (Hartrees/Bohr)
 Number     Number              X              Y              Z
 -------------------------------------------------------------------
      1       35           0.000100583    0.000048633    0.000000000
      2        9           0.000029747    0.000035695    0.000000000
      3        9          -0.000065165   -0.000042164   -0.000033887
      4        9          -0.000065165   -0.000042164    0.000033887
 -------------------------------------------------------------------
 Cartesian Forces:  Max     0.000100583 RMS     0.000049148

 GradGradGradGradGradGradGradGradGradGradGradGradGradGradGradGradGradGrad
 Berny optimization.
 Using GEDIIS/GDIIS optimizer.
 Internal  Forces:  Max     0.000041010 RMS     0.000024498
 Search for a local minimum.
 Step number  10 out of a maximum of   20
 All quantities printed in internal units (Hartrees-Bohrs-Radians)
 Mixed Optimization -- En-DIIS/RFO-DIIS
 Swaping is turned off.
 Update second derivatives using D2CorX and points    3    5    6    4    7
                                                      8    9   10
 DE= -7.87D-06 DEPred=-3.63D-06 R= 2.17D+00
 SS=  1.41D+00  RLast= 2.18D-02 DXNew= 7.1352D-01 6.5336D-02
 Trust test= 2.17D+00 RLast= 2.18D-02 DXMaxT set to 4.24D-01
 The second derivative matrix:
                          R1        R2        R3        A1        A2
           R1           0.22893
           R2          -0.02854   0.26352
           R3          -0.02854  -0.04507   0.26352
           A1           0.01071  -0.00480  -0.00480   0.21635
           A2           0.01085  -0.00498  -0.00498  -0.03348   0.21669
           A3           0.02211  -0.01479  -0.01479  -0.05790  -0.05790
           D1           0.00067   0.00026   0.00026  -0.00140  -0.00136
                          A3        D1
           A3           0.13372
           D1           0.00033   0.00320
     Eigenvalues ---    0.00318   0.06671   0.18300   0.25000   0.27065
     Eigenvalues ---    0.308591000.00000
 En-DIIS/RFO-DIIS IScMMF=        0 using points:    10    9    8    7
 RFO step:  Lambda=-3.54685333D-08.
 DIIS coeffs:      1.03321      0.04420     -0.04972     -0.02769
 Iteration  1 RMS(Cart)=  0.00120834 RMS(Int)=  0.00004073
 Iteration  2 RMS(Cart)=  0.00000702 RMS(Int)=  0.00003780
 Iteration  3 RMS(Cart)=  0.00000000 RMS(Int)=  0.00003780
 ClnCor:  largest displacement from symmetrization is 2.51D-06 for atom     4.
 Variable       Old X    -DE/DX   Delta X   Delta X   Delta X     New X
                                  (DIIS)     (GDIIS)  (Total)
    R1        3.55972   0.00001   0.00002   0.00009   0.00011   3.55982
    R2        3.68465  -0.00003  -0.00008  -0.00011  -0.00018   3.68447
    R3        3.68465  -0.00003  -0.00008  -0.00011  -0.00018   3.68447
    A1        1.48855   0.00000  -0.00036   0.00003  -0.00027   1.48828
    A2        1.48855   0.00000  -0.00036   0.00003  -0.00027   1.48828
    A3        2.97709  -0.00001  -0.00053   0.00006  -0.00053   2.97656
    D1        0.01300  -0.00004  -0.01167  -0.00002  -0.01169   0.00131
         Item               Value     Threshold  Converged?
 Maximum Force            0.000041     0.000450     YES
 RMS     Force            0.000024     0.000300     YES
 Maximum Displacement     0.002291     0.001800     NO 
 RMS     Displacement     0.001210     0.001200     NO 
 Predicted change in Energy=-2.661352D-07
 GradGradGradGradGradGradGradGradGradGradGradGradGradGradGradGradGradGrad

                          Input orientation:                          
 ---------------------------------------------------------------------
 Center     Atomic      Atomic             Coordinates (Angstroms)
 Number     Number       Type             X           Y           Z
 ---------------------------------------------------------------------
      1         35           0        0.564111    0.602085   -1.509269
      2          9           0       -0.468004    2.177951   -1.509269
      3          9           0        0.476238    0.736635    0.433833
      4          9           0        0.476238    0.736635   -3.452371
 ---------------------------------------------------------------------
                    Distance matrix (angstroms):
                    1          2          3          4
     1  Br   0.000000
     2  F    1.883777   0.000000
     3  F    1.949736   2.597043   0.000000
     4  F    1.949736   2.597043   3.886204   0.000000
 Stoichiometry    BrF3
 Framework group  CS[SG(BrF),X(F2)]
 Deg. of freedom     4
 Full point group                 CS      NOp   2
 Largest Abelian subgroup         CS      NOp   2
 Largest concise Abelian subgroup CS      NOp   2
                         Standard orientation:                         
 ---------------------------------------------------------------------
 Center     Atomic      Atomic             Coordinates (Angstroms)
 Number     Number       Type             X           Y           Z
 ---------------------------------------------------------------------
      1         35           0        0.000356   -0.320107    0.000000
      2          9           0       -0.002098    1.563668    0.000000
      3          9           0        0.000356   -0.159404    1.943102
      4          9           0        0.000356   -0.159404   -1.943102
 ---------------------------------------------------------------------
 Rotational constants (GHZ):      9.1083367      3.5227256      2.5402591
 Standard basis: LANL2DZ (5D, 7F)
 There are    22 symmetry adapted basis functions of A'  symmetry.
 There are    13 symmetry adapted basis functions of A"  symmetry.
 Integral buffers will be    131072 words long.
 Raffenetti 2 integral format.
 Two-electron integral symmetry is turned on.
    35 basis functions,    87 primitive gaussians,    35 cartesian basis functions
    17 alpha electrons       17 beta electrons
       nuclear repulsion energy        95.9340998833 Hartrees.
 NAtoms=    4 NActive=    4 NUniq=    3 SFac= 1.33D+00 NAtFMM=   80 NAOKFM=F Big=F
 One-electron integrals computed using PRISM.
   2 Symmetry operations used in ECPInt.
 ECPInt:  NShTT=     190 NPrTT=    1412 LenC2=     190 LenP2D=    1041.
 LDataN:  DoStor=T MaxTD1= 4 Len=   56
 NBasis=    35 RedAO= T  NBF=    22    13
 NBsUse=    35 1.00D-06 NBFU=    22    13
 Initial guess read from the read-write file.
 B after Tr=     0.000000    0.000000    0.000000
         Rot=    1.000000    0.000000    0.000000    0.000000 Ang=   0.00 deg.
 Initial guess orbital symmetries:
       Occupied  (A') (A") (A') (A') (A') (A") (A') (A') (A") (A')
                 (A") (A') (A') (A") (A") (A') (A')
       Virtual   (A') (A") (A') (A') (A") (A") (A") (A') (A') (A')
                 (A') (A') (A") (A") (A') (A') (A") (A')
 Requested convergence on RMS density matrix=1.00D-08 within 128 cycles.
 Requested convergence on MAX density matrix=1.00D-06.
 Requested convergence on             energy=1.00D-06.
 No special actions if energy rises.
 Keep R1 ints in memory in canonical form, NReq=1116646.
 SCF Done:  E(RB3LYP) =  -312.520097233     A.U. after    8 cycles
             Convg  =    0.7173D-08             -V/T =  2.0341
   2 Symmetry operations used in ECPInt.
 ECPInt:  NShTT=     190 NPrTT=    1412 LenC2=     190 LenP2D=    1041.
 LDataN:  DoStor=T MaxTD1= 5 Len=  102
 Calling FoFJK, ICntrl=      2127 FMM=F ISym2X=1 I1Cent= 0 IOpClX= 0 NMat=1 NMatS=1 NMatT=0.
 ***** Axes restored to original set *****
 -------------------------------------------------------------------
 Center     Atomic                   Forces (Hartrees/Bohr)
 Number     Number              X              Y              Z
 -------------------------------------------------------------------
      1       35           0.000000035    0.000020273    0.000000000
      2        9           0.000000277    0.000007809    0.000000000
      3        9          -0.000000156   -0.000014041   -0.000006135
      4        9          -0.000000156   -0.000014041    0.000006135
 -------------------------------------------------------------------
 Cartesian Forces:  Max     0.000020273 RMS     0.000008858

 GradGradGradGradGradGradGradGradGradGradGradGradGradGradGradGradGradGrad
 Berny optimization.
 Using GEDIIS/GDIIS optimizer.
 Internal  Forces:  Max     0.000027324 RMS     0.000013511
 Search for a local minimum.
 Step number  11 out of a maximum of   20
 All quantities printed in internal units (Hartrees-Bohrs-Radians)
 Mixed Optimization -- En-DIIS/RFO-DIIS
 Swaping is turned off.
 Update second derivatives using D2CorX and points    5    6    4    7    8
                                                      9   10   11
 DE= -1.02D-06 DEPred=-2.66D-07 R= 3.83D+00
 SS=  1.41D+00  RLast= 1.17D-02 DXNew= 7.1352D-01 3.5136D-02
 Trust test= 3.83D+00 RLast= 1.17D-02 DXMaxT set to 4.24D-01
 The second derivative matrix:
                          R1        R2        R3        A1        A2
           R1           0.22962
           R2          -0.02783   0.26265
           R3          -0.02783  -0.04594   0.26265
           A1           0.01055  -0.00394  -0.00394   0.21568
           A2           0.01069  -0.00415  -0.00415  -0.03413   0.21605
           A3           0.02201  -0.01537  -0.01537  -0.05753  -0.05755
           D1           0.00086  -0.00051  -0.00051   0.00002   0.00003
                          A3        D1
           A3           0.13329
           D1           0.00015   0.00317
     Eigenvalues ---    0.00317   0.06655   0.18328   0.25000   0.26922
     Eigenvalues ---    0.308591000.00000
 En-DIIS/RFO-DIIS IScMMF=        0 using points:    11   10    9    8    7
 RFO step:  Lambda= 0.00000000D+00.
 DIIS coeffs:      2.03808     -0.98493     -0.12801      0.04227      0.03260
 Iteration  1 RMS(Cart)=  0.00056082 RMS(Int)=  0.00003704
 Iteration  2 RMS(Cart)=  0.00000227 RMS(Int)=  0.00003701
 Iteration  3 RMS(Cart)=  0.00000000 RMS(Int)=  0.00003701
 ClnCor:  largest displacement from symmetrization is 2.68D-06 for atom     4.
 Variable       Old X    -DE/DX   Delta X   Delta X   Delta X     New X
                                  (DIIS)     (GDIIS)  (Total)
    R1        3.55982   0.00001  -0.00005   0.00000  -0.00005   3.55978
    R2        3.68447  -0.00001   0.00000   0.00000   0.00000   3.68447
    R3        3.68447  -0.00001   0.00000   0.00000   0.00000   3.68447
    A1        1.48828   0.00001   0.00044   0.00000   0.00038   1.48866
    A2        1.48828   0.00001   0.00044   0.00000   0.00038   1.48866
    A3        2.97656   0.00003   0.00070   0.00000   0.00076   2.97732
    D1        0.00131   0.00000  -0.00212   0.00000  -0.00212  -0.00082
         Item               Value     Threshold  Converged?
 Maximum Force            0.000027     0.000450     YES
 RMS     Force            0.000014     0.000300     YES
 Maximum Displacement     0.000832     0.001800     YES
 RMS     Displacement     0.000563     0.001200     YES
 Predicted change in Energy=-2.085889D-09
 Optimization completed.
    -- Stationary point found.
                           ----------------------------
                           !   Optimized Parameters   !
                           ! (Angstroms and Degrees)  !
 --------------------------                            --------------------------
 ! Name  Definition              Value          Derivative Info.                !
 --------------------------------------------------------------------------------
 ! R1    R(1,2)                  1.8838         -DE/DX =    0.0                 !
 ! R2    R(1,3)                  1.9497         -DE/DX =    0.0                 !
 ! R3    R(1,4)                  1.9497         -DE/DX =    0.0                 !
 ! A1    A(2,1,3)               85.2722         -DE/DX =    0.0                 !
 ! A2    A(2,1,4)               85.2722         -DE/DX =    0.0                 !
 ! A3    A(3,1,4)              170.5443         -DE/DX =    0.0                 !
 ! D1    D(2,1,4,3)              0.0749         -DE/DX =    0.0                 !
 --------------------------------------------------------------------------------
 GradGradGradGradGradGradGradGradGradGradGradGradGradGradGradGradGradGrad

                          Input orientation:                          
 ---------------------------------------------------------------------
 Center     Atomic      Atomic             Coordinates (Angstroms)
 Number     Number       Type             X           Y           Z
 ---------------------------------------------------------------------
      1         35           0        0.564111    0.602085   -1.509269
      2          9           0       -0.468004    2.177951   -1.509269
      3          9           0        0.476238    0.736635    0.433833
      4          9           0        0.476238    0.736635   -3.452371
 ---------------------------------------------------------------------
                    Distance matrix (angstroms):
                    1          2          3          4
     1  Br   0.000000
     2  F    1.883777   0.000000
     3  F    1.949736   2.597043   0.000000
     4  F    1.949736   2.597043   3.886204   0.000000
 Stoichiometry    BrF3
 Framework group  CS[SG(BrF),X(F2)]
 Deg. of freedom     4
 Full point group                 CS      NOp   2
 Largest Abelian subgroup         CS      NOp   2
 Largest concise Abelian subgroup CS      NOp   2
                         Standard orientation:                         
 ---------------------------------------------------------------------
 Center     Atomic      Atomic             Coordinates (Angstroms)
 Number     Number       Type             X           Y           Z
 ---------------------------------------------------------------------
      1         35           0        0.000356   -0.320107    0.000000
      2          9           0       -0.002098    1.563668    0.000000
      3          9           0        0.000356   -0.159404    1.943102
      4          9           0        0.000356   -0.159404   -1.943102
 ---------------------------------------------------------------------
 Rotational constants (GHZ):      9.1083367      3.5227256      2.5402591

 **********************************************************************

            Population analysis using the SCF density.

 **********************************************************************

 Orbital symmetries:
       Occupied  (A') (A") (A') (A') (A') (A") (A') (A') (A") (A')
                 (A") (A') (A') (A") (A") (A') (A')
       Virtual   (A') (A") (A') (A') (A") (A") (A") (A') (A') (A')
                 (A') (A') (A") (A") (A') (A') (A") (A')
 The electronic state is 1-A'.
 Alpha  occ. eigenvalues --  -24.77848 -24.71172 -24.71172  -1.24230  -1.16837
 Alpha  occ. eigenvalues --   -1.16635  -0.88912  -0.56530  -0.56130  -0.51220
 Alpha  occ. eigenvalues --   -0.46786  -0.44299  -0.41862  -0.41476  -0.40740
 Alpha  occ. eigenvalues --   -0.39386  -0.36541
 Alpha virt. eigenvalues --   -0.22815  -0.15319   0.37515   0.41134   0.42220
 Alpha virt. eigenvalues --    0.64565   0.76878   0.77551   0.81113   0.86182
 Alpha virt. eigenvalues --    0.86447   0.92003   0.92329   1.02000   1.32226
 Alpha virt. eigenvalues --    1.42106   1.77481  18.24637
          Condensed to atoms (all electrons):
              1          2          3          4
     1  Br   5.786854   0.041729   0.012397   0.012397
     2  F    0.041729   9.293766  -0.019120  -0.019120
     3  F    0.012397  -0.019120   9.430441   0.000966
     4  F    0.012397  -0.019120   0.000966   9.430441
 Mulliken atomic charges:
              1
     1  Br   1.146623
     2  F   -0.297255
     3  F   -0.424684
     4  F   -0.424684
 Sum of Mulliken atomic charges =   0.00000
 Mulliken charges with hydrogens summed into heavy atoms:
              1
     1  Br   1.146623
     2  F   -0.297255
     3  F   -0.424684
     4  F   -0.424684
 Sum of Mulliken charges with hydrogens summed into heavy atoms =   0.00000
 Electronic spatial extent (au):  <R**2>=            398.4276
 Charge=              0.0000 electrons
 Dipole moment (field-independent basis, Debye):
    X=              0.0022    Y=             -2.2695    Z=              0.0000  Tot=              2.2695
 Quadrupole moment (field-independent basis, Debye-Ang):
   XX=            -28.6198   YY=            -28.8777   ZZ=            -40.6283
   XY=              0.0008   XZ=              0.0000   YZ=              0.0000
 Traceless Quadrupole moment (field-independent basis, Debye-Ang):
   XX=              4.0888   YY=              3.8309   ZZ=             -7.9197
   XY=              0.0008   XZ=              0.0000   YZ=              0.0000
 Octapole moment (field-independent basis, Debye-Ang**2):
  XXX=              0.0053  YYY=            -11.3326  ZZZ=              0.0000  XYY=              0.0097
  XXY=             -1.7036  XXZ=              0.0000  XZZ=             -0.0017  YZZ=             -0.5133
  YYZ=              0.0000  XYZ=              0.0000
 Hexadecapole moment (field-independent basis, Debye-Ang**3):
 XXXX=            -26.4629 YYYY=           -105.1475 ZZZZ=           -304.5411 XXXY=              0.0530
 XXXZ=              0.0000 YYYX=              0.0530 YYYZ=              0.0000 ZZZX=              0.0000
 ZZZY=              0.0000 XXYY=            -21.9937 XXZZ=            -47.4151 YYZZ=            -60.3210
 XXYZ=              0.0000 YYXZ=              0.0000 ZZXY=              0.0177
 N-N= 9.593409988333D+01 E-N=-9.330727699056D+02  KE= 3.022097953899D+02
 Symmetry A'   KE= 1.970122922867D+02
 Symmetry A"   KE= 1.051975031032D+02
 1\1\GINC-CX1-7-36-1\FOpt\RB3LYP\LANL2DZ\Br1F3\SCAN-USER-1\15-Mar-2010\
 0\\# opt b3lyp/lanl2dz geom=connectivity\\BrF3 Optimisation\\0,1\Br,0.
 5641110712,0.6020848416,-1.5092687586\F,-0.4680041898,2.1779508828,-1.
 5092687582\F,0.4762377073,0.7366347035,0.4338334205\F,0.4762377063,0.7
 366347039,-3.4523709377\\Version=EM64L-G09RevA.02\State=1-A'\HF=-312.5
 200972\RMSD=7.173e-09\RMSF=8.858e-06\Dipole=0.4889562,-0.7471285,0.\Qu
 adrupole=2.9820749,2.9060205,-5.8880953,0.08801,0.,0.\PG=CS [SG(Br1F1)
 ,X(F2)]\\@


 WAR ES EIN GOTT DER DIESE ZEICHEN SCHRIEB?
          - LUDWIG BOLTZMANN, QUOTING GOETHE, ABOUT MAXWELL'S EQUATIONS.
 Job cpu time:  0 days  0 hours  0 minutes 54.1 seconds.
 File lengths (MBytes):  RWF=      5 Int=      0 D2E=      0 Chk=      1 Scr=      1
 Normal termination of Gaussian 09 at Mon Mar 15 14:09:31 2010.
