 Entering Gaussian System, Link 0=g03
 Initial command:
 /apps/gaussian/g09/g09/l1.exe /home/scan-user-1/run/26159/Gau-7875.inp -scrdir=/home/scan-user-1/run/26159/
 Entering Link 1 = /apps/gaussian/g09/g09/l1.exe PID=      7876.
  
 Copyright (c) 1988,1990,1992,1993,1995,1998,2003,2009, Gaussian, Inc.
                  All Rights Reserved.
  
 This is part of the Gaussian(R) 09 program.  It is based on
 the Gaussian(R) 03 system (copyright 2003, Gaussian, Inc.),
 the Gaussian(R) 98 system (copyright 1998, Gaussian, Inc.),
 the Gaussian(R) 94 system (copyright 1995, Gaussian, Inc.),
 the Gaussian 92(TM) system (copyright 1992, Gaussian, Inc.),
 the Gaussian 90(TM) system (copyright 1990, Gaussian, Inc.),
 the Gaussian 88(TM) system (copyright 1988, Gaussian, Inc.),
 the Gaussian 86(TM) system (copyright 1986, Carnegie Mellon
 University), and the Gaussian 82(TM) system (copyright 1983,
 Carnegie Mellon University). Gaussian is a federally registered
 trademark of Gaussian, Inc.
  
 This software contains proprietary and confidential information,
 including trade secrets, belonging to Gaussian, Inc.
  
 This software is provided under written license and may be
 used, copied, transmitted, or stored only in accord with that
 written license.
  
 The following legend is applicable only to US Government
 contracts under FAR:
  
                    RESTRICTED RIGHTS LEGEND
  
 Use, reproduction and disclosure by the US Government is
 subject to restrictions as set forth in subparagraphs (a)
 and (c) of the Commercial Computer Software - Restricted
 Rights clause in FAR 52.227-19.
  
 Gaussian, Inc.
 340 Quinnipiac St., Bldg. 40, Wallingford CT 06492
  
  
 ---------------------------------------------------------------
 Warning -- This program may not be used in any manner that
 competes with the business of Gaussian, Inc. or will provide
 assistance to any competitor of Gaussian, Inc.  The licensee
 of this program is prohibited from giving any competitor of
 Gaussian, Inc. access to this program.  By using this program,
 the user acknowledges that Gaussian, Inc. is engaged in the
 business of creating and licensing software in the field of
 computational chemistry and represents and warrants to the
 licensee that it is not a competitor of Gaussian, Inc. and that
 it will not use this program in any manner prohibited above.
 ---------------------------------------------------------------
  

 Cite this work as:
 Gaussian 09, Revision A.02,
 M. J. Frisch, G. W. Trucks, H. B. Schlegel, G. E. Scuseria, 
 M. A. Robb, J. R. Cheeseman, G. Scalmani, V. Barone, B. Mennucci, 
 G. A. Petersson, H. Nakatsuji, M. Caricato, X. Li, H. P. Hratchian, 
 A. F. Izmaylov, J. Bloino, G. Zheng, J. L. Sonnenberg, M. Hada, 
 M. Ehara, K. Toyota, R. Fukuda, J. Hasegawa, M. Ishida, T. Nakajima, 
 Y. Honda, O. Kitao, H. Nakai, T. Vreven, J. A. Montgomery, Jr., 
 J. E. Peralta, F. Ogliaro, M. Bearpark, J. J. Heyd, E. Brothers, 
 K. N. Kudin, V. N. Staroverov, R. Kobayashi, J. Normand, 
 K. Raghavachari, A. Rendell, J. C. Burant, S. S. Iyengar, J. Tomasi, 
 M. Cossi, N. Rega, J. M. Millam, M. Klene, J. E. Knox, J. B. Cross, 
 V. Bakken, C. Adamo, J. Jaramillo, R. Gomperts, R. E. Stratmann, 
 O. Yazyev, A. J. Austin, R. Cammi, C. Pomelli, J. W. Ochterski, 
 R. L. Martin, K. Morokuma, V. G. Zakrzewski, G. A. Voth, 
 P. Salvador, J. J. Dannenberg, S. Dapprich, A. D. Daniels, 
 O. Farkas, J. B. Foresman, J. V. Ortiz, J. Cioslowski, 
 and D. J. Fox, Gaussian, Inc., Wallingford CT, 2009.
 
 ******************************************
 Gaussian 09:  EM64L-G09RevA.02 11-Jun-2009
                15-Mar-2010 
 ******************************************
 %nprocshared=4
 Will use up to    4 processors via shared memory.
 %mem=7000MB
 %NoSave
 %Chk=chk.chk
 %rwf=/tmp/pbs.3645967.cx1/rwf
 -------------------------------------
 # opt b3lyp/lanl2dz geom=connectivity
 -------------------------------------
 1/14=-1,18=20,19=15,26=3,38=1,57=2/1,3;
 2/9=110,12=2,17=6,18=5,40=1/2;
 3/5=6,6=3,11=2,16=1,25=1,30=1,71=1,74=-5/1,2,3;
 4//1;
 5/5=2,38=5/2;
 6/7=2,8=2,9=2,10=2,28=1/1;
 7//1,2,3,16;
 1/14=-1,18=20,19=15/3(2);
 2/9=110/2;
 99//99;
 2/9=110/2;
 3/5=6,6=3,11=2,16=1,25=1,30=1,71=1,74=-5/1,2,3;
 4/5=5,16=3/1;
 5/5=2,38=5/2;
 7//1,2,3,16;
 1/14=-1,18=20,19=15/3(-5);
 2/9=110/2;
 6/7=2,8=2,9=2,10=2,19=2,28=1/1;
 99/9=1/99;
 ----------------
 IF3 Optimisation
 ----------------
 Symbolic Z-matrix:
 Charge =  0 Multiplicity = 1
 I                    -0.14652   1.00733   0. 
 F                    -0.27117   0.79142   1.89366 
 F                    -1.10061  -0.64521   0.08331 
 F                    -0.22975   0.86316  -1.90273 
 

 GradGradGradGradGradGradGradGradGradGradGradGradGradGradGradGradGradGrad
 Berny optimization.
 Initialization pass.
                           ----------------------------
                           !    Initial Parameters    !
                           ! (Angstroms and Degrees)  !
 --------------------------                            --------------------------
 ! Name  Definition              Value          Derivative Info.                !
 --------------------------------------------------------------------------------
 ! R1    R(1,2)                  1.91           estimate D2E/DX2                !
 ! R2    R(1,3)                  1.91           estimate D2E/DX2                !
 ! R3    R(1,4)                  1.91           estimate D2E/DX2                !
 ! A1    A(2,1,3)               80.0            estimate D2E/DX2                !
 ! A2    A(2,1,4)              167.5            estimate D2E/DX2                !
 ! A3    A(3,1,4)               87.5            estimate D2E/DX2                !
 ! D1    D(2,1,4,3)              0.0            estimate D2E/DX2                !
 --------------------------------------------------------------------------------
 Trust Radius=3.00D-01 FncErr=1.00D-07 GrdErr=1.00D-06
 Number of steps in this run=  20 maximum allowed number of steps= 100.
 GradGradGradGradGradGradGradGradGradGradGradGradGradGradGradGradGradGrad

                          Input orientation:                          
 ---------------------------------------------------------------------
 Center     Atomic      Atomic             Coordinates (Angstroms)
 Number     Number       Type             X           Y           Z
 ---------------------------------------------------------------------
      1         53           0       -0.146520    1.007326    0.000000
      2          9           0       -0.271173    0.791422    1.893660
      3          9           0       -1.100611   -0.645208    0.083313
      4          9           0       -0.229754    0.863161   -1.902732
 ---------------------------------------------------------------------
                    Distance matrix (angstroms):
                    1          2          3          4
     1  I    0.000000
     2  F    1.910000   0.000000
     3  F    1.910000   2.455449   0.000000
     4  F    1.910000   3.797295   2.641580   0.000000
 Stoichiometry    F3I
 Framework group  CS[SG(F3I)]
 Deg. of freedom     5
 Full point group                 CS      NOp   2
 Largest Abelian subgroup         CS      NOp   2
 Largest concise Abelian subgroup C1      NOp   1
                         Standard orientation:                         
 ---------------------------------------------------------------------
 Center     Atomic      Atomic             Coordinates (Angstroms)
 Number     Number       Type             X           Y           Z
 ---------------------------------------------------------------------
      1         53           0        0.000000    0.261578    0.000000
      2          9           0       -1.884734   -0.048063    0.000000
      3          9           0       -0.022343   -1.648291    0.000000
      4          9           0        1.907077    0.155949    0.000000
 ---------------------------------------------------------------------
 Rotational constants (GHZ):      8.4410024      3.6770564      2.5613048
 Standard basis: LANL2DZ (5D, 7F)
 There are    27 symmetry adapted basis functions of A'  symmetry.
 There are     8 symmetry adapted basis functions of A"  symmetry.
 Integral buffers will be    131072 words long.
 Raffenetti 2 integral format.
 Two-electron integral symmetry is turned on.
    35 basis functions,    87 primitive gaussians,    35 cartesian basis functions
    17 alpha electrons       17 beta electrons
       nuclear repulsion energy        97.3343058517 Hartrees.



 Warning!  I  atom    1 may be hypervalent but has no d functions.



 NAtoms=    4 NActive=    4 NUniq=    4 SFac= 7.50D-01 NAtFMM=   80 NAOKFM=F Big=F
 One-electron integrals computed using PRISM.
   1 Symmetry operations used in ECPInt.
 ECPInt:  NShTT=     190 NPrTT=    1412 LenC2=     189 LenP2D=    1050.
 LDataN:  DoStor=T MaxTD1= 4 Len=   56
 NBasis=    35 RedAO= T  NBF=    27     8
 NBsUse=    35 1.00D-06 NBFU=    27     8
 Defaulting to unpruned grid for atomic number  53.
 Harris functional with IExCor=  402 diagonalized for initial guess.
 ExpMin= 1.05D-01 ExpMax= 1.00D+04 ExpMxC= 3.50D+02 IAcc=1 IRadAn=         1 AccDes= 0.00D+00
 HarFok:  IExCor=  402 AccDes= 0.00D+00 IRadAn=         1 IDoV= 1
 ScaDFX=  1.000000  1.000000  1.000000  1.000000
 Defaulting to unpruned grid for atomic number  53.
 Defaulting to unpruned grid for atomic number  53.
 Defaulting to unpruned grid for atomic number  53.
 Defaulting to unpruned grid for atomic number  53.
 FoFCou: FMM=F IPFlag=           0 FMFlag=      100000 FMFlg1=           0
         NFxFlg=           0 DoJE=T BraDBF=F KetDBF=T FulRan=T
         Omega=  0.000000  0.000000  1.000000  0.000000  0.000000 ICntrl=     500 IOpCl=  0
         NMat0=    1 NMatS0=    1 NMatT0=    0 NMatD0=    1 NMtDS0=    0 NMtDT0=    0
         I1Cent=           4 NGrid=           0.
 Petite list used in FoFCou.
 Initial guess orbital symmetries:
       Occupied  (A') (A') (A') (A') (A') (A') (A') (A') (A') (A')
                 (A") (A") (A') (A") (A') (A') (A")
       Virtual   (A') (A') (A') (A') (A") (A') (A") (A") (A') (A")
                 (A') (A') (A') (A') (A') (A') (A') (A')
 The electronic state of the initial guess is 1-A'.
 Requested convergence on RMS density matrix=1.00D-08 within 128 cycles.
 Requested convergence on MAX density matrix=1.00D-06.
 Requested convergence on             energy=1.00D-06.
 No special actions if energy rises.
 Keep R1 ints in memory in canonical form, NReq=1122925.
 Integral accuracy reduced to 1.0D-05 until final iterations.
 Defaulting to unpruned grid for atomic number  53.
 Defaulting to unpruned grid for atomic number  53.
 Defaulting to unpruned grid for atomic number  53.
 Defaulting to unpruned grid for atomic number  53.
 Initial convergence to 1.0D-05 achieved.  Increase integral accuracy.
 SCF Done:  E(RB3LYP) =  -310.800409704     A.U. after   16 cycles
             Convg  =    0.5996D-08             -V/T =  2.0302

 **********************************************************************

            Population analysis using the SCF density.

 **********************************************************************

 Orbital symmetries:
       Occupied  (A') (A') (A') (A') (A') (A') (A') (A') (A') (A")
                 (A') (A") (A') (A") (A') (A') (A")
       Virtual   (A') (A') (A') (A") (A') (A') (A") (A") (A') (A")
                 (A') (A') (A') (A') (A') (A') (A') (A')
 The electronic state is 1-A'.
 Alpha  occ. eigenvalues --  -24.74222 -24.70074 -24.69143  -1.24029  -1.19215
 Alpha  occ. eigenvalues --   -1.18011  -0.78559  -0.54859  -0.53870  -0.49891
 Alpha  occ. eigenvalues --   -0.46191  -0.43689  -0.42758  -0.42159  -0.40680
 Alpha  occ. eigenvalues --   -0.38564  -0.32248
 Alpha virt. eigenvalues --   -0.16407  -0.07077   0.30143   0.31050   0.32672
 Alpha virt. eigenvalues --    0.64343   0.75096   0.78162   0.81441   0.85628
 Alpha virt. eigenvalues --    0.86164   0.92400   0.93213   1.03430   1.36711
 Alpha virt. eigenvalues --    1.46621   1.76364   9.59185
          Condensed to atoms (all electrons):
              1          2          3          4
     1  I    5.527037  -0.036004   0.051056  -0.042883
     2  F   -0.036004   9.595947  -0.025833   0.001261
     3  F    0.051056  -0.025833   9.429248  -0.017632
     4  F   -0.042883   0.001261  -0.017632   9.587837
 Mulliken atomic charges:
              1
     1  I    1.500794
     2  F   -0.535372
     3  F   -0.436839
     4  F   -0.528583
 Sum of Mulliken atomic charges =   0.00000
 Mulliken charges with hydrogens summed into heavy atoms:
              1
     1  I    1.500794
     2  F   -0.535372
     3  F   -0.436839
     4  F   -0.528583
 Sum of Mulliken charges with hydrogens summed into heavy atoms =   0.00000
 Electronic spatial extent (au):  <R**2>=            405.2917
 Charge=              0.0000 electrons
 Dipole moment (field-independent basis, Debye):
    X=              0.0889    Y=              3.1435    Z=              0.0000  Tot=              3.1448
 Quadrupole moment (field-independent basis, Debye-Ang):
   XX=            -46.2407   YY=            -34.3406   ZZ=            -32.8505
   XY=             -0.8911   XZ=              0.0000   YZ=              0.0000
 Traceless Quadrupole moment (field-independent basis, Debye-Ang):
   XX=             -8.4301   YY=              3.4700   ZZ=              4.9601
   XY=             -0.8911   XZ=              0.0000   YZ=              0.0000
 Octapole moment (field-independent basis, Debye-Ang**2):
  XXX=             -0.2592  YYY=             19.4294  ZZZ=              0.0000  XYY=             -0.0155
  XXY=              3.4429  XXZ=              0.0000  XZZ=              0.0260  YZZ=              2.6154
  YYZ=              0.0000  XYZ=              0.0000
 Hexadecapole moment (field-independent basis, Debye-Ang**3):
 XXXX=           -317.4091 YYYY=           -129.6574 ZZZZ=            -38.5616 XXXY=             -9.7116
 XXXZ=              0.0000 YYYX=             -6.5277 YYYZ=              0.0000 ZZZX=              0.0000
 ZZZY=              0.0000 XXYY=            -62.5670 XXZZ=            -48.8325 YYZZ=            -26.7135
 XXYZ=              0.0000 YYXZ=              0.0000 ZZXY=             -2.1855
 N-N= 9.733430585175D+01 E-N=-9.324493248335D+02  KE= 3.016760607879D+02
 Symmetry A'   KE= 2.815450287263D+02
 Symmetry A"   KE= 2.013103206169D+01
   2 Symmetry operations used in ECPInt.
 ECPInt:  NShTT=     190 NPrTT=    1412 LenC2=     189 LenP2D=    1050.
 LDataN:  DoStor=T MaxTD1= 5 Len=  102
 Calling FoFJK, ICntrl=      2127 FMM=F ISym2X=1 I1Cent= 0 IOpClX= 0 NMat=1 NMatS=1 NMatT=0.
 Defaulting to unpruned grid for atomic number  53.
 Defaulting to unpruned grid for atomic number  53.
 Defaulting to unpruned grid for atomic number  53.
 Defaulting to unpruned grid for atomic number  53.
 ***** Axes restored to original set *****
 -------------------------------------------------------------------
 Center     Atomic                   Forces (Hartrees/Bohr)
 Number     Number              X              Y              Z
 -------------------------------------------------------------------
      1       53           0.022778549    0.039453605    0.006836152
      2        9          -0.002087702   -0.003616006    0.054562258
      3        9          -0.015276581   -0.026459813   -0.007820376
      4        9          -0.005414267   -0.009377785   -0.053578034
 -------------------------------------------------------------------
 Cartesian Forces:  Max     0.054562258 RMS     0.027536601

 GradGradGradGradGradGradGradGradGradGradGradGradGradGradGradGradGradGrad
 Berny optimization.
 Internal  Forces:  Max     0.054635236 RMS     0.032539586
 Search for a local minimum.
 Step number   1 out of a maximum of   20
 All quantities printed in internal units (Hartrees-Bohrs-Radians)
 Mixed Optimization -- RFO/linear search
 Second derivative matrix not updated -- first step.
 The second derivative matrix:
                          R1        R2        R3        A1        A2
           R1           0.23225
           R2           0.00000   0.23225
           R3           0.00000   0.00000   0.23225
           A1           0.00000   0.00000   0.00000   0.25000
           A2           0.00000   0.00000   0.00000   0.00000   0.25000
           A3           0.00000   0.00000   0.00000   0.00000   0.00000
           D1           0.00000   0.00000   0.00000   0.00000   0.00000
                          A3        D1
           A3           0.25000
           D1           0.00000   0.00230
     Eigenvalues ---    0.00230   0.23225   0.23225   0.23225   0.25000
     Eigenvalues ---    0.250001000.00000
 RFO step:  Lambda=-2.83074992D-02 EMin= 2.30000000D-03
 Linear search not attempted -- first point.
 Maximum step size (   0.300) exceeded in Quadratic search.
    -- Step size scaled by   0.912
 Iteration  1 RMS(Cart)=  0.11733333 RMS(Int)=  0.00146313
 Iteration  2 RMS(Cart)=  0.00246753 RMS(Int)=  0.00000171
 Iteration  3 RMS(Cart)=  0.00000165 RMS(Int)=  0.00000000
 New curvilinear step failed, DQL= 1.49D-08 SP=-1.69D-03.
 Iteration  1 RMS(Cart)=  0.10562993 RMS(Int)=  0.00118917
 Iteration  2 RMS(Cart)=  0.00199825 RMS(Int)=  0.00000112
 Iteration  3 RMS(Cart)=  0.00000109 RMS(Int)=  0.00000000
 New curvilinear step failed, DQL= 2.58D-08 SP=-4.54D-03.
 Iteration  1 RMS(Cart)=  0.09391982 RMS(Int)=  0.00094280
 Iteration  2 RMS(Cart)=  0.00157852 RMS(Int)=  0.00000070
 Iteration  3 RMS(Cart)=  0.00000068 RMS(Int)=  0.00000000
 ClnCor:  largest displacement from symmetrization is 8.85D-11 for atom     1.
 Variable       Old X    -DE/DX   Delta X   Delta X   Delta X     New X
                                 (Linear)    (Quad)   (Total)
    R1        3.60938   0.05464   0.00000   0.19129   0.15303   3.76241
    R2        3.60938   0.03018   0.00000   0.10568   0.08454   3.69392
    R3        3.60938   0.05432   0.00000   0.19019   0.15216   3.76153
    A1        1.39626   0.01460   0.00000   0.04785   0.03828   1.43454
    A2        2.92343  -0.00377   0.00000  -0.01237  -0.00989   2.91353
    A3        1.52716  -0.01837   0.00000  -0.06021  -0.04817   1.47899
    D1        0.00000   0.00000   0.00000   0.00000   0.00000   0.00000
         Item               Value     Threshold  Converged?
 Maximum Force            0.054635     0.000450     NO 
 RMS     Force            0.032540     0.000300     NO 
 Maximum Displacement     0.181103     0.001800     NO 
 RMS     Displacement     0.094432     0.001200     NO 
 Predicted change in Energy=-1.393572D-02
 GradGradGradGradGradGradGradGradGradGradGradGradGradGradGradGradGradGrad

                          Input orientation:                          
 ---------------------------------------------------------------------
 Center     Atomic      Atomic             Coordinates (Angstroms)
 Number     Number       Type             X           Y           Z
 ---------------------------------------------------------------------
      1         53           0       -0.136063    1.025438    0.013954
      2          9           0       -0.259793    0.811132    1.989495
      3          9           0       -1.113365   -0.667299    0.036714
      4          9           0       -0.238837    0.847428   -1.965922
 ---------------------------------------------------------------------
                    Distance matrix (angstroms):
                    1          2          3          4
     1  I    0.000000
     2  F    1.990980   0.000000
     3  F    1.954737   2.593781   0.000000
     4  F    1.990517   3.955640   2.658900   0.000000
 Stoichiometry    F3I
 Framework group  CS[SG(F3I)]
 Deg. of freedom     5
 Full point group                 CS      NOp   2
 Largest Abelian subgroup         CS      NOp   2
 Largest concise Abelian subgroup C1      NOp   1
                         Standard orientation:                         
 ---------------------------------------------------------------------
 Center     Atomic      Atomic             Coordinates (Angstroms)
 Number     Number       Type             X           Y           Z
 ---------------------------------------------------------------------
      1         53           0        0.000000    0.270864    0.000000
      2          9           0       -1.973590    0.008294    0.000000
      3          9           0       -0.007801   -1.683857    0.000000
      4          9           0        1.981391    0.080474    0.000000
 ---------------------------------------------------------------------
 Rotational constants (GHZ):      8.0080060      3.3988743      2.3861218
 Standard basis: LANL2DZ (5D, 7F)
 There are    27 symmetry adapted basis functions of A'  symmetry.
 There are     8 symmetry adapted basis functions of A"  symmetry.
 Integral buffers will be    131072 words long.
 Raffenetti 2 integral format.
 Two-electron integral symmetry is turned on.
    35 basis functions,    87 primitive gaussians,    35 cartesian basis functions
    17 alpha electrons       17 beta electrons
       nuclear repulsion energy        94.0303118685 Hartrees.



 Warning!  I  atom    1 may be hypervalent but has no d functions.



 NAtoms=    4 NActive=    4 NUniq=    4 SFac= 7.50D-01 NAtFMM=   80 NAOKFM=F Big=F
 One-electron integrals computed using PRISM.
   1 Symmetry operations used in ECPInt.
 ECPInt:  NShTT=     190 NPrTT=    1412 LenC2=     189 LenP2D=    1036.
 LDataN:  DoStor=T MaxTD1= 4 Len=   56
 NBasis=    35 RedAO= T  NBF=    27     8
 NBsUse=    35 1.00D-06 NBFU=    27     8
 Defaulting to unpruned grid for atomic number  53.
 Initial guess read from the read-write file.
 B after Tr=     0.000000    0.000000    0.000000
         Rot=    1.000000    0.000000    0.000000    0.000000 Ang=   0.00 deg.
 Initial guess orbital symmetries:
       Occupied  (A') (A') (A') (A') (A') (A') (A') (A') (A') (A")
                 (A') (A") (A') (A") (A') (A') (A")
       Virtual   (A') (A') (A') (A") (A') (A') (A") (A") (A') (A")
                 (A') (A') (A') (A') (A') (A') (A') (A')
 Harris functional with IExCor=  402 diagonalized for initial guess.
 ExpMin= 1.05D-01 ExpMax= 1.00D+04 ExpMxC= 3.50D+02 IAcc=1 IRadAn=         1 AccDes= 0.00D+00
 HarFok:  IExCor=  402 AccDes= 0.00D+00 IRadAn=         1 IDoV= 1
 ScaDFX=  1.000000  1.000000  1.000000  1.000000
 Defaulting to unpruned grid for atomic number  53.
 Defaulting to unpruned grid for atomic number  53.
 Defaulting to unpruned grid for atomic number  53.
 Defaulting to unpruned grid for atomic number  53.
 FoFCou: FMM=F IPFlag=           0 FMFlag=      100000 FMFlg1=           0
         NFxFlg=           0 DoJE=T BraDBF=F KetDBF=T FulRan=T
         Omega=  0.000000  0.000000  1.000000  0.000000  0.000000 ICntrl=     500 IOpCl=  0
         NMat0=    1 NMatS0=    1 NMatT0=    0 NMatD0=    1 NMtDS0=    0 NMtDT0=    0
         I1Cent=           4 NGrid=           0.
 Petite list used in FoFCou.
 Requested convergence on RMS density matrix=1.00D-08 within 128 cycles.
 Requested convergence on MAX density matrix=1.00D-06.
 Requested convergence on             energy=1.00D-06.
 No special actions if energy rises.
 Keep R1 ints in memory in canonical form, NReq=1123217.
 Integral accuracy reduced to 1.0D-05 until final iterations.
 Defaulting to unpruned grid for atomic number  53.
 Defaulting to unpruned grid for atomic number  53.
 Defaulting to unpruned grid for atomic number  53.
 Defaulting to unpruned grid for atomic number  53.
 Initial convergence to 1.0D-05 achieved.  Increase integral accuracy.
 SCF Done:  E(RB3LYP) =  -310.813173999     A.U. after   16 cycles
             Convg  =    0.1683D-08             -V/T =  2.0313
   2 Symmetry operations used in ECPInt.
 ECPInt:  NShTT=     190 NPrTT=    1412 LenC2=     189 LenP2D=    1036.
 LDataN:  DoStor=T MaxTD1= 5 Len=  102
 Calling FoFJK, ICntrl=      2127 FMM=F ISym2X=1 I1Cent= 0 IOpClX= 0 NMat=1 NMatS=1 NMatT=0.
 Defaulting to unpruned grid for atomic number  53.
 Defaulting to unpruned grid for atomic number  53.
 Defaulting to unpruned grid for atomic number  53.
 Defaulting to unpruned grid for atomic number  53.
 ***** Axes restored to original set *****
 -------------------------------------------------------------------
 Center     Atomic                   Forces (Hartrees/Bohr)
 Number     Number              X              Y              Z
 -------------------------------------------------------------------
      1       53           0.006887946    0.011930272    0.002485064
      2        9          -0.000834166   -0.001444817    0.014841935
      3        9          -0.004127133   -0.007148404   -0.002523661
      4        9          -0.001926647   -0.003337051   -0.014803338
 -------------------------------------------------------------------
 Cartesian Forces:  Max     0.014841935 RMS     0.007786235

 GradGradGradGradGradGradGradGradGradGradGradGradGradGradGradGradGradGrad
 Berny optimization.
 Using GEDIIS/GDIIS optimizer.
 Internal  Forces:  Max     0.015131267 RMS     0.009071011
 Search for a local minimum.
 Step number   2 out of a maximum of   20
 All quantities printed in internal units (Hartrees-Bohrs-Radians)
 Mixed Optimization -- RFO/linear search
 Update second derivatives using D2CorX and points    1    2
 DE= -1.28D-02 DEPred=-1.39D-02 R= 9.16D-01
 SS=  1.41D+00  RLast= 2.40D-01 DXNew= 5.0454D-01 7.2000D-01
 Trust test= 9.16D-01 RLast= 2.40D-01 DXMaxT set to 5.05D-01
 The second derivative matrix:
                          R1        R2        R3        A1        A2
           R1           0.24398
           R2           0.00653   0.23589
           R3           0.01088   0.00607   0.24231
           A1           0.00430   0.00239   0.00406   0.25148
           A2           0.00355   0.00196   0.00356   0.00092   0.24963
           A3          -0.00075  -0.00043  -0.00051  -0.00056  -0.00130
           D1           0.00000   0.00000   0.00000   0.00000   0.00000
                          A3        D1
           A3           0.24926
           D1           0.00000   0.00230
 Use linear search instead of GDIIS.
     Eigenvalues ---    0.00230   0.23222   0.23225   0.24558   0.24877
     Eigenvalues ---    0.263731000.00000
 RFO step:  Lambda=-3.59195250D-05 EMin= 2.30000000D-03
 Quartic linear search produced a step of  0.51088.
 Iteration  1 RMS(Cart)=  0.04797918 RMS(Int)=  0.00031262
 Iteration  2 RMS(Cart)=  0.00054172 RMS(Int)=  0.00000007
 Iteration  3 RMS(Cart)=  0.00000006 RMS(Int)=  0.00000001
 ClnCor:  largest displacement from symmetrization is 4.63D-09 for atom     1.
 Variable       Old X    -DE/DX   Delta X   Delta X   Delta X     New X
                                 (Linear)    (Quad)   (Total)
    R1        3.76241   0.01493   0.07818  -0.00124   0.07694   3.83935
    R2        3.69392   0.00822   0.04319  -0.00082   0.04237   3.73629
    R3        3.76153   0.01513   0.07773   0.00067   0.07840   3.83993
    A1        1.43454   0.00347   0.01955  -0.00375   0.01580   1.45034
    A2        2.91353  -0.00265  -0.00505  -0.00963  -0.01468   2.89885
    A3        1.47899  -0.00613  -0.02461  -0.00588  -0.03049   1.44850
    D1        0.00000   0.00000   0.00000   0.00000   0.00000   0.00000
         Item               Value     Threshold  Converged?
 Maximum Force            0.015131     0.000450     NO 
 RMS     Force            0.009071     0.000300     NO 
 Maximum Displacement     0.090870     0.001800     NO 
 RMS     Displacement     0.048151     0.001200     NO 
 Predicted change in Energy=-9.983161D-04
 GradGradGradGradGradGradGradGradGradGradGradGradGradGradGradGradGradGrad

                          Input orientation:                          
 ---------------------------------------------------------------------
 Center     Atomic      Atomic             Coordinates (Angstroms)
 Number     Number       Type             X           Y           Z
 ---------------------------------------------------------------------
      1         53           0       -0.128373    1.038757    0.022022
      2          9           0       -0.256153    0.817437    2.037582
      3          9           0       -1.116937   -0.673484    0.010816
      4          9           0       -0.246595    0.833991   -1.996179
 ---------------------------------------------------------------------
                    Distance matrix (angstroms):
                    1          2          3          4
     1  I    0.000000
     2  F    2.031696   0.000000
     3  F    1.977158   2.659244   0.000000
     4  F    2.032004   4.033806   2.656690   0.000000
 Stoichiometry    F3I
 Framework group  CS[SG(F3I)]
 Deg. of freedom     5
 Full point group                 CS      NOp   2
 Largest Abelian subgroup         CS      NOp   2
 Largest concise Abelian subgroup C1      NOp   1
                         Standard orientation:                         
 ---------------------------------------------------------------------
 Center     Atomic      Atomic             Coordinates (Angstroms)
 Number     Number       Type             X           Y           Z
 ---------------------------------------------------------------------
      1         53           0        0.000000    0.277781    0.000000
      2          9           0        2.016961    0.033531    0.000000
      3          9           0       -0.000118   -1.699377    0.000000
      4          9           0       -2.016843    0.030022    0.000000
 ---------------------------------------------------------------------
 Rotational constants (GHZ):      7.8231223      3.2696397      2.3058992
 Standard basis: LANL2DZ (5D, 7F)
 There are    27 symmetry adapted basis functions of A'  symmetry.
 There are     8 symmetry adapted basis functions of A"  symmetry.
 Integral buffers will be    131072 words long.
 Raffenetti 2 integral format.
 Two-electron integral symmetry is turned on.
    35 basis functions,    87 primitive gaussians,    35 cartesian basis functions
    17 alpha electrons       17 beta electrons
       nuclear repulsion energy        92.5560116707 Hartrees.



 Warning!  I  atom    1 may be hypervalent but has no d functions.



 NAtoms=    4 NActive=    4 NUniq=    4 SFac= 7.50D-01 NAtFMM=   80 NAOKFM=F Big=F
 One-electron integrals computed using PRISM.
   1 Symmetry operations used in ECPInt.
 ECPInt:  NShTT=     190 NPrTT=    1412 LenC2=     188 LenP2D=    1031.
 LDataN:  DoStor=T MaxTD1= 4 Len=   56
 NBasis=    35 RedAO= T  NBF=    27     8
 NBsUse=    35 1.00D-06 NBFU=    27     8
 Defaulting to unpruned grid for atomic number  53.
 Initial guess read from the read-write file.
 B after Tr=     0.000000    0.000000    0.000000
         Rot=    1.000000    0.000000    0.000000    0.000000 Ang=   0.00 deg.
 Initial guess orbital symmetries:
       Occupied  (A') (A') (A') (A') (A') (A') (A') (A') (A') (A")
                 (A') (A") (A') (A") (A') (A') (A")
       Virtual   (A') (A') (A') (A") (A') (A') (A") (A") (A') (A")
                 (A') (A') (A') (A') (A') (A') (A') (A')
 Harris functional with IExCor=  402 diagonalized for initial guess.
 ExpMin= 1.05D-01 ExpMax= 1.00D+04 ExpMxC= 3.50D+02 IAcc=1 IRadAn=         1 AccDes= 0.00D+00
 HarFok:  IExCor=  402 AccDes= 0.00D+00 IRadAn=         1 IDoV= 1
 ScaDFX=  1.000000  1.000000  1.000000  1.000000
 Defaulting to unpruned grid for atomic number  53.
 Defaulting to unpruned grid for atomic number  53.
 Defaulting to unpruned grid for atomic number  53.
 Defaulting to unpruned grid for atomic number  53.
 FoFCou: FMM=F IPFlag=           0 FMFlag=      100000 FMFlg1=           0
         NFxFlg=           0 DoJE=T BraDBF=F KetDBF=T FulRan=T
         Omega=  0.000000  0.000000  1.000000  0.000000  0.000000 ICntrl=     500 IOpCl=  0
         NMat0=    1 NMatS0=    1 NMatT0=    0 NMatD0=    1 NMtDS0=    0 NMtDT0=    0
         I1Cent=           4 NGrid=           0.
 Petite list used in FoFCou.
 Requested convergence on RMS density matrix=1.00D-08 within 128 cycles.
 Requested convergence on MAX density matrix=1.00D-06.
 Requested convergence on             energy=1.00D-06.
 No special actions if energy rises.
 Keep R1 ints in memory in canonical form, NReq=1123217.
 Integral accuracy reduced to 1.0D-05 until final iterations.
 Defaulting to unpruned grid for atomic number  53.
 Defaulting to unpruned grid for atomic number  53.
 Defaulting to unpruned grid for atomic number  53.
 Defaulting to unpruned grid for atomic number  53.
 Initial convergence to 1.0D-05 achieved.  Increase integral accuracy.
 SCF Done:  E(RB3LYP) =  -310.814584649     A.U. after   18 cycles
             Convg  =    0.2054D-08             -V/T =  2.0317
   2 Symmetry operations used in ECPInt.
 ECPInt:  NShTT=     190 NPrTT=    1412 LenC2=     188 LenP2D=    1031.
 LDataN:  DoStor=T MaxTD1= 5 Len=  102
 Calling FoFJK, ICntrl=      2127 FMM=F ISym2X=1 I1Cent= 0 IOpClX= 0 NMat=1 NMatS=1 NMatT=0.
 Defaulting to unpruned grid for atomic number  53.
 Defaulting to unpruned grid for atomic number  53.
 Defaulting to unpruned grid for atomic number  53.
 Defaulting to unpruned grid for atomic number  53.
 ***** Axes restored to original set *****
 -------------------------------------------------------------------
 Center     Atomic                   Forces (Hartrees/Bohr)
 Number     Number              X              Y              Z
 -------------------------------------------------------------------
      1       53          -0.000025271   -0.000043770   -0.000183975
      2        9          -0.000202154   -0.000350141   -0.000199144
      3        9           0.000377967    0.000654658    0.000105950
      4        9          -0.000150542   -0.000260747    0.000277169
 -------------------------------------------------------------------
 Cartesian Forces:  Max     0.000654658 RMS     0.000287179

 GradGradGradGradGradGradGradGradGradGradGradGradGradGradGradGradGradGrad
 Berny optimization.
 Using GEDIIS/GDIIS optimizer.
 Internal  Forces:  Max     0.000969420 RMS     0.000551873
 Search for a local minimum.
 Step number   3 out of a maximum of   20
 All quantities printed in internal units (Hartrees-Bohrs-Radians)
 Mixed Optimization -- En-DIIS/RFO-DIIS
 Update second derivatives using D2CorX and points    1    2    3
 DE= -1.41D-03 DEPred=-9.98D-04 R= 1.41D+00
 SS=  1.41D+00  RLast= 1.24D-01 DXNew= 8.4853D-01 3.7055D-01
 Trust test= 1.41D+00 RLast= 1.24D-01 DXMaxT set to 5.05D-01
 The second derivative matrix:
                          R1        R2        R3        A1        A2
           R1           0.21819
           R2          -0.00431   0.23193
           R3          -0.01429  -0.00439   0.21776
           A1           0.00106   0.00157   0.00101   0.25157
           A2           0.01024   0.00537   0.01020   0.00233   0.24855
           A3           0.00917   0.00380   0.00919   0.00075  -0.00378
           D1           0.00000   0.00000   0.00000   0.00000   0.00000
                          A3        D1
           A3           0.24547
           D1           0.00000   0.00230
 Use linear search instead of GDIIS.
     Eigenvalues ---    0.00230   0.19397   0.23227   0.23290   0.24871
     Eigenvalues ---    0.255601000.00000
 RFO step:  Lambda=-7.61142964D-06 EMin= 2.30000000D-03
 Quartic linear search produced a step of -0.01805.
 Iteration  1 RMS(Cart)=  0.00358391 RMS(Int)=  0.00000371
 Iteration  2 RMS(Cart)=  0.00000360 RMS(Int)=  0.00000000
 Iteration  3 RMS(Cart)=  0.00000000 RMS(Int)=  0.00000000
 ClnCor:  largest displacement from symmetrization is 9.53D-09 for atom     1.
 Variable       Old X    -DE/DX   Delta X   Delta X   Delta X     New X
                                 (Linear)    (Quad)   (Total)
    R1        3.83935  -0.00015  -0.00139   0.00070  -0.00068   3.83867
    R2        3.73629  -0.00076  -0.00076  -0.00247  -0.00323   3.73306
    R3        3.83993  -0.00024  -0.00142   0.00032  -0.00110   3.83883
    A1        1.45034  -0.00067  -0.00029  -0.00234  -0.00263   1.44772
    A2        2.89885  -0.00097   0.00027  -0.00400  -0.00373   2.89512
    A3        1.44850  -0.00030   0.00055  -0.00165  -0.00110   1.44740
    D1        0.00000   0.00000   0.00000   0.00000   0.00000   0.00000
         Item               Value     Threshold  Converged?
 Maximum Force            0.000969     0.000450     NO 
 RMS     Force            0.000552     0.000300     NO 
 Maximum Displacement     0.005122     0.001800     NO 
 RMS     Displacement     0.003584     0.001200     NO 
 Predicted change in Energy=-4.223678D-06
 GradGradGradGradGradGradGradGradGradGradGradGradGradGradGradGradGradGrad

                          Input orientation:                          
 ---------------------------------------------------------------------
 Center     Atomic      Atomic             Coordinates (Angstroms)
 Number     Number       Type             X           Y           Z
 ---------------------------------------------------------------------
      1         53           0       -0.127660    1.039992    0.021709
      2          9           0       -0.257477    0.815143    2.036382
      3          9           0       -1.115372   -0.670774    0.011664
      4          9           0       -0.247548    0.832340   -1.995514
 ---------------------------------------------------------------------
                    Distance matrix (angstroms):
                    1          2          3          4
     1  I    0.000000
     2  F    2.031334   0.000000
     3  F    1.975448   2.653943   0.000000
     4  F    2.031424   4.031945   2.653532   0.000000
 Stoichiometry    F3I
 Framework group  CS[SG(F3I)]
 Deg. of freedom     5
 Full point group                 CS      NOp   2
 Largest Abelian subgroup         CS      NOp   2
 Largest concise Abelian subgroup C1      NOp   1
                         Standard orientation:                         
 ---------------------------------------------------------------------
 Center     Atomic      Atomic             Coordinates (Angstroms)
 Number     Number       Type             X           Y           Z
 ---------------------------------------------------------------------
      1         53           0        0.000000    0.278422    0.000000
      2          9           0       -2.015969    0.029045    0.000000
      3          9           0       -0.000008   -1.697026    0.000000
      4          9           0        2.015977    0.028383    0.000000
 ---------------------------------------------------------------------
 Rotational constants (GHZ):      7.8369323      3.2726593      2.3086005
 Standard basis: LANL2DZ (5D, 7F)
 There are    27 symmetry adapted basis functions of A'  symmetry.
 There are     8 symmetry adapted basis functions of A"  symmetry.
 Integral buffers will be    131072 words long.
 Raffenetti 2 integral format.
 Two-electron integral symmetry is turned on.
    35 basis functions,    87 primitive gaussians,    35 cartesian basis functions
    17 alpha electrons       17 beta electrons
       nuclear repulsion energy        92.6345135034 Hartrees.



 Warning!  I  atom    1 may be hypervalent but has no d functions.



 NAtoms=    4 NActive=    4 NUniq=    4 SFac= 7.50D-01 NAtFMM=   80 NAOKFM=F Big=F
 One-electron integrals computed using PRISM.
   1 Symmetry operations used in ECPInt.
 ECPInt:  NShTT=     190 NPrTT=    1412 LenC2=     188 LenP2D=    1035.
 LDataN:  DoStor=T MaxTD1= 4 Len=   56
 NBasis=    35 RedAO= T  NBF=    27     8
 NBsUse=    35 1.00D-06 NBFU=    27     8
 Defaulting to unpruned grid for atomic number  53.
 Initial guess read from the read-write file.
 B after Tr=     0.000000    0.000000    0.000000
         Rot=    1.000000    0.000000    0.000000    0.000000 Ang=   0.00 deg.
 Initial guess orbital symmetries:
       Occupied  (A') (A') (A') (A') (A') (A') (A') (A') (A') (A")
                 (A') (A") (A') (A") (A') (A') (A")
       Virtual   (A') (A') (A') (A") (A') (A') (A") (A") (A') (A")
                 (A') (A') (A') (A') (A') (A') (A') (A')
 Requested convergence on RMS density matrix=1.00D-08 within 128 cycles.
 Requested convergence on MAX density matrix=1.00D-06.
 Requested convergence on             energy=1.00D-06.
 No special actions if energy rises.
 Keep R1 ints in memory in canonical form, NReq=1123217.
 Defaulting to unpruned grid for atomic number  53.
 Defaulting to unpruned grid for atomic number  53.
 Defaulting to unpruned grid for atomic number  53.
 Defaulting to unpruned grid for atomic number  53.
 SCF Done:  E(RB3LYP) =  -310.814590971     A.U. after   12 cycles
             Convg  =    0.2772D-08             -V/T =  2.0317
   2 Symmetry operations used in ECPInt.
 ECPInt:  NShTT=     190 NPrTT=    1412 LenC2=     188 LenP2D=    1035.
 LDataN:  DoStor=T MaxTD1= 5 Len=  102
 Calling FoFJK, ICntrl=      2127 FMM=F ISym2X=1 I1Cent= 0 IOpClX= 0 NMat=1 NMatS=1 NMatT=0.
 Defaulting to unpruned grid for atomic number  53.
 Defaulting to unpruned grid for atomic number  53.
 Defaulting to unpruned grid for atomic number  53.
 Defaulting to unpruned grid for atomic number  53.
 ***** Axes restored to original set *****
 -------------------------------------------------------------------
 Center     Atomic                   Forces (Hartrees/Bohr)
 Number     Number              X              Y              Z
 -------------------------------------------------------------------
      1       53           0.000206917    0.000358391   -0.000040350
      2        9          -0.000130910   -0.000226743   -0.000080492
      3        9           0.000045589    0.000078962    0.000017947
      4        9          -0.000121596   -0.000210610    0.000102895
 -------------------------------------------------------------------
 Cartesian Forces:  Max     0.000358391 RMS     0.000164894

 GradGradGradGradGradGradGradGradGradGradGradGradGradGradGradGradGradGrad
 Berny optimization.
 Using GEDIIS/GDIIS optimizer.
 Internal  Forces:  Max     0.000669986 RMS     0.000314254
 Search for a local minimum.
 Step number   4 out of a maximum of   20
 All quantities printed in internal units (Hartrees-Bohrs-Radians)
 Mixed Optimization -- En-DIIS/RFO-DIIS
 Swaping is turned off.
 Update second derivatives using D2CorX and points    1    2    3    4
 DE= -6.32D-06 DEPred=-4.22D-06 R= 1.50D+00
 SS=  1.41D+00  RLast= 5.84D-03 DXNew= 8.4853D-01 1.7532D-02
 Trust test= 1.50D+00 RLast= 5.84D-03 DXMaxT set to 5.05D-01
 The second derivative matrix:
                          R1        R2        R3        A1        A2
           R1           0.21691
           R2          -0.00561   0.26478
           R3          -0.01601  -0.00380   0.21561
           A1          -0.00517  -0.01200  -0.00794   0.21974
           A2          -0.00102  -0.03394  -0.00703  -0.05267   0.16004
           A3           0.00415  -0.02194   0.00092  -0.02241  -0.03728
           D1           0.00000   0.00000   0.00000   0.00000   0.00000
                          A3        D1
           A3           0.23513
           D1           0.00000   0.00230
     Eigenvalues ---    0.00230   0.10243   0.19959   0.23230   0.24793
     Eigenvalues ---    0.279971000.00000
 En-DIIS/RFO-DIIS IScMMF=        0 using points:     4    3
 RFO step:  Lambda=-2.14288267D-06.
 DIIS coeffs:      1.97477     -0.97477
 Iteration  1 RMS(Cart)=  0.00502990 RMS(Int)=  0.00001051
 Iteration  2 RMS(Cart)=  0.00001041 RMS(Int)=  0.00000000
 Iteration  3 RMS(Cart)=  0.00000000 RMS(Int)=  0.00000000
 ClnCor:  largest displacement from symmetrization is 2.74D-14 for atom     1.
 Variable       Old X    -DE/DX   Delta X   Delta X   Delta X     New X
                                  (DIIS)     (GDIIS)  (Total)
    R1        3.83867  -0.00005  -0.00067   0.00030  -0.00037   3.83829
    R2        3.73306  -0.00009  -0.00315   0.00157  -0.00158   3.73148
    R3        3.83883  -0.00007  -0.00107   0.00034  -0.00073   3.83811
    A1        1.44772  -0.00037  -0.00256  -0.00105  -0.00361   1.44411
    A2        2.89512  -0.00067  -0.00364  -0.00275  -0.00639   2.88873
    A3        1.44740  -0.00030  -0.00107  -0.00171  -0.00278   1.44462
    D1        0.00000   0.00000   0.00000   0.00000   0.00000   0.00000
         Item               Value     Threshold  Converged?
 Maximum Force            0.000670     0.000450     NO 
 RMS     Force            0.000314     0.000300     NO 
 Maximum Displacement     0.006260     0.001800     NO 
 RMS     Displacement     0.005031     0.001200     NO 
 Predicted change in Energy=-3.331584D-06
 GradGradGradGradGradGradGradGradGradGradGradGradGradGradGradGradGradGrad

                          Input orientation:                          
 ---------------------------------------------------------------------
 Center     Atomic      Atomic             Coordinates (Angstroms)
 Number     Number       Type             X           Y           Z
 ---------------------------------------------------------------------
      1         53           0       -0.126163    1.042585    0.021531
      2          9           0       -0.259279    0.812022    2.035145
      3          9           0       -1.113459   -0.667461    0.012122
      4          9           0       -0.249156    0.829555   -1.994557
 ---------------------------------------------------------------------
                    Distance matrix (angstroms):
                    1          2          3          4
     1  I    0.000000
     2  F    2.031138   0.000000
     3  F    1.974614   2.647852   0.000000
     4  F    2.031040   4.029754   2.648554   0.000000
 Stoichiometry    F3I
 Framework group  CS[SG(F3I)]
 Deg. of freedom     5
 Full point group                 CS      NOp   2
 Largest Abelian subgroup         CS      NOp   2
 Largest concise Abelian subgroup C1      NOp   1
                         Standard orientation:                         
 ---------------------------------------------------------------------
 Center     Atomic      Atomic             Coordinates (Angstroms)
 Number     Number       Type             X           Y           Z
 ---------------------------------------------------------------------
      1         53           0        0.000000    0.279769    0.000000
      2          9           0       -2.014864    0.023163    0.000000
      3          9           0       -0.000026   -1.694845    0.000000
      4          9           0        2.014890    0.024152    0.000000
 ---------------------------------------------------------------------
 Rotational constants (GHZ):      7.8437586      3.2762201      2.3109648
 Standard basis: LANL2DZ (5D, 7F)
 There are    27 symmetry adapted basis functions of A'  symmetry.
 There are     8 symmetry adapted basis functions of A"  symmetry.
 Integral buffers will be    131072 words long.
 Raffenetti 2 integral format.
 Two-electron integral symmetry is turned on.
    35 basis functions,    87 primitive gaussians,    35 cartesian basis functions
    17 alpha electrons       17 beta electrons
       nuclear repulsion energy        92.7196279135 Hartrees.



 Warning!  I  atom    1 may be hypervalent but has no d functions.



 NAtoms=    4 NActive=    4 NUniq=    4 SFac= 7.50D-01 NAtFMM=   80 NAOKFM=F Big=F
 One-electron integrals computed using PRISM.
   1 Symmetry operations used in ECPInt.
 ECPInt:  NShTT=     190 NPrTT=    1412 LenC2=     188 LenP2D=    1035.
 LDataN:  DoStor=T MaxTD1= 4 Len=   56
 NBasis=    35 RedAO= T  NBF=    27     8
 NBsUse=    35 1.00D-06 NBFU=    27     8
 Defaulting to unpruned grid for atomic number  53.
 Initial guess read from the read-write file.
 B after Tr=     0.000000    0.000000    0.000000
         Rot=    1.000000    0.000000    0.000000    0.000000 Ang=   0.00 deg.
 Initial guess orbital symmetries:
       Occupied  (A') (A') (A') (A') (A') (A') (A') (A') (A') (A")
                 (A') (A") (A') (A") (A') (A') (A")
       Virtual   (A') (A') (A') (A") (A') (A') (A") (A") (A') (A")
                 (A') (A') (A') (A') (A') (A') (A') (A')
 Requested convergence on RMS density matrix=1.00D-08 within 128 cycles.
 Requested convergence on MAX density matrix=1.00D-06.
 Requested convergence on             energy=1.00D-06.
 No special actions if energy rises.
 Keep R1 ints in memory in canonical form, NReq=1123217.
 Defaulting to unpruned grid for atomic number  53.
 Defaulting to unpruned grid for atomic number  53.
 Defaulting to unpruned grid for atomic number  53.
 Defaulting to unpruned grid for atomic number  53.
 SCF Done:  E(RB3LYP) =  -310.814594852     A.U. after    9 cycles
             Convg  =    0.6722D-08             -V/T =  2.0317
   2 Symmetry operations used in ECPInt.
 ECPInt:  NShTT=     190 NPrTT=    1412 LenC2=     188 LenP2D=    1035.
 LDataN:  DoStor=T MaxTD1= 5 Len=  102
 Calling FoFJK, ICntrl=      2127 FMM=F ISym2X=1 I1Cent= 0 IOpClX= 0 NMat=1 NMatS=1 NMatT=0.
 Defaulting to unpruned grid for atomic number  53.
 Defaulting to unpruned grid for atomic number  53.
 Defaulting to unpruned grid for atomic number  53.
 Defaulting to unpruned grid for atomic number  53.
 ***** Axes restored to original set *****
 -------------------------------------------------------------------
 Center     Atomic                   Forces (Hartrees/Bohr)
 Number     Number              X              Y              Z
 -------------------------------------------------------------------
      1       53           0.000205268    0.000355535    0.000056722
      2        9          -0.000023198   -0.000040181   -0.000032528
      3        9          -0.000143491   -0.000248534   -0.000030271
      4        9          -0.000038579   -0.000066820    0.000006077
 -------------------------------------------------------------------
 Cartesian Forces:  Max     0.000355535 RMS     0.000148390

 GradGradGradGradGradGradGradGradGradGradGradGradGradGradGradGradGradGrad
 Berny optimization.
 Using GEDIIS/GDIIS optimizer.
 Internal  Forces:  Max     0.000287123 RMS     0.000135656
 Search for a local minimum.
 Step number   5 out of a maximum of   20
 All quantities printed in internal units (Hartrees-Bohrs-Radians)
 Mixed Optimization -- En-DIIS/RFO-DIIS
 Swaping is turned off.
 Update second derivatives using D2CorX and points    1    2    3    4    5
 DE= -3.88D-06 DEPred=-3.33D-06 R= 1.16D+00
 SS=  1.41D+00  RLast= 8.05D-03 DXNew= 8.4853D-01 2.4139D-02
 Trust test= 1.16D+00 RLast= 8.05D-03 DXMaxT set to 5.05D-01
 The second derivative matrix:
                          R1        R2        R3        A1        A2
           R1           0.21972
           R2          -0.02149   0.29150
           R3          -0.01484  -0.01477   0.21587
           A1          -0.00787   0.00407  -0.00874   0.21972
           A2          -0.00112  -0.00717  -0.00477  -0.05833   0.13798
           A3           0.00675  -0.01124   0.00397  -0.02805  -0.05368
           D1           0.00000   0.00000   0.00000   0.00000   0.00000
                          A3        D1
           A3           0.22437
           D1           0.00000   0.00230
     Eigenvalues ---    0.00230   0.08112   0.19459   0.23229   0.24826
     Eigenvalues ---    0.302891000.00000
 En-DIIS/RFO-DIIS IScMMF=        0 using points:     5    4    3
 RFO step:  Lambda=-2.94435891D-07.
 DIIS coeffs:      1.77210     -1.54232      0.77021
 Iteration  1 RMS(Cart)=  0.00135624 RMS(Int)=  0.00000114
 Iteration  2 RMS(Cart)=  0.00000114 RMS(Int)=  0.00000000
 Iteration  3 RMS(Cart)=  0.00000000 RMS(Int)=  0.00000000
 ClnCor:  largest displacement from symmetrization is 1.01D-08 for atom     1.
 Variable       Old X    -DE/DX   Delta X   Delta X   Delta X     New X
                                  (DIIS)     (GDIIS)  (Total)
    R1        3.83829  -0.00003   0.00024  -0.00041  -0.00016   3.83813
    R2        3.73148   0.00029   0.00127   0.00018   0.00145   3.73293
    R3        3.83811   0.00000   0.00028  -0.00032  -0.00004   3.83807
    A1        1.44411  -0.00003  -0.00076  -0.00005  -0.00081   1.44330
    A2        2.88873  -0.00016  -0.00206  -0.00004  -0.00210   2.88663
    A3        1.44462  -0.00014  -0.00130   0.00001  -0.00129   1.44333
    D1        0.00000   0.00000   0.00000   0.00000   0.00000   0.00000
         Item               Value     Threshold  Converged?
 Maximum Force            0.000287     0.000450     YES
 RMS     Force            0.000136     0.000300     YES
 Maximum Displacement     0.002041     0.001800     NO 
 RMS     Displacement     0.001356     0.001200     NO 
 Predicted change in Energy=-3.172673D-07
 GradGradGradGradGradGradGradGradGradGradGradGradGradGradGradGradGradGrad

                          Input orientation:                          
 ---------------------------------------------------------------------
 Center     Atomic      Atomic             Coordinates (Angstroms)
 Number     Number       Type             X           Y           Z
 ---------------------------------------------------------------------
      1         53           0       -0.125540    1.043665    0.021638
      2          9           0       -0.259651    0.811379    2.034900
      3          9           0       -1.113220   -0.667046    0.011860
      4          9           0       -0.249648    0.828703   -1.994156
 ---------------------------------------------------------------------
                    Distance matrix (angstroms):
                    1          2          3          4
     1  I    0.000000
     2  F    2.031051   0.000000
     3  F    1.975384   2.647076   0.000000
     4  F    2.031019   4.029106   2.647097   0.000000
 Stoichiometry    F3I
 Framework group  CS[SG(F3I)]
 Deg. of freedom     5
 Full point group                 CS      NOp   2
 Largest Abelian subgroup         CS      NOp   2
 Largest concise Abelian subgroup C1      NOp   1
                         Standard orientation:                         
 ---------------------------------------------------------------------
 Center     Atomic      Atomic             Coordinates (Angstroms)
 Number     Number       Type             X           Y           Z
 ---------------------------------------------------------------------
      1         53           0        0.000000    0.280331    0.000000
      2          9           0        2.014563    0.022058    0.000000
      3          9           0       -0.000019   -1.695053    0.000000
      4          9           0       -2.014543    0.022158    0.000000
 ---------------------------------------------------------------------
 Rotational constants (GHZ):      7.8376447      3.2772736      2.3109577
 Standard basis: LANL2DZ (5D, 7F)
 There are    27 symmetry adapted basis functions of A'  symmetry.
 There are     8 symmetry adapted basis functions of A"  symmetry.
 Integral buffers will be    131072 words long.
 Raffenetti 2 integral format.
 Two-electron integral symmetry is turned on.
    35 basis functions,    87 primitive gaussians,    35 cartesian basis functions
    17 alpha electrons       17 beta electrons
       nuclear repulsion energy        92.7292810355 Hartrees.



 Warning!  I  atom    1 may be hypervalent but has no d functions.



 NAtoms=    4 NActive=    4 NUniq=    4 SFac= 7.50D-01 NAtFMM=   80 NAOKFM=F Big=F
 One-electron integrals computed using PRISM.
   1 Symmetry operations used in ECPInt.
 ECPInt:  NShTT=     190 NPrTT=    1412 LenC2=     188 LenP2D=    1035.
 LDataN:  DoStor=T MaxTD1= 4 Len=   56
 NBasis=    35 RedAO= T  NBF=    27     8
 NBsUse=    35 1.00D-06 NBFU=    27     8
 Defaulting to unpruned grid for atomic number  53.
 Initial guess read from the read-write file.
 B after Tr=     0.000000    0.000000    0.000000
         Rot=    1.000000    0.000000    0.000000    0.000000 Ang=   0.00 deg.
 Initial guess orbital symmetries:
       Occupied  (A') (A') (A') (A') (A') (A') (A') (A') (A') (A")
                 (A') (A") (A') (A") (A') (A') (A")
       Virtual   (A') (A') (A') (A") (A') (A') (A") (A") (A') (A")
                 (A') (A') (A') (A') (A') (A') (A') (A')
 Requested convergence on RMS density matrix=1.00D-08 within 128 cycles.
 Requested convergence on MAX density matrix=1.00D-06.
 Requested convergence on             energy=1.00D-06.
 No special actions if energy rises.
 Keep R1 ints in memory in canonical form, NReq=1123217.
 Defaulting to unpruned grid for atomic number  53.
 Defaulting to unpruned grid for atomic number  53.
 Defaulting to unpruned grid for atomic number  53.
 Defaulting to unpruned grid for atomic number  53.
 SCF Done:  E(RB3LYP) =  -310.814595370     A.U. after   12 cycles
             Convg  =    0.2421D-08             -V/T =  2.0317
   2 Symmetry operations used in ECPInt.
 ECPInt:  NShTT=     190 NPrTT=    1412 LenC2=     188 LenP2D=    1035.
 LDataN:  DoStor=T MaxTD1= 5 Len=  102
 Calling FoFJK, ICntrl=      2127 FMM=F ISym2X=1 I1Cent= 0 IOpClX= 0 NMat=1 NMatS=1 NMatT=0.
 Defaulting to unpruned grid for atomic number  53.
 Defaulting to unpruned grid for atomic number  53.
 Defaulting to unpruned grid for atomic number  53.
 Defaulting to unpruned grid for atomic number  53.
 ***** Axes restored to original set *****
 -------------------------------------------------------------------
 Center     Atomic                   Forces (Hartrees/Bohr)
 Number     Number              X              Y              Z
 -------------------------------------------------------------------
      1       53           0.000016517    0.000028608    0.000011103
      2        9           0.000000089    0.000000155   -0.000019723
      3        9          -0.000015292   -0.000026486   -0.000001696
      4        9          -0.000001315   -0.000002277    0.000010316
 -------------------------------------------------------------------
 Cartesian Forces:  Max     0.000028608 RMS     0.000014875

 GradGradGradGradGradGradGradGradGradGradGradGradGradGradGradGradGradGrad
 Berny optimization.
 Using GEDIIS/GDIIS optimizer.
 Internal  Forces:  Max     0.000030592 RMS     0.000014790
 Search for a local minimum.
 Step number   6 out of a maximum of   20
 All quantities printed in internal units (Hartrees-Bohrs-Radians)
 Mixed Optimization -- En-DIIS/RFO-DIIS
 Swaping is turned off.
 Update second derivatives using D2CorX and points    1    2    3    4    5
                                                      6
 DE= -5.18D-07 DEPred=-3.17D-07 R= 1.63D+00
 Trust test= 1.63D+00 RLast= 2.98D-03 DXMaxT set to 5.05D-01
 The second derivative matrix:
                          R1        R2        R3        A1        A2
           R1           0.22071
           R2          -0.00680   0.21726
           R3          -0.01258  -0.00978   0.21831
           A1          -0.01068   0.00448  -0.01071   0.22198
           A2          -0.01303   0.01863  -0.01155  -0.05307   0.14210
           A3          -0.00235   0.01415  -0.00084  -0.02505  -0.05483
           D1           0.00000   0.00000   0.00000   0.00000   0.00000
                          A3        D1
           A3           0.22022
           D1           0.00000   0.00230
     Eigenvalues ---    0.00230   0.08130   0.19667   0.23108   0.23272
     Eigenvalues ---    0.248811000.00000
 En-DIIS/RFO-DIIS IScMMF=        0 using points:     6    5    4    3
 RFO step:  Lambda= 0.00000000D+00.
 DIIS coeffs:      1.32618     -0.52378      0.38972     -0.19213
 Iteration  1 RMS(Cart)=  0.00010488 RMS(Int)=  0.00000001
 Iteration  2 RMS(Cart)=  0.00000001 RMS(Int)=  0.00000000
 ClnCor:  largest displacement from symmetrization is 2.34D-10 for atom     1.
 Variable       Old X    -DE/DX   Delta X   Delta X   Delta X     New X
                                  (DIIS)     (GDIIS)  (Total)
    R1        3.83813  -0.00002  -0.00011  -0.00001  -0.00012   3.83801
    R2        3.73293   0.00003   0.00017   0.00000   0.00017   3.73310
    R3        3.83807  -0.00001  -0.00008   0.00001  -0.00007   3.83800
    A1        1.44330   0.00000  -0.00006   0.00000  -0.00006   1.44324
    A2        2.88663  -0.00001  -0.00014   0.00000  -0.00014   2.88649
    A3        1.44333  -0.00001  -0.00008   0.00000  -0.00008   1.44325
    D1        0.00000   0.00000   0.00000   0.00000   0.00000   0.00000
         Item               Value     Threshold  Converged?
 Maximum Force            0.000031     0.000450     YES
 RMS     Force            0.000015     0.000300     YES
 Maximum Displacement     0.000146     0.001800     YES
 RMS     Displacement     0.000105     0.001200     YES
 Predicted change in Energy=-4.441652D-09
 Optimization completed.
    -- Stationary point found.
                           ----------------------------
                           !   Optimized Parameters   !
                           ! (Angstroms and Degrees)  !
 --------------------------                            --------------------------
 ! Name  Definition              Value          Derivative Info.                !
 --------------------------------------------------------------------------------
 ! R1    R(1,2)                  2.0311         -DE/DX =    0.0                 !
 ! R2    R(1,3)                  1.9754         -DE/DX =    0.0                 !
 ! R3    R(1,4)                  2.031          -DE/DX =    0.0                 !
 ! A1    A(2,1,3)               82.6949         -DE/DX =    0.0                 !
 ! A2    A(2,1,4)              165.3915         -DE/DX =    0.0                 !
 ! A3    A(3,1,4)               82.6965         -DE/DX =    0.0                 !
 ! D1    D(2,1,4,3)              0.0            -DE/DX =    0.0                 !
 --------------------------------------------------------------------------------
 GradGradGradGradGradGradGradGradGradGradGradGradGradGradGradGradGradGrad

                          Input orientation:                          
 ---------------------------------------------------------------------
 Center     Atomic      Atomic             Coordinates (Angstroms)
 Number     Number       Type             X           Y           Z
 ---------------------------------------------------------------------
      1         53           0       -0.125540    1.043665    0.021638
      2          9           0       -0.259651    0.811379    2.034900
      3          9           0       -1.113220   -0.667046    0.011860
      4          9           0       -0.249648    0.828703   -1.994156
 ---------------------------------------------------------------------
                    Distance matrix (angstroms):
                    1          2          3          4
     1  I    0.000000
     2  F    2.031051   0.000000
     3  F    1.975384   2.647076   0.000000
     4  F    2.031019   4.029106   2.647097   0.000000
 Stoichiometry    F3I
 Framework group  CS[SG(F3I)]
 Deg. of freedom     5
 Full point group                 CS      NOp   2
 Largest Abelian subgroup         CS      NOp   2
 Largest concise Abelian subgroup C1      NOp   1
                         Standard orientation:                         
 ---------------------------------------------------------------------
 Center     Atomic      Atomic             Coordinates (Angstroms)
 Number     Number       Type             X           Y           Z
 ---------------------------------------------------------------------
      1         53           0        0.000000    0.280331    0.000000
      2          9           0        2.014563    0.022058    0.000000
      3          9           0       -0.000019   -1.695053    0.000000
      4          9           0       -2.014543    0.022158    0.000000
 ---------------------------------------------------------------------
 Rotational constants (GHZ):      7.8376447      3.2772736      2.3109577

 **********************************************************************

            Population analysis using the SCF density.

 **********************************************************************

 Orbital symmetries:
       Occupied  (A') (A') (A') (A') (A') (A') (A') (A') (A') (A")
                 (A') (A") (A') (A") (A') (A') (A")
       Virtual   (A') (A') (A') (A") (A') (A') (A") (A") (A') (A")
                 (A') (A') (A') (A') (A') (A') (A') (A')
 The electronic state is 1-A'.
 Alpha  occ. eigenvalues --  -24.74568 -24.69492 -24.69491  -1.21748  -1.15942
 Alpha  occ. eigenvalues --   -1.15763  -0.79588  -0.52983  -0.52903  -0.48285
 Alpha  occ. eigenvalues --   -0.44919  -0.42494  -0.41165  -0.40661  -0.39823
 Alpha  occ. eigenvalues --   -0.38554  -0.33535
 Alpha virt. eigenvalues --   -0.18908  -0.12063   0.29689   0.31150   0.31908
 Alpha virt. eigenvalues --    0.64798   0.77031   0.78080   0.80990   0.85316
 Alpha virt. eigenvalues --    0.86097   0.92418   0.93159   1.02654   1.33727
 Alpha virt. eigenvalues --    1.43963   1.68906   9.67812
          Condensed to atoms (all electrons):
              1          2          3          4
     1  I    5.488261   0.013006   0.059859   0.012994
     2  F    0.013006   9.510456  -0.015933   0.000514
     3  F    0.059859  -0.015933   9.381800  -0.015932
     4  F    0.012994   0.000514  -0.015932   9.510466
 Mulliken atomic charges:
              1
     1  I    1.425880
     2  F   -0.508044
     3  F   -0.409795
     4  F   -0.508041
 Sum of Mulliken atomic charges =   0.00000
 Mulliken charges with hydrogens summed into heavy atoms:
              1
     1  I    1.425880
     2  F   -0.508044
     3  F   -0.409795
     4  F   -0.508041
 Sum of Mulliken charges with hydrogens summed into heavy atoms =   0.00000
 Electronic spatial extent (au):  <R**2>=            440.3308
 Charge=              0.0000 electrons
 Dipole moment (field-independent basis, Debye):
    X=             -0.0001    Y=              3.4295    Z=              0.0000  Tot=              3.4295
 Quadrupole moment (field-independent basis, Debye-Ang):
   XX=            -47.4430   YY=            -34.0952   ZZ=            -32.9500
   XY=              0.0004   XZ=              0.0000   YZ=              0.0000
 Traceless Quadrupole moment (field-independent basis, Debye-Ang):
   XX=             -9.2802   YY=              4.0675   ZZ=              5.2127
   XY=              0.0004   XZ=              0.0000   YZ=              0.0000
 Octapole moment (field-independent basis, Debye-Ang**2):
  XXX=             -0.0007  YYY=             20.2686  ZZZ=              0.0000  XYY=              0.0001
  XXY=              4.1809  XXZ=              0.0000  XZZ=             -0.0001  YZZ=              2.9853
  YYZ=              0.0000  XYZ=              0.0000
 Hexadecapole moment (field-independent basis, Debye-Ang**3):
 XXXX=           -354.7977 YYYY=           -133.4008 ZZZZ=            -38.5618 XXXY=              0.0043
 XXXZ=              0.0000 YYYX=              0.0025 YYYZ=              0.0000 ZZZX=              0.0000
 ZZZY=              0.0000 XXYY=            -68.1674 XXZZ=            -53.9324 YYZZ=            -27.5194
 XXYZ=              0.0000 YYXZ=              0.0000 ZZXY=              0.0009
 N-N= 9.272928103553D+01 E-N=-9.232342500197D+02  KE= 3.012632542071D+02
 Symmetry A'   KE= 2.811304907327D+02
 Symmetry A"   KE= 2.013276347440D+01
 1\1\GINC-CX1-7-36-1\FOpt\RB3LYP\LANL2DZ\F3I1\SCAN-USER-1\15-Mar-2010\0
 \\# opt b3lyp/lanl2dz geom=connectivity\\IF3 Optimisation\\0,1\I,-0.12
 55396437,1.0436653386,0.0216377107\F,-0.2596505022,0.8113785209,2.0348
 999239\F,-1.1132195494,-0.6670464191,0.011859654\F,-0.2496481773,0.828
 7030553,-1.9941564386\\Version=EM64L-G09RevA.02\State=1-A'\HF=-310.814
 5954\RMSD=2.421e-09\RMSF=1.487e-05\Dipole=0.674619,1.1684744,0.0066199
 \Quadrupole=3.6626133,3.2367779,-6.8993912,-0.3687842,0.0246495,0.0426
 942\PG=CS [SG(F3I1)]\\@


 WE LEARN WISDOM FROM FAILURE MUCH MORE THAN FROM SUCCESS.
 WE DISCOVER WHAT WILL DO BY FINDING OUT WHAT WILL NOT DO...
 AND HE WHO NEVER MADE A MISTAKE NEVER MADE A DISCOVERY
 Job cpu time:  0 days  0 hours  0 minutes 32.9 seconds.
 File lengths (MBytes):  RWF=      5 Int=      0 D2E=      0 Chk=      1 Scr=      1
 Normal termination of Gaussian 09 at Mon Mar 15 14:09:35 2010.
