 Entering Gaussian System, Link 0=g03
 Initial command:
 /apps/gaussian/g09/g09/l1.exe /home/scan-user-1/run/26216/Gau-16227.inp -scrdir=/home/scan-user-1/run/26216/
 Entering Link 1 = /apps/gaussian/g09/g09/l1.exe PID=     16228.
  
 Copyright (c) 1988,1990,1992,1993,1995,1998,2003,2009, Gaussian, Inc.
                  All Rights Reserved.
  
 This is part of the Gaussian(R) 09 program.  It is based on
 the Gaussian(R) 03 system (copyright 2003, Gaussian, Inc.),
 the Gaussian(R) 98 system (copyright 1998, Gaussian, Inc.),
 the Gaussian(R) 94 system (copyright 1995, Gaussian, Inc.),
 the Gaussian 92(TM) system (copyright 1992, Gaussian, Inc.),
 the Gaussian 90(TM) system (copyright 1990, Gaussian, Inc.),
 the Gaussian 88(TM) system (copyright 1988, Gaussian, Inc.),
 the Gaussian 86(TM) system (copyright 1986, Carnegie Mellon
 University), and the Gaussian 82(TM) system (copyright 1983,
 Carnegie Mellon University). Gaussian is a federally registered
 trademark of Gaussian, Inc.
  
 This software contains proprietary and confidential information,
 including trade secrets, belonging to Gaussian, Inc.
  
 This software is provided under written license and may be
 used, copied, transmitted, or stored only in accord with that
 written license.
  
 The following legend is applicable only to US Government
 contracts under FAR:
  
                    RESTRICTED RIGHTS LEGEND
  
 Use, reproduction and disclosure by the US Government is
 subject to restrictions as set forth in subparagraphs (a)
 and (c) of the Commercial Computer Software - Restricted
 Rights clause in FAR 52.227-19.
  
 Gaussian, Inc.
 340 Quinnipiac St., Bldg. 40, Wallingford CT 06492
  
  
 ---------------------------------------------------------------
 Warning -- This program may not be used in any manner that
 competes with the business of Gaussian, Inc. or will provide
 assistance to any competitor of Gaussian, Inc.  The licensee
 of this program is prohibited from giving any competitor of
 Gaussian, Inc. access to this program.  By using this program,
 the user acknowledges that Gaussian, Inc. is engaged in the
 business of creating and licensing software in the field of
 computational chemistry and represents and warrants to the
 licensee that it is not a competitor of Gaussian, Inc. and that
 it will not use this program in any manner prohibited above.
 ---------------------------------------------------------------
  

 Cite this work as:
 Gaussian 09, Revision A.02,
 M. J. Frisch, G. W. Trucks, H. B. Schlegel, G. E. Scuseria, 
 M. A. Robb, J. R. Cheeseman, G. Scalmani, V. Barone, B. Mennucci, 
 G. A. Petersson, H. Nakatsuji, M. Caricato, X. Li, H. P. Hratchian, 
 A. F. Izmaylov, J. Bloino, G. Zheng, J. L. Sonnenberg, M. Hada, 
 M. Ehara, K. Toyota, R. Fukuda, J. Hasegawa, M. Ishida, T. Nakajima, 
 Y. Honda, O. Kitao, H. Nakai, T. Vreven, J. A. Montgomery, Jr., 
 J. E. Peralta, F. Ogliaro, M. Bearpark, J. J. Heyd, E. Brothers, 
 K. N. Kudin, V. N. Staroverov, R. Kobayashi, J. Normand, 
 K. Raghavachari, A. Rendell, J. C. Burant, S. S. Iyengar, J. Tomasi, 
 M. Cossi, N. Rega, J. M. Millam, M. Klene, J. E. Knox, J. B. Cross, 
 V. Bakken, C. Adamo, J. Jaramillo, R. Gomperts, R. E. Stratmann, 
 O. Yazyev, A. J. Austin, R. Cammi, C. Pomelli, J. W. Ochterski, 
 R. L. Martin, K. Morokuma, V. G. Zakrzewski, G. A. Voth, 
 P. Salvador, J. J. Dannenberg, S. Dapprich, A. D. Daniels, 
 O. Farkas, J. B. Foresman, J. V. Ortiz, J. Cioslowski, 
 and D. J. Fox, Gaussian, Inc., Wallingford CT, 2009.
 
 ******************************************
 Gaussian 09:  EM64L-G09RevA.02 11-Jun-2009
                15-Mar-2010 
 ******************************************
 %nprocshared=4
 Will use up to    4 processors via shared memory.
 %mem=7000MB
 %NoSave
 %Chk=chk.chk
 %rwf=/tmp/pbs.3646625.cx1/rwf
 -------------------------------------------------
 # rb3lyp/lanl2dz pop=(nbo,full) geom=connectivity
 -------------------------------------------------
 1/38=1,57=2/1;
 2/12=2,17=6,18=5,40=1/2;
 3/5=6,6=3,11=2,16=1,25=1,30=1,74=-5,116=1/1,2,3;
 4//1;
 5/5=2,38=5/2;
 6/7=3,28=1/1,7;
 99/5=1,9=1/99;
 ----------
 [No Title]
 ----------
 Symbolic Z-matrix:
 Charge =  0 Multiplicity = 1
 Mg                   -1.33524  -0.25725  -0.01868 
 C                     0.02148   0.00731   1.74897 
 C                    -0.01261  -0.10171  -1.83012 
 C                     2.33449  -3.36683  -1.41285 
 O                    -2.59701   1.32182   0.01455 
 Mg                    1.32571   0.25907  -0.06806 
 O                     2.59422  -1.31286  -0.00771 
 Br                    2.72776   2.34352  -0.10076 
 C                     2.09075  -2.7135   -0.0511 
 C                     4.43575  -1.22465   1.67678 
 C                     4.06579  -1.16792   0.19364 
 C                    -4.077     1.19828  -0.12286 
 Br                   -2.74362  -2.33185  -0.00779 
 C                    -4.76508   1.16372   1.24223 
 C                    -2.08582   2.70722   0.21112 
 C                    -1.9271    3.45013  -1.11681 
 H                     1.89947  -4.37466  -1.41287 
 H                     3.40269  -3.4609   -1.64052 
 H                     1.85644  -2.78921  -2.21087 
 H                     1.02027  -2.64547   0.16468 
 H                     2.57105  -3.26873   0.76362 
 H                     5.52333  -1.11803   1.78349 
 H                     3.96134  -0.40317   2.22392 
 H                     4.14278  -2.17478   2.13953 
 H                     4.55964  -1.9547   -0.38787 
 H                     4.31337  -0.19425  -0.23686 
 H                    -4.42307   2.032    -0.74546 
 H                    -4.23281   0.25862  -0.65919 
 H                    -5.84994   1.07198   1.09969 
 H                    -4.42497   0.29665   1.81768 
 H                    -4.57746   2.07495   1.82316 
 H                    -1.12182   2.59181   0.71604 
 H                    -2.77224   3.22348   0.89255 
 H                    -1.53163   4.4558   -0.92425 
 H                    -2.88304   3.55669  -1.64354 
 H                    -1.21984   2.93075  -1.77135 
 H                    -0.91619   0.33818  -2.29533 
 H                     0.03359  -1.13851  -2.20494 
 H                     0.7977    0.44029  -2.35549 
 H                     0.28772  -0.97536   2.17613 
 H                    -0.93269   0.27611   2.24303 
 H                     0.72422   0.73617   2.19643 
 
                          Input orientation:                          
 ---------------------------------------------------------------------
 Center     Atomic      Atomic             Coordinates (Angstroms)
 Number     Number       Type             X           Y           Z
 ---------------------------------------------------------------------
      1         12           0       -1.335242   -0.257251   -0.018683
      2          6           0        0.021484    0.007308    1.748965
      3          6           0       -0.012606   -0.101709   -1.830117
      4          6           0        2.334493   -3.366833   -1.412851
      5          8           0       -2.597010    1.321815    0.014550
      6         12           0        1.325710    0.259072   -0.068058
      7          8           0        2.594222   -1.312861   -0.007705
      8         35           0        2.727758    2.343522   -0.100758
      9          6           0        2.090748   -2.713496   -0.051104
     10          6           0        4.435747   -1.224645    1.676784
     11          6           0        4.065791   -1.167916    0.193643
     12          6           0       -4.077003    1.198276   -0.122860
     13         35           0       -2.743619   -2.331852   -0.007792
     14          6           0       -4.765084    1.163723    1.242225
     15          6           0       -2.085821    2.707218    0.211119
     16          6           0       -1.927104    3.450130   -1.116812
     17          1           0        1.899473   -4.374655   -1.412866
     18          1           0        3.402694   -3.460895   -1.640519
     19          1           0        1.856441   -2.789209   -2.210869
     20          1           0        1.020271   -2.645472    0.164677
     21          1           0        2.571049   -3.268725    0.763617
     22          1           0        5.523326   -1.118026    1.783493
     23          1           0        3.961343   -0.403169    2.223918
     24          1           0        4.142780   -2.174779    2.139530
     25          1           0        4.559643   -1.954698   -0.387874
     26          1           0        4.313374   -0.194250   -0.236859
     27          1           0       -4.423071    2.032003   -0.745463
     28          1           0       -4.232814    0.258618   -0.659188
     29          1           0       -5.849937    1.071981    1.099687
     30          1           0       -4.424967    0.296654    1.817678
     31          1           0       -4.577456    2.074948    1.823159
     32          1           0       -1.121824    2.591812    0.716038
     33          1           0       -2.772235    3.223476    0.892552
     34          1           0       -1.531626    4.455803   -0.924245
     35          1           0       -2.883035    3.556690   -1.643542
     36          1           0       -1.219844    2.930749   -1.771349
     37          1           0       -0.916187    0.338177   -2.295327
     38          1           0        0.033588   -1.138508   -2.204935
     39          1           0        0.797702    0.440287   -2.355492
     40          1           0        0.287717   -0.975355    2.176128
     41          1           0       -0.932685    0.276107    2.243030
     42          1           0        0.724219    0.736168    2.196429
 ---------------------------------------------------------------------
                    Distance matrix (angstroms):
                    1          2          3          4          5
     1  Mg   0.000000
     2  C    2.243942   0.000000
     3  C    2.248300   3.580904   0.000000
     4  C    5.008010   5.170292   4.042774   0.000000
     5  O    2.021537   3.404796   3.479707   6.952742   0.000000
     6  Mg   2.711032   2.250769   2.241898   3.996661   4.064970
     7  O    4.068798   3.383447   3.403473   2.502138   5.821589
     8  Br   4.824803   4.025331   4.059487   5.872342   5.423130
     9  C    4.215637   3.863273   3.796105   1.529907   6.185719
    10  C    6.092190   4.583518   5.774702   4.306981   7.662059
    11  C    5.481382   4.489610   4.676080   3.226988   7.115037
    12  C    3.105908   4.660443   4.596086   7.975687   1.491483
    13  Br   2.507511   4.025377   3.968985   5.369599   3.656676
    14  C    3.920825   4.950284   5.798849   8.830592   2.496542
    15  C    3.066636   3.754360   4.044124   7.685737   1.489730
    16  C    3.911632   4.884946   4.097520   8.044864   2.501695
    17  H    5.418500   5.720631   4.699810   1.097701   7.396327
    18  H    5.944891   5.911820   4.794200   1.096236   7.849205
    19  H    4.626373   5.183422   3.295598   1.094996   6.456488
    20  H    3.359414   3.247274   3.393636   2.176266   5.370906
    21  H    4.994004   4.266566   4.840735   2.191483   6.952913
    22  H    7.143439   5.615856   6.688619   5.044046   8.661515
    23  H    5.753639   3.989556   5.684923   4.965484   7.132242
    24  H    6.192215   4.679650   6.109251   4.160566   7.884572
    25  H    6.145510   5.386134   5.139951   2.827719   7.881317
    26  H    5.653179   4.733333   4.610980   3.919721   7.079200
    27  H    3.911979   5.484125   5.018107   8.675109   2.101544
    28  H    3.012024   4.895039   4.394436   7.539325   2.064017
    29  H    4.837363   6.002389   6.635943   9.643693   3.438237
    30  H    3.636679   4.456385   5.738818   8.339530   2.764716
    31  H    4.398123   5.042905   6.238759   9.373355   2.785757
    32  H    2.950004   3.008945   3.868892   7.209975   2.069094
    33  H    3.874372   4.345348   5.107380   8.650187   2.101882
    34  H    4.803279   5.417316   4.888654   8.739522   3.440677
    35  H    4.425153   5.704686   4.653822   8.672427   2.797453
    36  H    3.639849   4.741309   3.264457   7.240260   2.770323
    37  H    2.390240   4.164733   1.107420   5.007273   3.021298
    38  H    2.725804   4.116596   1.103438   3.299544   4.230762
    39  H    3.239859   4.199590   1.107419   4.212418   4.232997
    40  H    2.822563   1.104072   4.111381   4.773807   4.274466
    41  H    2.358361   1.107606   4.192829   6.108267   2.971465
    42  H    3.183549   1.106932   4.178280   5.696885   4.016733
                    6          7          8          9         10
     6  Mg   0.000000
     7  O    2.020826   0.000000
     8  Br   2.512318   3.660004   0.000000
     9  C    3.069484   1.489009   5.097223   0.000000
    10  C    3.862411   2.497298   4.336900   3.271283   0.000000
    11  C    3.100456   1.492336   3.769244   2.519824   1.529638
    12  C    5.484015   7.129117   6.900496   7.303989   9.031953
    13  Br   4.824516   5.434233   7.197481   4.849601   7.457010
    14  C    6.295475   7.864806   7.703130   7.981727   9.515694
    15  C    4.208313   6.173469   4.837363   6.848111   7.754906
    16  C    4.675846   6.660225   4.891287   7.434323   8.375176
    17  H    4.858924   3.439729   6.895041   2.156486   5.089321
    18  H    4.541437   2.816693   6.042984   2.192270   4.131890
    19  H    3.763686   2.752791   5.617534   2.173756   4.920826
    20  H    2.929818   2.069514   5.279775   1.094125   3.996335
    21  H    3.832480   2.102589   5.680583   1.096694   2.913629
    22  H    4.790054   3.438895   4.831968   4.206407   1.097990
    23  H    3.555036   2.770686   3.803967   3.743322   1.095097
    24  H    4.328159   2.784161   5.237960   3.049578   1.096685
    25  H    3.932096   2.102228   4.681125   2.604732   2.193431
    26  H    3.026571   2.063804   2.995495   3.364695   2.176860
    27  H    6.053978   7.808636   7.186588   8.088988   9.744316
    28  H    5.589868   7.035794   7.287539   7.013606   9.099494
    29  H    7.315351   8.844072   8.754127   8.871789  10.554754
    30  H    6.052082   7.429103   7.683199   7.416730   8.991466
    31  H    6.459216   8.140165   7.559083   8.420630   9.599300
    32  H    3.470865   5.438683   3.943106   6.249433   6.809917
    33  H    5.148166   7.084326   5.657818   7.732188   8.506222
    34  H    5.148784   7.151234   4.825165   8.079778   8.639582
    35  H    5.574044   7.509250   5.944153   8.160246   9.351486
    36  H    4.064345   5.972082   4.326577   6.765853   7.819375
    37  H    3.161184   4.503567   4.702752   4.836414   6.845676
    38  H    2.861652   3.378619   4.879615   3.369196   5.869767
    39  H    2.354567   3.437021   3.525797   4.114428   5.680371
    40  H    2.763623   3.194214   4.706693   3.351510   4.185408
    41  H    3.231372   4.475455   4.813148   4.831348   5.602941
    42  H    2.391090   3.543111   3.445987   4.338086   4.229688
                   11         12         13         14         15
    11  C    0.000000
    12  C    8.485525   0.000000
    13  Br   6.911106   3.775309   0.000000
    14  C    9.193499   1.529087   4.227045   0.000000
    15  C    7.270440   2.520566   5.086536   3.259449   0.000000
    16  C    7.678439   3.268157   5.943731   4.341295   1.529873
    17  H    4.190105   8.272844   5.263609   9.063082   8.286907
    18  H    3.010249   8.941870   6.458924   9.818854   8.461559
    19  H    3.645750   7.447521   5.120867   8.449504   7.184578
    20  H    3.385144   6.390562   3.780869   7.010093   6.188801
    21  H    2.640553   8.058321   5.451468   8.584551   7.596288
    22  H    2.157434  10.058119   8.545435  10.552286   8.660483
    23  H    2.172041   8.525667   7.325085   8.920168   7.091830
    24  H    2.192299   9.168464   7.215134   9.555145   8.145436
    25  H    1.095937   9.197996   7.322864   9.966559   8.139683
    26  H    1.093003   8.505913   7.377192   9.297859   7.040518
    27  H    9.120427   1.096585   4.733703   2.195857   2.614135
    28  H    8.463401   1.093107   3.058194   2.172072   3.370854
    29  H   10.205867   2.157282   4.739388   1.098016   4.199062
    30  H    8.767863   2.167877   3.615013   1.094822   3.723366
    31  H    9.374284   2.192258   5.112262   1.096822   3.034252
    32  H    6.428048   3.373244   5.234178   3.948374   1.094327
    33  H    8.156678   2.614367   5.627887   2.887265   1.096375
    34  H    8.012925   4.211015   6.955650   5.097709   2.157251
    35  H    8.601356   3.049615   6.113104   4.194765   2.190187
    36  H    6.971240   3.725901   5.755605   4.977222   2.174870
    37  H    5.769176   3.930667   3.962497   5.292429   3.641795
    38  H    4.691770   5.166484   3.736895   6.341170   5.011868
    39  H    4.445763   5.414974   5.073205   6.664197   4.476737
    40  H    4.270968   5.390807   3.974744   5.565845   4.801696
    41  H    5.591954   4.041604   3.891932   4.059157   3.371748
    42  H    4.336219   5.352044   5.128083   5.588001   3.965201
                   16         17         18         19         20
    16  C    0.000000
    17  H    8.715366   0.000000
    18  H    8.743185   1.773825   0.000000
    19  H    7.378450   1.775472   1.779708   0.000000
    20  H    6.890979   2.500342   3.098320   2.522511   0.000000
    21  H    8.301350   2.532030   2.551163   3.096477   1.775411
    22  H    9.208079   5.827062   4.659396   5.673960   5.023063
    23  H    7.789878   5.766299   4.959400   5.458126   4.233001
    24  H    8.893079   4.742510   4.060861   4.952862   3.724468
    25  H    8.474751   3.739426   2.275144   3.365564   3.648237
    26  H    7.280068   4.968470   3.670227   4.082530   4.124833
    27  H    2.894622   9.025811   9.602898   8.051321   7.234438
    28  H    3.963769   7.722706   8.549782   6.983981   6.058663
    29  H    5.094809   9.799598  10.661467   9.233463   7.867240
    30  H    4.979454   8.500358   9.346153   8.075136   6.406179
    31  H    4.190337   9.696383  10.311422   9.018228   7.507828
    32  H    2.178193   7.886199   7.915800   6.811184   5.685219
    33  H    2.191612   9.212568   9.446005   8.198063   7.025486
    34  H    1.097663   9.486210   9.355996   8.100901   7.624043
    35  H    1.096633   9.264547   9.421088   7.940713   7.547998
    36  H    1.094711   7.951577   7.889112   6.509580   6.313521
    37  H    3.477801   5.560347   5.789167   4.180328   4.324772
    38  H    5.107242   3.818579   4.130729   2.459195   2.976499
    39  H    4.244767   5.028530   4.745144   3.401689   3.990325
    40  H    5.944224   5.199411   5.517951   4.999670   2.715117
    41  H    4.727772   6.558680   6.916838   6.083798   4.082795
    42  H    5.037129   6.366219   6.285836   5.756256   3.956154
                   21         22         23         24         25
    21  H    0.000000
    22  H    3.792307   0.000000
    23  H    3.503828   1.773354   0.000000
    24  H    2.358006   1.774654   1.782875   0.000000
    25  H    2.647094   2.518638   3.096234   2.570988   0.000000
    26  H    3.672744   2.529658   2.494593   3.098197   1.783993
    27  H    8.904648  10.735414   9.222022   9.969654   9.834165
    28  H    7.794811  10.151064   8.711743   9.159957   9.070815
    29  H    9.479856  11.602363   9.985048  10.558272  10.942257
    30  H    7.922576  10.048434   8.425258   8.922884   9.521358
    31  H    8.987691  10.593510   8.900155   9.705812  10.228064
    32  H    6.927154   7.685075   6.089516   7.243119   7.359921
    33  H    8.409280   9.405251   7.763128   8.860787   9.066941
    34  H    8.907814   9.389982   7.980805   9.249336   8.859220
    35  H    9.062435  10.210996   8.802456   9.824635   9.345884
    36  H    7.696129   8.631328   7.343151   8.373716   7.693118
    37  H    5.876027   7.760453   6.690551   7.181647   6.235412
    38  H    4.448464   6.785661   5.965125   6.069077   4.945003
    39  H    5.160462   6.472330   5.629479   6.183311   4.874390
    40  H    3.531053   5.252249   3.718227   4.037508   5.077654
    41  H    5.199101   6.620790   4.940981   5.637189   6.485662
    42  H    4.637122   5.161393   3.431882   4.490368   5.350688
                   26         27         28         29         30
    26  H    0.000000
    27  H    9.029970   0.000000
    28  H    8.568593   1.785647   0.000000
    29  H   10.328726   2.522334   2.523943   0.000000
    30  H    8.990034   3.095340   2.484600   1.774030   0.000000
    31  H    9.404243   2.573616   3.095138   1.774419   1.784828
    32  H    6.181548   3.653437   4.124718   4.981177   4.170385
    33  H    7.947470   2.613037   3.651242   3.760862   3.486211
    34  H    7.500634   3.777198   4.998303   5.847595   5.760910
    35  H    8.236298   2.345832   3.697044   4.743584   4.998543
    36  H    6.537337   3.481501   4.177939   5.756355   5.485653
    37  H    5.645270   4.191582   3.699094   6.033778   5.406484
    38  H    4.804322   5.660743   4.747998   7.100891   6.174125
    39  H    4.153456   5.690538   5.311925   7.518537   6.686722
    40  H    4.757998   6.306459   5.476943   6.559048   4.894475
    41  H    5.821703   4.919050   4.394773   5.110774   3.518150
    42  H    4.434930   6.068650   5.740625   6.673465   5.181770
                   31         32         33         34         35
    31  H    0.000000
    32  H    3.665277   0.000000
    33  H    2.333231   1.775954   0.000000
    34  H    4.742761   2.516531   2.521605   0.000000
    35  H    4.133357   3.098463   2.560289   1.775415   0.000000
    36  H    4.992639   2.512286   3.097091   1.772169   1.781668
    37  H    5.777819   3.766892   4.683208   4.383318   3.827811
    38  H    6.914736   4.876715   6.041024   5.948645   5.555784
    39  H    7.001826   4.212830   5.571390   4.857840   4.875107
    40  H    5.753159   4.104065   5.351734   6.513048   6.721829
    41  H    4.086132   2.780282   3.727562   5.278278   5.447158
    42  H    5.480823   3.007133   4.484639   5.353796   5.976036
                   36         37         38         39         40
    36  H    0.000000
    37  H    2.662366   0.000000
    38  H    4.279946   1.758079   0.000000
    39  H    3.257931   1.717982   1.760435   0.000000
    40  H    5.754386   4.813384   4.391459   4.774904   0.000000
    41  H    4.821289   4.538811   4.766467   4.916055   1.749290
    42  H    4.933440   4.798458   4.833569   4.562119   1.766425
                   41         42
    41  H    0.000000
    42  H    1.720221   0.000000
 Stoichiometry    C10H26Br2Mg2O2
 Framework group  C1[X(C10H26Br2Mg2O2)]
 Deg. of freedom   120
 Full point group                 C1      NOp   1
 Largest Abelian subgroup         C1      NOp   1
 Largest concise Abelian subgroup C1      NOp   1
                         Standard orientation:                         
 ---------------------------------------------------------------------
 Center     Atomic      Atomic             Coordinates (Angstroms)
 Number     Number       Type             X           Y           Z
 ---------------------------------------------------------------------
      1         12           0       -1.335242   -0.257251   -0.018683
      2          6           0        0.021484    0.007308    1.748965
      3          6           0       -0.012606   -0.101709   -1.830117
      4          6           0        2.334494   -3.366833   -1.412851
      5          8           0       -2.597010    1.321815    0.014550
      6         12           0        1.325710    0.259072   -0.068058
      7          8           0        2.594222   -1.312861   -0.007705
      8         35           0        2.727758    2.343522   -0.100758
      9          6           0        2.090748   -2.713496   -0.051104
     10          6           0        4.435747   -1.224644    1.676784
     11          6           0        4.065791   -1.167915    0.193643
     12          6           0       -4.077003    1.198275   -0.122860
     13         35           0       -2.743619   -2.331852   -0.007792
     14          6           0       -4.765084    1.163722    1.242225
     15          6           0       -2.085821    2.707218    0.211119
     16          6           0       -1.927104    3.450130   -1.116812
     17          1           0        1.899474   -4.374655   -1.412866
     18          1           0        3.402695   -3.460895   -1.640519
     19          1           0        1.856441   -2.789209   -2.210869
     20          1           0        1.020271   -2.645472    0.164677
     21          1           0        2.571049   -3.268725    0.763617
     22          1           0        5.523326   -1.118025    1.783493
     23          1           0        3.961343   -0.403168    2.223918
     24          1           0        4.142780   -2.174778    2.139530
     25          1           0        4.559643   -1.954697   -0.387874
     26          1           0        4.313374   -0.194249   -0.236859
     27          1           0       -4.423071    2.032002   -0.745463
     28          1           0       -4.232814    0.258617   -0.659188
     29          1           0       -5.849937    1.071980    1.099687
     30          1           0       -4.424967    0.296653    1.817678
     31          1           0       -4.577456    2.074947    1.823159
     32          1           0       -1.121824    2.591812    0.716038
     33          1           0       -2.772235    3.223476    0.892552
     34          1           0       -1.531627    4.455803   -0.924245
     35          1           0       -2.883035    3.556690   -1.643542
     36          1           0       -1.219844    2.930749   -1.771349
     37          1           0       -0.916187    0.338177   -2.295327
     38          1           0        0.033588   -1.138508   -2.204935
     39          1           0        0.797702    0.440287   -2.355492
     40          1           0        0.287717   -0.975355    2.176128
     41          1           0       -0.932685    0.276107    2.243030
     42          1           0        0.724219    0.736168    2.196429
 ---------------------------------------------------------------------
 Rotational constants (GHZ):      0.2835566      0.1602917      0.1134832
 Standard basis: LANL2DZ (5D, 7F)
 There are   192 symmetry adapted basis functions of A   symmetry.
 Integral buffers will be    131072 words long.
 Raffenetti 2 integral format.
 Two-electron integral symmetry is turned on.
   192 basis functions,   452 primitive gaussians,   192 cartesian basis functions
    60 alpha electrons       60 beta electrons
       nuclear repulsion energy       945.5424407312 Hartrees.
 NAtoms=   42 NActive=   42 NUniq=   42 SFac= 7.50D-01 NAtFMM=   80 NAOKFM=F Big=F
 One-electron integrals computed using PRISM.
   1 Symmetry operations used in ECPInt.
 ECPInt:  NShTT=    8256 NPrTT=   48008 LenC2=    7698 LenP2D=   28453.
 LDataN:  DoStor=T MaxTD1= 4 Len=   56
 NBasis=   192 RedAO= T  NBF=   192
 NBsUse=   192 1.00D-06 NBFU=   192
 Harris functional with IExCor=  402 diagonalized for initial guess.
 ExpMin= 4.04D-02 ExpMax= 7.82D+03 ExpMxC= 2.73D+02 IAcc=2 IRadAn=         0 AccDes= 0.00D+00
 HarFok:  IExCor=  402 AccDes= 0.00D+00 IRadAn=         0 IDoV= 1
 ScaDFX=  1.000000  1.000000  1.000000  1.000000
 FoFCou: FMM=F IPFlag=           0 FMFlag=      100000 FMFlg1=           0
         NFxFlg=           0 DoJE=T BraDBF=F KetDBF=T FulRan=T
         Omega=  0.000000  0.000000  1.000000  0.000000  0.000000 ICntrl=     500 IOpCl=  0
         NMat0=    1 NMatS0=    1 NMatT0=    0 NMatD0=    1 NMtDS0=    0 NMtDT0=    0
         I1Cent=           4 NGrid=           0.
 Petite list used in FoFCou.
 Initial guess orbital symmetries:
       Occupied  (A) (A) (A) (A) (A) (A) (A) (A) (A) (A) (A) (A)
                 (A) (A) (A) (A) (A) (A) (A) (A) (A) (A) (A) (A)
                 (A) (A) (A) (A) (A) (A) (A) (A) (A) (A) (A) (A)
                 (A) (A) (A) (A) (A) (A) (A) (A) (A) (A) (A) (A)
                 (A) (A) (A) (A) (A) (A) (A) (A) (A) (A) (A) (A)
       Virtual   (A) (A) (A) (A) (A) (A) (A) (A) (A) (A) (A) (A)
                 (A) (A) (A) (A) (A) (A) (A) (A) (A) (A) (A) (A)
                 (A) (A) (A) (A) (A) (A) (A) (A) (A) (A) (A) (A)
                 (A) (A) (A) (A) (A) (A) (A) (A) (A) (A) (A) (A)
                 (A) (A) (A) (A) (A) (A) (A) (A) (A) (A) (A) (A)
                 (A) (A) (A) (A) (A) (A) (A) (A) (A) (A) (A) (A)
                 (A) (A) (A) (A) (A) (A) (A) (A) (A) (A) (A) (A)
                 (A) (A) (A) (A) (A) (A) (A) (A) (A) (A) (A) (A)
                 (A) (A) (A) (A) (A) (A) (A) (A) (A) (A) (A) (A)
                 (A) (A) (A) (A) (A) (A) (A) (A) (A) (A) (A) (A)
                 (A) (A) (A) (A) (A) (A) (A) (A) (A) (A) (A) (A)
 The electronic state of the initial guess is 1-A.
 Requested convergence on RMS density matrix=1.00D-08 within 128 cycles.
 Requested convergence on MAX density matrix=1.00D-06.
 Requested convergence on             energy=1.00D-06.
 No special actions if energy rises.
 Keep R1 ints in memory in canonical form, NReq=175747862.
 SCF Done:  E(RB3LYP) =  -575.347623328     A.U. after   13 cycles
             Convg  =    0.2378D-08             -V/T =  2.0400

 **********************************************************************

            Population analysis using the SCF density.

 **********************************************************************

 Orbital symmetries:
       Occupied  (A) (A) (A) (A) (A) (A) (A) (A) (A) (A) (A) (A)
                 (A) (A) (A) (A) (A) (A) (A) (A) (A) (A) (A) (A)
                 (A) (A) (A) (A) (A) (A) (A) (A) (A) (A) (A) (A)
                 (A) (A) (A) (A) (A) (A) (A) (A) (A) (A) (A) (A)
                 (A) (A) (A) (A) (A) (A) (A) (A) (A) (A) (A) (A)
       Virtual   (A) (A) (A) (A) (A) (A) (A) (A) (A) (A) (A) (A)
                 (A) (A) (A) (A) (A) (A) (A) (A) (A) (A) (A) (A)
                 (A) (A) (A) (A) (A) (A) (A) (A) (A) (A) (A) (A)
                 (A) (A) (A) (A) (A) (A) (A) (A) (A) (A) (A) (A)
                 (A) (A) (A) (A) (A) (A) (A) (A) (A) (A) (A) (A)
                 (A) (A) (A) (A) (A) (A) (A) (A) (A) (A) (A) (A)
                 (A) (A) (A) (A) (A) (A) (A) (A) (A) (A) (A) (A)
                 (A) (A) (A) (A) (A) (A) (A) (A) (A) (A) (A) (A)
                 (A) (A) (A) (A) (A) (A) (A) (A) (A) (A) (A) (A)
                 (A) (A) (A) (A) (A) (A) (A) (A) (A) (A) (A) (A)
                 (A) (A) (A) (A) (A) (A) (A) (A) (A) (A) (A) (A)
 The electronic state is 1-A.
 Alpha  occ. eigenvalues --  -19.19768 -19.19753 -10.27467 -10.27465 -10.27033
 Alpha  occ. eigenvalues --  -10.26905 -10.20277 -10.20126 -10.20019 -10.19902
 Alpha  occ. eigenvalues --  -10.14005 -10.13973  -1.06438  -1.06392  -0.80233
 Alpha  occ. eigenvalues --   -0.80227  -0.76469  -0.76395  -0.68168  -0.67970
 Alpha  occ. eigenvalues --   -0.67610  -0.67389  -0.67146  -0.66926  -0.62336
 Alpha  occ. eigenvalues --   -0.62296  -0.53257  -0.53164  -0.52514  -0.52485
 Alpha  occ. eigenvalues --   -0.46569  -0.46497  -0.45739  -0.45622  -0.44596
 Alpha  occ. eigenvalues --   -0.44519  -0.41465  -0.41234  -0.40816  -0.40735
 Alpha  occ. eigenvalues --   -0.40082  -0.39925  -0.39443  -0.39304  -0.38681
 Alpha  occ. eigenvalues --   -0.38468  -0.38309  -0.37811  -0.36463  -0.36141
 Alpha  occ. eigenvalues --   -0.31573  -0.31416  -0.31302  -0.27246  -0.26792
 Alpha  occ. eigenvalues --   -0.24461  -0.24222  -0.24102  -0.23880  -0.23446
 Alpha virt. eigenvalues --    0.01980   0.03368   0.03402   0.03824   0.05323
 Alpha virt. eigenvalues --    0.06069   0.06530   0.06808   0.08451   0.09503
 Alpha virt. eigenvalues --    0.10420   0.10640   0.11052   0.11208   0.11666
 Alpha virt. eigenvalues --    0.11971   0.12345   0.13393   0.14116   0.15037
 Alpha virt. eigenvalues --    0.15428   0.16178   0.16749   0.17041   0.17516
 Alpha virt. eigenvalues --    0.18109   0.18337   0.18526   0.19038   0.19324
 Alpha virt. eigenvalues --    0.19781   0.20208   0.20213   0.20859   0.21148
 Alpha virt. eigenvalues --    0.22138   0.22729   0.23433   0.24052   0.24856
 Alpha virt. eigenvalues --    0.25445   0.25973   0.26619   0.27066   0.27408
 Alpha virt. eigenvalues --    0.27593   0.28218   0.29602   0.30066   0.30487
 Alpha virt. eigenvalues --    0.30695   0.32184   0.32352   0.33096   0.33432
 Alpha virt. eigenvalues --    0.33763   0.35101   0.36827   0.37318   0.37960
 Alpha virt. eigenvalues --    0.38205   0.39383   0.39693   0.40116   0.40969
 Alpha virt. eigenvalues --    0.41543   0.42246   0.43789   0.44357   0.45785
 Alpha virt. eigenvalues --    0.46470   0.47707   0.49843   0.49995   0.50829
 Alpha virt. eigenvalues --    0.51528   0.53368   0.56815   0.64273   0.65428
 Alpha virt. eigenvalues --    0.65774   0.66263   0.69689   0.72529   0.83910
 Alpha virt. eigenvalues --    0.84679   0.85765   0.89413   0.92393   0.92590
 Alpha virt. eigenvalues --    0.96677   0.97393   1.00170   1.01217   1.01781
 Alpha virt. eigenvalues --    1.04082   1.04839   1.05611   1.05941   1.07349
 Alpha virt. eigenvalues --    1.07656   1.09165   1.11270   1.12303   1.12444
 Alpha virt. eigenvalues --    1.13504   1.14305   1.15638   1.15747   1.17770
 Alpha virt. eigenvalues --    1.18163   1.18406   1.19765   1.20304   1.21472
 Alpha virt. eigenvalues --    1.22119   1.24127   1.25886   1.28104   1.29887
 Alpha virt. eigenvalues --    1.30567   1.32901   1.33581   1.35276   1.54576
 Alpha virt. eigenvalues --    1.55237   1.80917   1.82552   6.58806   7.67198
 Alpha virt. eigenvalues --   19.15582  19.29443
     Molecular Orbital Coefficients:
                           1         2         3         4         5
                           O         O         O         O         O
     Eigenvalues --   -19.19768 -19.19753 -10.27467 -10.27465 -10.27033
   1 1   Mg 1S          0.00005   0.00002   0.00012  -0.00006   0.00002
   2        2S         -0.00117   0.00057   0.00189  -0.00309   0.00120
   3        3PX         0.00011   0.00003   0.00022  -0.00024  -0.00023
   4        3PY        -0.00005  -0.00002   0.00028  -0.00006  -0.00006
   5        3PZ         0.00000  -0.00002   0.00005   0.00004   0.00003
   6        4PX        -0.00065   0.00032   0.00032  -0.00204   0.00054
   7        4PY        -0.00016  -0.00004   0.00068   0.00047   0.00077
   8        4PZ         0.00006  -0.00002  -0.00013  -0.00007   0.00022
   9 2   C  1S          0.00000   0.00000   0.00002   0.00001   0.00000
  10        2S          0.00003   0.00006   0.00015   0.00006   0.00000
  11        3S          0.00004  -0.00004  -0.00033   0.00012   0.00018
  12        4PX        -0.00001   0.00002  -0.00003   0.00006  -0.00006
  13        4PY         0.00002  -0.00002   0.00004   0.00000   0.00002
  14        4PZ        -0.00002  -0.00001  -0.00001   0.00000   0.00000
  15        5PX        -0.00002  -0.00024   0.00040  -0.00102   0.00026
  16        5PY        -0.00011   0.00013  -0.00052   0.00004  -0.00006
  17        5PZ         0.00011   0.00013   0.00013   0.00027   0.00013
  18 3   C  1S          0.00000   0.00000   0.00001   0.00000   0.00000
  19        2S          0.00002   0.00007   0.00005   0.00000   0.00001
  20        3S          0.00000  -0.00011  -0.00003   0.00006   0.00007
  21        4PX         0.00000   0.00002  -0.00002   0.00003  -0.00002
  22        4PY         0.00002  -0.00003  -0.00002   0.00002   0.00002
  23        4PZ         0.00002   0.00002  -0.00003  -0.00002   0.00001
  24        5PX        -0.00002  -0.00019   0.00025  -0.00078   0.00002
  25        5PY        -0.00013   0.00024   0.00010   0.00003  -0.00009
  26        5PZ        -0.00008  -0.00011  -0.00006  -0.00002  -0.00011
  27 4   C  1S          0.00000   0.00000   0.00001   0.00136   0.00000
  28        2S         -0.00001  -0.00009  -0.00002  -0.00057  -0.00001
  29        3S          0.00005  -0.00031   0.00022   0.00507   0.00005
  30        4PX         0.00000   0.00001   0.00000   0.00002   0.00001
  31        4PY         0.00000  -0.00008   0.00001   0.00011   0.00000
  32        4PZ         0.00000  -0.00011   0.00000   0.00020   0.00001
  33        5PX        -0.00003  -0.00006  -0.00001  -0.00007  -0.00005
  34        5PY         0.00001   0.00004  -0.00005   0.00088   0.00001
  35        5PZ         0.00001  -0.00002   0.00004   0.00237   0.00001
  36 5   O  1S          0.99883   0.00061  -0.00001   0.00000  -0.00001
  37        2S          0.00678   0.00000   0.00016   0.00002   0.00017
  38        3S         -0.00507   0.00002   0.00082  -0.00006   0.00077
  39        4PX        -0.00059   0.00000  -0.00004  -0.00001   0.00005
  40        4PY         0.00079   0.00000  -0.00004  -0.00001   0.00004
  41        4PZ         0.00004   0.00000  -0.00002   0.00000   0.00002
  42        5PX         0.00097  -0.00001   0.00062   0.00004  -0.00059
  43        5PY        -0.00129   0.00000   0.00048   0.00009  -0.00057
  44        5PZ        -0.00008   0.00001   0.00001  -0.00002  -0.00001
  45 6   Mg 1S          0.00002   0.00014   0.00005   0.00016   0.00001
  46        2S          0.00101  -0.00064  -0.00146   0.00389  -0.00081
  47        3PX        -0.00004  -0.00016   0.00013  -0.00029  -0.00004
  48        3PY        -0.00001   0.00000   0.00009  -0.00024  -0.00002
  49        3PZ         0.00000   0.00002   0.00008   0.00010  -0.00006
  50        4PX        -0.00060   0.00051   0.00083  -0.00096   0.00031
  51        4PY         0.00005  -0.00003  -0.00021  -0.00125   0.00010
  52        4PZ         0.00001   0.00009  -0.00026   0.00016  -0.00007
  53 7   O  1S         -0.00061   0.99883   0.00000  -0.00001   0.00000
  54        2S         -0.00001   0.00679   0.00000   0.00017  -0.00001
  55        3S          0.00003  -0.00512   0.00001   0.00079   0.00004
  56        4PX         0.00000   0.00057   0.00001   0.00004   0.00000
  57        4PY         0.00000  -0.00079   0.00000   0.00005   0.00000
  58        4PZ         0.00000   0.00013   0.00000   0.00000   0.00000
  59        5PX         0.00002  -0.00089  -0.00006  -0.00053   0.00000
  60        5PY        -0.00001   0.00127  -0.00004  -0.00052   0.00000
  61        5PZ         0.00001  -0.00018  -0.00003  -0.00019   0.00000
  62 8   Br 1S          0.00000   0.00000   0.00000   0.00000   0.00000
  63        2S         -0.00003   0.00001   0.00008   0.00008   0.00000
  64        3PX        -0.00001   0.00002   0.00000  -0.00002   0.00000
  65        3PY         0.00001  -0.00004   0.00000  -0.00003   0.00000
  66        3PZ         0.00000   0.00001  -0.00002   0.00000  -0.00001
  67        4PX         0.00006  -0.00007  -0.00005   0.00003   0.00000
  68        4PY        -0.00002   0.00007   0.00003   0.00003  -0.00002
  69        4PZ         0.00000  -0.00003   0.00005  -0.00002   0.00003
  70 9   C  1S          0.00000  -0.00002   0.01038   0.99771  -0.00004
  71        2S          0.00001  -0.00017   0.00019   0.01595   0.00002
  72        3S         -0.00011   0.00220  -0.00034  -0.01761  -0.00013
  73        4PX         0.00001   0.00020   0.00002   0.00035   0.00001
  74        4PY         0.00000   0.00029   0.00000   0.00062   0.00000
  75        4PZ         0.00000   0.00002   0.00001   0.00014   0.00000
  76        5PX         0.00002   0.00024  -0.00011  -0.00144   0.00001
  77        5PY         0.00001   0.00060   0.00003   0.00034   0.00001
  78        5PZ         0.00000   0.00020   0.00002   0.00063   0.00000
  79 10  C  1S          0.00000   0.00000   0.00001  -0.00002   0.00000
  80        2S         -0.00001  -0.00009   0.00003  -0.00002   0.00000
  81        3S          0.00007  -0.00026  -0.00021  -0.00051  -0.00002
  82        4PX         0.00000   0.00005   0.00001   0.00007   0.00000
  83        4PY         0.00000   0.00001   0.00000   0.00003   0.00000
  84        4PZ         0.00000   0.00012   0.00001   0.00016   0.00000
  85        5PX         0.00002  -0.00007   0.00000   0.00002  -0.00001
  86        5PY         0.00002   0.00021   0.00004   0.00107  -0.00002
  87        5PZ        -0.00004   0.00009   0.00007   0.00038  -0.00001
  88 11  C  1S          0.00000  -0.00002  -0.00002  -0.00108  -0.00019
  89        2S          0.00000  -0.00016  -0.00003  -0.00062  -0.00002
  90        3S         -0.00006   0.00213   0.00019   0.00193   0.00004
  91        4PX         0.00000  -0.00033  -0.00001  -0.00007   0.00001
  92        4PY         0.00000  -0.00010   0.00001  -0.00001   0.00000
  93        4PZ         0.00001  -0.00005  -0.00001  -0.00003   0.00000
  94        5PX        -0.00002  -0.00049   0.00001  -0.00069  -0.00003
  95        5PY         0.00001  -0.00044  -0.00012  -0.00250   0.00003
  96        5PZ        -0.00004  -0.00020   0.00013   0.00045   0.00000
  97 12  C  1S         -0.00002   0.00000  -0.00142   0.00005   0.99775
  98        2S         -0.00017   0.00000  -0.00064   0.00000   0.01583
  99        3S          0.00220  -0.00002   0.00207   0.00015  -0.01700
 100        4PX         0.00034   0.00000   0.00008   0.00001   0.00071
 101        4PY         0.00010   0.00000   0.00002  -0.00003   0.00026
 102        4PZ         0.00004   0.00000  -0.00001  -0.00002   0.00000
 103        5PX         0.00058   0.00002   0.00061  -0.00010   0.00007
 104        5PY         0.00038  -0.00001   0.00219   0.00015  -0.00137
 105        5PZ        -0.00011   0.00000   0.00072   0.00012  -0.00113
 106 13  Br 1S          0.00000   0.00000   0.00000   0.00000   0.00000
 107        2S         -0.00001  -0.00003   0.00008   0.00015   0.00004
 108        3PX        -0.00002   0.00000   0.00001  -0.00002  -0.00005
 109        3PY         0.00004   0.00000   0.00001   0.00003   0.00007
 110        3PZ         0.00001   0.00000   0.00000   0.00000  -0.00002
 111        4PX         0.00007  -0.00002   0.00001   0.00020   0.00010
 112        4PY        -0.00006   0.00000   0.00003  -0.00010  -0.00026
 113        4PZ        -0.00003   0.00000   0.00001   0.00001   0.00002
 114 14  C  1S          0.00000   0.00000  -0.00002   0.00001   0.00137
 115        2S         -0.00010   0.00000  -0.00002   0.00004  -0.00058
 116        3S         -0.00022   0.00000  -0.00057  -0.00011   0.00494
 117        4PX        -0.00008   0.00000  -0.00012   0.00000   0.00011
 118        4PY        -0.00001   0.00000  -0.00003  -0.00001   0.00005
 119        4PZ         0.00010   0.00000   0.00013   0.00001  -0.00016
 120        5PX         0.00005   0.00002   0.00000  -0.00005   0.00115
 121        5PY        -0.00018  -0.00001  -0.00100  -0.00002   0.00056
 122        5PZ         0.00006  -0.00001   0.00032   0.00012  -0.00225
 123 15  C  1S         -0.00002   0.00000   0.99771  -0.01037   0.00132
 124        2S         -0.00017   0.00001   0.01592  -0.00014  -0.00060
 125        3S          0.00220  -0.00006  -0.01747   0.00005   0.00217
 126        4PX        -0.00019  -0.00001  -0.00037  -0.00001  -0.00003
 127        4PY        -0.00029   0.00000  -0.00061   0.00002  -0.00008
 128        4PZ        -0.00005   0.00000  -0.00001   0.00001   0.00001
 129        5PX        -0.00041   0.00000   0.00098   0.00018  -0.00248
 130        5PY        -0.00057   0.00000  -0.00049   0.00001   0.00002
 131        5PZ         0.00015  -0.00004   0.00107  -0.00008  -0.00056
 132 16  C  1S          0.00000   0.00000   0.00132  -0.00001  -0.00002
 133        2S         -0.00010   0.00000  -0.00061   0.00003  -0.00003
 134        3S         -0.00023  -0.00001   0.00517  -0.00013  -0.00056
 135        4PX         0.00003  -0.00001  -0.00007  -0.00001   0.00007
 136        4PY         0.00008   0.00000  -0.00012   0.00000   0.00012
 137        4PZ        -0.00009   0.00000   0.00018   0.00000  -0.00013
 138        5PX         0.00004   0.00006  -0.00065   0.00002   0.00088
 139        5PY        -0.00012   0.00000  -0.00111   0.00010  -0.00034
 140        5PZ        -0.00003   0.00002   0.00225   0.00000  -0.00041
 141 17  H  1S          0.00000  -0.00003   0.00000  -0.00024   0.00000
 142        2S          0.00000   0.00023  -0.00008   0.00013   0.00000
 143 18  H  1S         -0.00001   0.00001  -0.00001  -0.00024  -0.00001
 144        2S          0.00002   0.00003  -0.00002   0.00002   0.00004
 145 19  H  1S          0.00000   0.00000   0.00001  -0.00025   0.00000
 146        2S         -0.00002  -0.00001  -0.00007   0.00031  -0.00001
 147 20  H  1S         -0.00002  -0.00009  -0.00001  -0.00020  -0.00003
 148        2S          0.00010  -0.00042   0.00005   0.00263   0.00015
 149 21  H  1S          0.00000  -0.00011   0.00000  -0.00017   0.00000
 150        2S          0.00003  -0.00044   0.00008   0.00344   0.00006
 151 22  H  1S          0.00000  -0.00002   0.00001  -0.00002   0.00000
 152        2S         -0.00001   0.00021   0.00000   0.00012   0.00002
 153 23  H  1S          0.00000   0.00003   0.00000   0.00011   0.00000
 154        2S          0.00002  -0.00022   0.00000  -0.00080   0.00002
 155 24  H  1S         -0.00001   0.00001   0.00001   0.00008   0.00000
 156        2S          0.00003   0.00002   0.00001   0.00000   0.00000
 157 25  H  1S          0.00000  -0.00010  -0.00001  -0.00017   0.00000
 158        2S          0.00002  -0.00058  -0.00004  -0.00079   0.00003
 159 26  H  1S         -0.00001  -0.00008   0.00001  -0.00014   0.00000
 160        2S          0.00006  -0.00029  -0.00002   0.00127  -0.00003
 161 27  H  1S         -0.00010   0.00000  -0.00018   0.00001  -0.00021
 162        2S         -0.00058   0.00003  -0.00068  -0.00014   0.00347
 163 28  H  1S         -0.00009  -0.00001  -0.00012   0.00003  -0.00016
 164        2S         -0.00033   0.00003   0.00106  -0.00014   0.00239
 165 29  H  1S         -0.00003   0.00000  -0.00003   0.00002  -0.00025
 166        2S          0.00021   0.00002   0.00024  -0.00007   0.00027
 167 30  H  1S          0.00003   0.00000   0.00009   0.00003  -0.00026
 168        2S         -0.00018   0.00002  -0.00067  -0.00017   0.00046
 169 31  H  1S          0.00000   0.00000   0.00007   0.00002  -0.00024
 170        2S          0.00003   0.00002   0.00000  -0.00008   0.00002
 171 32  H  1S         -0.00009  -0.00001  -0.00022   0.00001  -0.00011
 172        2S         -0.00033   0.00008   0.00275  -0.00008   0.00101
 173 33  H  1S         -0.00011   0.00000  -0.00017   0.00000  -0.00018
 174        2S         -0.00052   0.00004   0.00335   0.00005  -0.00080
 175 34  H  1S         -0.00004   0.00000  -0.00026   0.00001  -0.00004
 176        2S          0.00029  -0.00001   0.00022  -0.00007   0.00033
 177 35  H  1S          0.00000  -0.00001  -0.00024   0.00000   0.00008
 178        2S         -0.00001   0.00005   0.00001   0.00002  -0.00005
 179 36  H  1S          0.00000   0.00000  -0.00026   0.00000   0.00009
 180        2S         -0.00003   0.00001   0.00035   0.00004  -0.00070
 181 37  H  1S          0.00001   0.00003   0.00007   0.00002   0.00004
 182        2S          0.00003  -0.00021  -0.00025  -0.00040  -0.00022
 183 38  H  1S          0.00000   0.00001  -0.00001  -0.00002  -0.00002
 184        2S         -0.00004   0.00014   0.00005   0.00007   0.00001
 185 39  H  1S          0.00001   0.00000   0.00002   0.00002   0.00002
 186        2S         -0.00002   0.00009  -0.00017   0.00017  -0.00009
 187 40  H  1S          0.00000   0.00004   0.00003   0.00003   0.00001
 188        2S         -0.00008   0.00000  -0.00029  -0.00007  -0.00016
 189 41  H  1S          0.00003   0.00003   0.00003   0.00003   0.00006
 190        2S         -0.00008  -0.00021   0.00014  -0.00062  -0.00023
 191 42  H  1S          0.00000   0.00001   0.00000   0.00004   0.00002
 192        2S         -0.00002   0.00004   0.00026   0.00009  -0.00021
                           6         7         8         9        10
                           O         O         O         O         O
     Eigenvalues --   -10.26905 -10.20277 -10.20126 -10.20019 -10.19902
   1 1   Mg 1S         -0.00002  -0.00012  -0.00018  -0.00007  -0.00010
   2        2S         -0.00194  -0.00221   0.00219  -0.00045   0.00136
   3        3PX         0.00003  -0.00017   0.00005  -0.00005   0.00009
   4        3PY        -0.00004  -0.00003  -0.00009  -0.00009  -0.00010
   5        3PZ        -0.00003   0.00010   0.00014   0.00000  -0.00020
   6        4PX        -0.00103  -0.00107   0.00043  -0.00040   0.00001
   7        4PY        -0.00012  -0.00009   0.00102   0.00024   0.00103
   8        4PZ        -0.00010   0.00002   0.00033   0.00020  -0.00070
   9 2   C  1S          0.00001   0.00002   0.00001   0.00000  -0.00001
  10        2S          0.00007   0.00006   0.00003  -0.00002  -0.00003
  11        3S          0.00002  -0.00032  -0.00014   0.00013   0.00015
  12        4PX         0.00009   0.00002  -0.00003   0.00003   0.00001
  13        4PY        -0.00003   0.00003  -0.00002  -0.00004   0.00004
  14        4PZ        -0.00001   0.00003   0.00002  -0.00001  -0.00002
  15        5PX        -0.00081  -0.00024   0.00046  -0.00040  -0.00027
  16        5PY         0.00021   0.00011   0.00021   0.00025  -0.00031
  17        5PZ         0.00021  -0.00015  -0.00012   0.00006   0.00008
  18 3   C  1S          0.00000   0.00000   0.00000   0.00001   0.00003
  19        2S          0.00001   0.00001   0.00000   0.00005   0.00011
  20        3S         -0.00009   0.00029   0.00020   0.00005  -0.00023
  21        4PX         0.00004   0.00010  -0.00004   0.00004  -0.00004
  22        4PY        -0.00003  -0.00007   0.00010  -0.00001   0.00000
  23        4PZ         0.00001   0.00001   0.00002  -0.00002  -0.00002
  24        5PX        -0.00037  -0.00108  -0.00004  -0.00045   0.00044
  25        5PY         0.00031   0.00016  -0.00062   0.00022   0.00002
  26        5PZ         0.00004  -0.00013  -0.00005  -0.00013  -0.00006
  27 4   C  1S         -0.00003   0.99767  -0.00002   0.00040   0.00003
  28        2S         -0.00006   0.01628   0.00000  -0.00011  -0.00002
  29        3S         -0.00048  -0.01868  -0.00001   0.00041   0.00017
  30        4PX        -0.00002   0.00004   0.00001   0.00000   0.00000
  31        4PY        -0.00011  -0.00003   0.00001  -0.00001   0.00001
  32        4PZ        -0.00015   0.00008   0.00001   0.00000   0.00001
  33        5PX        -0.00069   0.00018  -0.00009   0.00006  -0.00004
  34        5PY         0.00030  -0.00063  -0.00002   0.00036  -0.00001
  35        5PZ        -0.00063  -0.00099   0.00002  -0.00004   0.00002
  36 5   O  1S          0.00000   0.00000   0.00000   0.00000   0.00000
  37        2S         -0.00001  -0.00001  -0.00019  -0.00002  -0.00019
  38        3S          0.00004   0.00003   0.00013   0.00007   0.00014
  39        4PX         0.00000   0.00000  -0.00001   0.00000   0.00010
  40        4PY         0.00000   0.00000  -0.00011  -0.00001   0.00000
  41        4PZ         0.00000   0.00000   0.00005   0.00000  -0.00006
  42        5PX         0.00004   0.00006  -0.00004   0.00005  -0.00023
  43        5PY        -0.00003   0.00002   0.00024   0.00005   0.00006
  44        5PZ        -0.00001  -0.00001  -0.00014   0.00001   0.00016
  45 6   Mg 1S          0.00011  -0.00006   0.00004   0.00000   0.00000
  46        2S          0.00246   0.00288  -0.00165   0.00118  -0.00065
  47        3PX         0.00016  -0.00008  -0.00001  -0.00019   0.00004
  48        3PY        -0.00002  -0.00003   0.00010   0.00009   0.00003
  49        3PZ         0.00017  -0.00014  -0.00021  -0.00006   0.00011
  50        4PX        -0.00085  -0.00080   0.00106   0.00038   0.00051
  51        4PY        -0.00117  -0.00111  -0.00010  -0.00110  -0.00016
  52        4PZ         0.00031   0.00052   0.00014  -0.00062   0.00028
  53 7   O  1S         -0.00001   0.00000   0.00000   0.00000   0.00000
  54        2S          0.00019  -0.00016  -0.00001  -0.00017  -0.00001
  55        3S          0.00074   0.00005   0.00004   0.00009   0.00004
  56        4PX        -0.00005  -0.00002   0.00001  -0.00008   0.00000
  57        4PY        -0.00004   0.00011   0.00000   0.00000   0.00000
  58        4PZ         0.00001   0.00005   0.00000  -0.00008   0.00000
  59        5PX         0.00064   0.00018  -0.00011   0.00019  -0.00004
  60        5PY         0.00050  -0.00030   0.00000  -0.00002  -0.00005
  61        5PZ         0.00015  -0.00003   0.00001   0.00021  -0.00002
  62 8   Br 1S          0.00000   0.00000   0.00000   0.00000   0.00000
  63        2S          0.00004   0.00007   0.00003   0.00005   0.00001
  64        3PX         0.00007  -0.00001   0.00003   0.00008   0.00002
  65        3PY        -0.00010  -0.00005   0.00000  -0.00010  -0.00001
  66        3PZ         0.00000   0.00006   0.00002  -0.00003   0.00002
  67        4PX        -0.00016   0.00002  -0.00011  -0.00020  -0.00005
  68        4PY         0.00033   0.00014   0.00002   0.00024   0.00003
  69        4PZ        -0.00004  -0.00015  -0.00005   0.00012  -0.00006
  70 9   C  1S          0.00099  -0.00140   0.00000   0.00003   0.00000
  71        2S         -0.00059  -0.00049   0.00003  -0.00001   0.00005
  72        3S          0.00200   0.00423  -0.00022  -0.00015  -0.00031
  73        4PX         0.00003  -0.00003   0.00002  -0.00006   0.00002
  74        4PY         0.00008  -0.00006   0.00000  -0.00008   0.00000
  75        4PZ         0.00003   0.00002   0.00000  -0.00001   0.00000
  76        5PX         0.00253   0.00045   0.00004   0.00000  -0.00002
  77        5PY        -0.00001  -0.00130  -0.00002   0.00001  -0.00004
  78        5PZ         0.00004  -0.00314  -0.00004   0.00016   0.00005
  79 10  C  1S          0.00142  -0.00042   0.00006   0.99766   0.00005
  80        2S         -0.00058  -0.00012   0.00001   0.01622  -0.00001
  81        3S          0.00509   0.00057   0.00001  -0.01835   0.00008
  82        4PX        -0.00008  -0.00001   0.00000   0.00003   0.00000
  83        4PY        -0.00003  -0.00001   0.00001  -0.00005   0.00001
  84        4PZ        -0.00019   0.00000   0.00001  -0.00006   0.00001
  85        5PX        -0.00054  -0.00017   0.00006   0.00032   0.00003
  86        5PY        -0.00036   0.00023   0.00000  -0.00007   0.00002
  87        5PZ        -0.00245  -0.00009   0.00004   0.00117   0.00003
  88 11  C  1S          0.99776   0.00004   0.00000  -0.00146   0.00000
  89        2S          0.01589  -0.00004  -0.00002  -0.00051   0.00000
  90        3S         -0.01727  -0.00025   0.00016   0.00427   0.00003
  91        4PX        -0.00069   0.00010   0.00000   0.00006   0.00000
  92        4PY        -0.00026   0.00006   0.00001   0.00002   0.00001
  93        4PZ        -0.00016   0.00003  -0.00001  -0.00001   0.00000
  94        5PX         0.00018  -0.00005  -0.00003   0.00072  -0.00001
  95        5PY         0.00137  -0.00018  -0.00004  -0.00024  -0.00010
  96        5PZ        -0.00101  -0.00025   0.00000   0.00320  -0.00003
  97 12  C  1S          0.00018   0.00000   0.00004   0.00000  -0.00141
  98        2S         -0.00002  -0.00001  -0.00003   0.00000  -0.00051
  99        3S          0.00009   0.00007  -0.00017   0.00000   0.00429
 100        4PX        -0.00001   0.00000  -0.00009   0.00000  -0.00006
 101        4PY         0.00000  -0.00001  -0.00005  -0.00001  -0.00001
 102        4PZ        -0.00001   0.00000  -0.00001   0.00000  -0.00002
 103        5PX         0.00002   0.00004   0.00002   0.00004  -0.00141
 104        5PY        -0.00001   0.00004   0.00006   0.00006  -0.00011
 105        5PZ         0.00001  -0.00004  -0.00009   0.00000   0.00296
 106 13  Br 1S          0.00000   0.00000   0.00000   0.00000   0.00000
 107        2S          0.00000   0.00004   0.00006   0.00003   0.00007
 108        3PX        -0.00003  -0.00001   0.00000  -0.00001  -0.00006
 109        3PY         0.00001   0.00001   0.00006   0.00002   0.00011
 110        3PZ        -0.00001   0.00000   0.00003   0.00001  -0.00004
 111        4PX         0.00009   0.00008   0.00001   0.00004   0.00016
 112        4PY        -0.00002  -0.00002  -0.00016  -0.00005  -0.00025
 113        4PZ         0.00002   0.00000  -0.00010  -0.00004   0.00014
 114 14  C  1S          0.00000  -0.00004  -0.00046  -0.00005   0.99766
 115        2S          0.00000  -0.00001  -0.00011  -0.00001   0.01622
 116        3S         -0.00004   0.00004   0.00037   0.00006  -0.01838
 117        4PX        -0.00001  -0.00001  -0.00001   0.00000  -0.00001
 118        4PY         0.00000  -0.00001   0.00001   0.00000   0.00007
 119        4PZ         0.00000   0.00000   0.00000   0.00001  -0.00008
 120        5PX         0.00006   0.00005   0.00032  -0.00003  -0.00058
 121        5PY         0.00003   0.00002  -0.00014  -0.00002   0.00002
 122        5PZ         0.00004   0.00002   0.00001   0.00000   0.00106
 123 15  C  1S          0.00001   0.00000  -0.00137   0.00000   0.00003
 124        2S         -0.00001  -0.00001  -0.00052   0.00004  -0.00001
 125        3S          0.00002   0.00001   0.00439  -0.00030  -0.00017
 126        4PX        -0.00001  -0.00001   0.00004  -0.00002   0.00008
 127        4PY        -0.00001   0.00000   0.00006   0.00000   0.00008
 128        4PZ         0.00000   0.00000   0.00002   0.00000   0.00000
 129        5PX         0.00002   0.00007   0.00026   0.00004  -0.00028
 130        5PY         0.00000  -0.00001   0.00153   0.00005   0.00002
 131        5PZ        -0.00003  -0.00004  -0.00288  -0.00011   0.00020
 132 16  C  1S          0.00000   0.00002   0.99766  -0.00006   0.00044
 133        2S         -0.00001   0.00001   0.01627   0.00000  -0.00010
 134        3S         -0.00005  -0.00012  -0.01869  -0.00001   0.00041
 135        4PX        -0.00002  -0.00002  -0.00007  -0.00002   0.00000
 136        4PY         0.00000   0.00001   0.00002  -0.00001   0.00001
 137        4PZ         0.00000   0.00001   0.00008   0.00000   0.00000
 138        5PX         0.00010   0.00006   0.00017   0.00011   0.00006
 139        5PY        -0.00001  -0.00002   0.00063   0.00002  -0.00037
 140        5PZ         0.00003   0.00002  -0.00093   0.00003  -0.00004
 141 17  H  1S         -0.00004  -0.00025   0.00000  -0.00005   0.00000
 142        2S          0.00026   0.00320  -0.00003   0.00023  -0.00004
 143 18  H  1S          0.00009  -0.00028  -0.00001  -0.00001  -0.00001
 144        2S         -0.00015   0.00335   0.00007  -0.00008   0.00000
 145 19  H  1S          0.00009  -0.00030  -0.00001   0.00003   0.00001
 146        2S         -0.00073   0.00347   0.00005  -0.00042  -0.00004
 147 20  H  1S         -0.00013  -0.00023  -0.00003   0.00002  -0.00003
 148        2S          0.00109   0.00043   0.00023  -0.00019   0.00022
 149 21  H  1S         -0.00016  -0.00025   0.00001   0.00005   0.00001
 150        2S         -0.00081   0.00075   0.00004  -0.00033   0.00001
 151 22  H  1S         -0.00025  -0.00004   0.00001  -0.00027   0.00000
 152        2S          0.00016   0.00008  -0.00006   0.00323  -0.00005
 153 23  H  1S         -0.00024   0.00005   0.00002  -0.00027   0.00002
 154        2S          0.00031  -0.00047  -0.00010   0.00330  -0.00011
 155 24  H  1S         -0.00023  -0.00003   0.00001  -0.00027   0.00001
 156        2S         -0.00003   0.00007  -0.00003   0.00323  -0.00004
 157 25  H  1S         -0.00020   0.00004   0.00000  -0.00024   0.00001
 158        2S          0.00349  -0.00030  -0.00006   0.00055  -0.00008
 159 26  H  1S         -0.00016   0.00001   0.00002  -0.00026   0.00000
 160        2S          0.00251  -0.00001  -0.00013   0.00066   0.00000
 161 27  H  1S         -0.00001   0.00000   0.00005   0.00000  -0.00025
 162        2S          0.00000  -0.00005  -0.00026  -0.00004   0.00062
 163 28  H  1S          0.00001   0.00000   0.00001   0.00000  -0.00025
 164        2S         -0.00009  -0.00005  -0.00006   0.00002   0.00058
 165 29  H  1S         -0.00001   0.00000  -0.00005   0.00000  -0.00027
 166        2S          0.00006   0.00004   0.00021  -0.00003   0.00323
 167 30  H  1S          0.00000   0.00000   0.00003   0.00001  -0.00028
 168        2S         -0.00003  -0.00003  -0.00038  -0.00008   0.00337
 169 31  H  1S          0.00001   0.00000  -0.00003   0.00000  -0.00028
 170        2S         -0.00004  -0.00004   0.00004  -0.00002   0.00326
 171 32  H  1S         -0.00001  -0.00001  -0.00023  -0.00004   0.00002
 172        2S          0.00007   0.00004   0.00048   0.00025  -0.00006
 173 33  H  1S         -0.00001  -0.00001  -0.00025   0.00000   0.00006
 174        2S          0.00005   0.00007   0.00055   0.00010  -0.00042
 175 34  H  1S          0.00000   0.00000  -0.00026   0.00000  -0.00005
 176        2S          0.00000   0.00004   0.00327  -0.00004   0.00022
 177 35  H  1S         -0.00001  -0.00001  -0.00028  -0.00001  -0.00002
 178        2S          0.00010   0.00009   0.00340   0.00008   0.00000
 179 36  H  1S         -0.00001  -0.00002  -0.00032   0.00000   0.00003
 180        2S          0.00005   0.00011   0.00355  -0.00001  -0.00043
 181 37  H  1S          0.00002   0.00003   0.00007   0.00001   0.00006
 182        2S         -0.00022  -0.00061  -0.00019  -0.00031  -0.00014
 183 38  H  1S         -0.00003   0.00010   0.00001   0.00002   0.00001
 184        2S          0.00023  -0.00035  -0.00032  -0.00004   0.00000
 185 39  H  1S          0.00000  -0.00004  -0.00003   0.00008   0.00001
 186        2S          0.00009   0.00043   0.00034  -0.00028  -0.00015
 187 40  H  1S          0.00005  -0.00006  -0.00001   0.00001  -0.00002
 188        2S         -0.00002   0.00025   0.00011   0.00009  -0.00005
 189 41  H  1S          0.00004  -0.00001  -0.00002   0.00003   0.00003
 190        2S         -0.00052   0.00004   0.00016  -0.00034  -0.00022
 191 42  H  1S          0.00004   0.00008   0.00003  -0.00003  -0.00001
 192        2S         -0.00003  -0.00022  -0.00027   0.00021   0.00018
                          11        12        13        14        15
                           O         O         O         O         O
     Eigenvalues --   -10.14005 -10.13973  -1.06438  -1.06392  -0.80233
   1 1   Mg 1S          0.00065   0.00066   0.01852   0.00064   0.00036
   2        2S          0.00023   0.00003   0.01047   0.00591   0.00806
   3        3PX         0.00041   0.00032  -0.00805   0.00060   0.00254
   4        3PY         0.00028   0.00018   0.01060  -0.00005   0.00118
   5        3PZ         0.00091  -0.00097  -0.00010   0.00024  -0.00076
   6        4PX         0.00061   0.00042   0.01096   0.00385   0.01156
   7        4PY         0.00041   0.00048  -0.00497   0.00084   0.00207
   8        4PZ        -0.00005  -0.00008  -0.00165   0.00039  -0.00429
   9 2   C  1S          0.99755  -0.01316  -0.00044  -0.00041  -0.00141
  10        2S          0.01574   0.00027   0.00125   0.00126   0.00240
  11        3S         -0.01483  -0.00139  -0.00494  -0.00490   0.00298
  12        4PX         0.00001   0.00002  -0.00021  -0.00007  -0.00047
  13        4PY         0.00004   0.00000  -0.00028   0.00016   0.00089
  14        4PZ         0.00076   0.00008  -0.00004  -0.00012  -0.00018
  15        5PX        -0.00033  -0.00024   0.00194   0.00377  -0.00181
  16        5PY         0.00022  -0.00030   0.00508  -0.00012   0.00146
  17        5PZ        -0.00077   0.00021  -0.00180  -0.00128   0.00175
  18 3   C  1S          0.01322   0.99755  -0.00030  -0.00041  -0.00106
  19        2S          0.00068   0.01579   0.00155   0.00104   0.00270
  20        3S         -0.00177  -0.01492  -0.00502  -0.00234  -0.00139
  21        4PX         0.00001  -0.00004  -0.00031   0.00004  -0.00035
  22        4PY        -0.00001   0.00001  -0.00026   0.00028   0.00040
  23        4PZ        -0.00010  -0.00074  -0.00001  -0.00007  -0.00003
  24        5PX        -0.00040   0.00001   0.00387   0.00392   0.00283
  25        5PY        -0.00023   0.00043   0.00265  -0.00202   0.00267
  26        5PZ        -0.00017   0.00068   0.00065   0.00044  -0.00108
  27 4   C  1S         -0.00001   0.00000  -0.00009  -0.01343  -0.00568
  28        2S          0.00007   0.00004   0.00012   0.02589   0.01106
  29        3S         -0.00028  -0.00009   0.00051   0.01053   0.00948
  30        4PX        -0.00001  -0.00004  -0.00015  -0.00062  -0.00072
  31        4PY         0.00001  -0.00001   0.00007   0.01216   0.00117
  32        4PZ        -0.00004  -0.00006   0.00007   0.01502   0.00276
  33        5PX        -0.00011   0.00039   0.00161   0.00183   0.00091
  34        5PY        -0.00011   0.00015   0.00023   0.00812   0.00069
  35        5PZ        -0.00030  -0.00044  -0.00018  -0.01003  -0.00013
  36 5   O  1S          0.00000   0.00000  -0.21694   0.00143   0.00342
  37        2S          0.00007   0.00007   0.45436  -0.00293  -0.00726
  38        3S         -0.00012  -0.00011   0.43513  -0.00302  -0.00897
  39        4PX         0.00004   0.00004  -0.05275   0.00045   0.14307
  40        4PY        -0.00001  -0.00002   0.07245  -0.00050   0.10934
  41        4PZ         0.00004  -0.00006   0.00398  -0.00003   0.00993
  42        5PX        -0.00035  -0.00030  -0.00513  -0.00088   0.03108
  43        5PY         0.00018   0.00017   0.00833   0.00001   0.02436
  44        5PZ        -0.00019   0.00022   0.00103  -0.00003   0.00210
  45 6   Mg 1S          0.00077   0.00065   0.00062   0.01814   0.00094
  46        2S          0.00159   0.00187  -0.01351  -0.00858  -0.00944
  47        3PX        -0.00046  -0.00044   0.00071   0.00946   0.00098
  48        3PY        -0.00035  -0.00041  -0.00100  -0.01157  -0.00073
  49        3PZ         0.00083  -0.00081   0.00021   0.00073   0.00094
  50        4PX        -0.00090  -0.00136   0.00464  -0.00290   0.00051
  51        4PY        -0.00096  -0.00091   0.00259   0.00797   0.00525
  52        4PZ         0.00011   0.00002   0.00005  -0.00328   0.00043
  53 7   O  1S          0.00000   0.00000  -0.00142  -0.21694   0.00024
  54        2S          0.00011   0.00013   0.00302   0.45436  -0.00053
  55        3S         -0.00030  -0.00031   0.00274   0.43552  -0.00052
  56        4PX        -0.00002  -0.00004   0.00026   0.05214  -0.00774
  57        4PY         0.00000   0.00001  -0.00043  -0.07236  -0.00615
  58        4PZ        -0.00001  -0.00002   0.00005   0.01140  -0.00174
  59        5PX         0.00033   0.00043   0.00072   0.00477  -0.00160
  60        5PY        -0.00012  -0.00011  -0.00021  -0.00874  -0.00154
  61        5PZ         0.00001   0.00017   0.00016   0.00288  -0.00055
  62 8   Br 1S          0.00001   0.00001   0.00005   0.00051   0.00015
  63        2S          0.00013   0.00018   0.00033   0.00051  -0.00017
  64        3PX        -0.00010  -0.00012   0.00005  -0.00059  -0.00022
  65        3PY        -0.00005  -0.00006  -0.00006   0.00026  -0.00002
  66        3PZ         0.00010  -0.00008   0.00002  -0.00018  -0.00001
  67        4PX         0.00024   0.00030  -0.00047   0.00186   0.00013
  68        4PY         0.00009   0.00007  -0.00005  -0.00217   0.00019
  69        4PZ        -0.00025   0.00021  -0.00006   0.00073  -0.00005
  70 9   C  1S         -0.00001  -0.00001  -0.00045  -0.06615  -0.00692
  71        2S          0.00002  -0.00005   0.00071   0.13039   0.01405
  72        3S          0.00056   0.00079   0.00195   0.07304   0.01189
  73        4PX        -0.00010  -0.00006   0.00004   0.03703  -0.00039
  74        4PY         0.00005   0.00006   0.00056   0.08832  -0.00021
  75        4PZ         0.00003   0.00005   0.00004   0.00447  -0.00221
  76        5PX         0.00026  -0.00028  -0.00064   0.00103  -0.00089
  77        5PY        -0.00049  -0.00043   0.00036  -0.02464   0.00035
  78        5PZ        -0.00011  -0.00031   0.00003   0.00243   0.00152
  79 10  C  1S          0.00000  -0.00001  -0.00009  -0.01310   0.00524
  80        2S         -0.00003   0.00006   0.00014   0.02562  -0.01060
  81        3S          0.00036  -0.00025   0.00007   0.00837  -0.00746
  82        4PX        -0.00004   0.00000  -0.00002  -0.00923   0.00068
  83        4PY         0.00000  -0.00002  -0.00001  -0.00024  -0.00022
  84        4PZ        -0.00002   0.00000  -0.00016  -0.01658   0.00276
  85        5PX         0.00031   0.00015  -0.00062  -0.00842  -0.00120
  86        5PY         0.00008   0.00002  -0.00044   0.00163  -0.00016
  87        5PZ        -0.00008  -0.00004  -0.00008   0.00712  -0.00110
  88 11  C  1S          0.00000   0.00000  -0.00042  -0.06448   0.00657
  89        2S          0.00009   0.00002   0.00086   0.12692  -0.01359
  90        3S         -0.00053  -0.00041  -0.00006   0.07252  -0.01056
  91        4PX         0.00001   0.00003  -0.00052  -0.09183   0.00053
  92        4PY         0.00000  -0.00002  -0.00010  -0.01522  -0.00067
  93        4PZ         0.00002  -0.00002  -0.00006  -0.01277  -0.00183
  94        5PX         0.00002  -0.00002   0.00028   0.02189  -0.00058
  95        5PY         0.00002   0.00014   0.00051  -0.00459   0.00012
  96        5PZ        -0.00008   0.00031  -0.00014   0.00078  -0.00065
  97 12  C  1S          0.00000   0.00000  -0.06462   0.00044   0.11773
  98        2S          0.00004   0.00000   0.12737  -0.00074  -0.24245
  99        3S         -0.00047  -0.00005   0.07137  -0.00167  -0.19113
 100        4PX        -0.00003   0.00000   0.09279  -0.00068  -0.00148
 101        4PY         0.00000  -0.00001   0.01378  -0.00005   0.01498
 102        4PZ         0.00004  -0.00005   0.00868  -0.00005  -0.03324
 103        5PX         0.00003  -0.00018  -0.02147  -0.00009   0.00548
 104        5PY        -0.00032  -0.00023   0.00655  -0.00023  -0.00325
 105        5PZ        -0.00008   0.00026  -0.00343   0.00026   0.00786
 106 13  Br 1S          0.00000   0.00000   0.00049   0.00003  -0.00312
 107        2S          0.00010   0.00007   0.00033   0.00024  -0.00679
 108        3PX         0.00008   0.00007   0.00067   0.00006  -0.00002
 109        3PY         0.00000   0.00000  -0.00031   0.00001  -0.00121
 110        3PZ         0.00002  -0.00003  -0.00009   0.00000  -0.00033
 111        4PX        -0.00022  -0.00022  -0.00248  -0.00023   0.00088
 112        4PY         0.00001  -0.00002   0.00211  -0.00002  -0.00249
 113        4PZ        -0.00010   0.00014   0.00033  -0.00003   0.00110
 114 14  C  1S          0.00000  -0.00002  -0.01308   0.00009   0.09300
 115        2S         -0.00004   0.00012   0.02549  -0.00014  -0.18453
 116        3S          0.00035  -0.00049   0.00892  -0.00002  -0.14201
 117        4PX         0.00006   0.00000   0.01268  -0.00003  -0.02188
 118        4PY         0.00001   0.00002   0.00114   0.00002   0.00091
 119        4PZ         0.00000  -0.00001  -0.01409   0.00006   0.04723
 120        5PX        -0.00033  -0.00013   0.00639  -0.00042   0.00374
 121        5PY         0.00010  -0.00001  -0.00306  -0.00001  -0.00031
 122        5PZ        -0.00017   0.00006   0.00845  -0.00029  -0.01098
 123 15  C  1S         -0.00001   0.00000  -0.06600   0.00044  -0.12310
 124        2S          0.00014   0.00004   0.13005  -0.00077   0.25349
 125        3S         -0.00035   0.00022   0.07392   0.00014   0.20067
 126        4PX         0.00006   0.00007  -0.03775   0.00039   0.01651
 127        4PY        -0.00003  -0.00004  -0.08713   0.00054   0.00390
 128        4PZ         0.00001  -0.00001  -0.01180   0.00017  -0.03514
 129        5PX        -0.00056  -0.00026  -0.00093   0.00053   0.00049
 130        5PY         0.00015   0.00034   0.02427  -0.00009   0.00444
 131        5PZ         0.00009   0.00014   0.00360   0.00018   0.00780
 132 16  C  1S         -0.00001   0.00000  -0.01328   0.00009  -0.10001
 133        2S          0.00001   0.00001   0.02598  -0.00015   0.19856
 134        3S          0.00029   0.00012   0.00921   0.00092   0.15311
 135        4PX         0.00003   0.00001  -0.00380   0.00021  -0.00273
 136        4PY        -0.00005  -0.00003  -0.01303   0.00005  -0.02521
 137        4PZ         0.00002  -0.00004   0.01358  -0.00016   0.04842
 138        5PX         0.00017   0.00018   0.00216  -0.00133  -0.00076
 139        5PY         0.00013   0.00005  -0.00571   0.00025   0.00529
 140        5PZ        -0.00003  -0.00005  -0.01013  -0.00069  -0.01077
 141 17  H  1S          0.00004  -0.00001  -0.00002   0.00315   0.00294
 142        2S         -0.00019   0.00012   0.00052  -0.00002   0.00105
 143 18  H  1S          0.00003   0.00005   0.00011   0.00488   0.00287
 144        2S         -0.00005  -0.00038  -0.00116  -0.00081  -0.00027
 145 19  H  1S          0.00006   0.00013   0.00009   0.00521   0.00293
 146        2S         -0.00033  -0.00069  -0.00004  -0.00564   0.00049
 147 20  H  1S          0.00015   0.00015   0.00027   0.02121   0.00409
 148        2S         -0.00074  -0.00104  -0.00164   0.00102  -0.00037
 149 21  H  1S          0.00003  -0.00001   0.00010   0.02220   0.00354
 150        2S         -0.00038  -0.00008   0.00015  -0.00877  -0.00010
 151 22  H  1S          0.00002   0.00001  -0.00001   0.00312  -0.00289
 152        2S         -0.00032  -0.00007   0.00046   0.00023   0.00099
 153 23  H  1S          0.00003   0.00000  -0.00004   0.00469  -0.00288
 154        2S         -0.00009   0.00009   0.00038  -0.00247   0.00060
 155 24  H  1S         -0.00001   0.00000   0.00001   0.00477  -0.00273
 156        2S          0.00006   0.00011  -0.00010   0.00045   0.00020
 157 25  H  1S          0.00004  -0.00002   0.00015   0.02188  -0.00335
 158        2S         -0.00002   0.00030   0.00025  -0.00856   0.00027
 159 26  H  1S         -0.00001  -0.00004   0.00013   0.02030  -0.00383
 160        2S          0.00015   0.00027  -0.00011  -0.00142   0.00037
 161 27  H  1S          0.00004  -0.00003   0.02184  -0.00013  -0.06010
 162        2S          0.00012   0.00024  -0.00863   0.00047   0.00567
 163 28  H  1S         -0.00001   0.00001   0.02035  -0.00018  -0.06807
 164        2S          0.00002  -0.00002   0.00011   0.00062  -0.00045
 165 29  H  1S          0.00004   0.00003   0.00309   0.00001  -0.04930
 166        2S         -0.00036  -0.00005  -0.00009  -0.00037  -0.00056
 167 30  H  1S         -0.00001   0.00000   0.00473  -0.00006  -0.04898
 168        2S          0.00013   0.00012  -0.00313   0.00030   0.00271
 169 31  H  1S         -0.00002   0.00001   0.00476  -0.00005  -0.04732
 170        2S          0.00002   0.00008   0.00052   0.00020   0.00272
 171 32  H  1S         -0.00005   0.00012   0.02128   0.00005   0.07265
 172        2S          0.00028  -0.00046  -0.00067  -0.00193   0.00141
 173 33  H  1S          0.00003   0.00004   0.02232  -0.00014   0.06376
 174        2S         -0.00024  -0.00038  -0.00910  -0.00006  -0.00344
 175 34  H  1S          0.00001   0.00002   0.00327   0.00000   0.05335
 176        2S         -0.00019  -0.00018  -0.00148  -0.00015   0.00047
 177 35  H  1S          0.00001  -0.00001   0.00484   0.00006   0.05118
 178        2S         -0.00004   0.00006   0.00017  -0.00141  -0.00261
 179 36  H  1S          0.00004   0.00004   0.00513   0.00021   0.05295
 180        2S         -0.00024  -0.00035  -0.00552  -0.00133  -0.00163
 181 37  H  1S          0.00006  -0.00040   0.00026   0.00002   0.00114
 182        2S          0.00003   0.00270   0.00376   0.00261   0.00096
 183 38  H  1S          0.00014  -0.00047   0.00026  -0.00004   0.00054
 184        2S         -0.00029   0.00338   0.00164   0.00113   0.00129
 185 39  H  1S          0.00001  -0.00038   0.00026   0.00062   0.00088
 186        2S          0.00054   0.00264  -0.00118  -0.00255  -0.00261
 187 40  H  1S         -0.00043   0.00016  -0.00003  -0.00033   0.00041
 188        2S          0.00320  -0.00044   0.00430   0.00488   0.00113
 189 41  H  1S         -0.00042   0.00005   0.00016   0.00011   0.00153
 190        2S          0.00266   0.00008   0.00454   0.00296  -0.00193
 191 42  H  1S         -0.00042   0.00004   0.00025   0.00037   0.00088
 192        2S          0.00294   0.00036  -0.00103  -0.00029  -0.00070
                          16        17        18        19        20
                           O         O         O         O         O
     Eigenvalues --    -0.80227  -0.76469  -0.76395  -0.68168  -0.67970
   1 1   Mg 1S          0.00107   0.00021  -0.01589   0.05333   0.03645
   2        2S          0.00054   0.02341  -0.01922   0.01516  -0.02676
   3        3PX        -0.00007   0.00110   0.00546  -0.00183  -0.01912
   4        3PY        -0.00029   0.00032  -0.00757  -0.01064  -0.02134
   5        3PZ        -0.00051  -0.00057   0.00031  -0.00089  -0.00222
   6        4PX         0.00338   0.01299  -0.01334  -0.00177  -0.02394
   7        4PY        -0.00387  -0.00136  -0.00570  -0.01336  -0.01580
   8        4PZ         0.00093  -0.00267   0.00354  -0.00046  -0.00173
   9 2   C  1S         -0.00065   0.00076   0.00073  -0.06947  -0.00816
  10        2S          0.00151  -0.00210  -0.00183   0.13254   0.01541
  11        3S         -0.00066   0.00237   0.00195   0.14106   0.01820
  12        4PX         0.00019  -0.00046   0.00046   0.00009  -0.00318
  13        4PY        -0.00105  -0.00016   0.00025   0.00226  -0.00372
  14        4PZ        -0.00037  -0.00002  -0.00002   0.02736   0.00310
  15        5PX        -0.00018   0.00336  -0.00264   0.00287  -0.00087
  16        5PY         0.00038  -0.00136  -0.00096   0.00234   0.01085
  17        5PZ         0.00038   0.00088   0.00078   0.00653   0.00166
  18 3   C  1S         -0.00157  -0.00016   0.00018  -0.07103  -0.01398
  19        2S          0.00391  -0.00047  -0.00142   0.13521   0.02736
  20        3S         -0.00282  -0.00047   0.00153   0.14537   0.02584
  21        4PX         0.00041  -0.00094   0.00080  -0.00121  -0.00444
  22        4PY        -0.00085  -0.00041   0.00004   0.00049  -0.00334
  23        4PZ        -0.00019  -0.00032  -0.00020  -0.02814  -0.00549
  24        5PX         0.00466   0.01039  -0.00478   0.00586   0.00153
  25        5PY        -0.00129  -0.00179   0.00297   0.00050   0.01458
  26        5PZ         0.00095   0.00287   0.00137  -0.00688  -0.00266
  27 4   C  1S         -0.10092  -0.11941   0.00010  -0.00689   0.02786
  28        2S          0.20020   0.23973  -0.00013   0.01303  -0.05554
  29        3S          0.15641   0.19736  -0.00103   0.01685  -0.05792
  30        4PX        -0.01211  -0.00626   0.00005  -0.00071  -0.00437
  31        4PY         0.02154   0.00495  -0.00009  -0.00180   0.00787
  32        4PZ         0.04852   0.03380  -0.00004  -0.00416   0.01358
  33        5PX         0.00286  -0.00422  -0.00040   0.00167  -0.00436
  34        5PY        -0.00492  -0.01440   0.00038   0.00033  -0.00029
  35        5PZ        -0.01005   0.00011   0.00014   0.00661  -0.00309
  36 5   O  1S         -0.00019   0.00007   0.07329   0.00095   0.00037
  37        2S          0.00029  -0.00014  -0.15619  -0.00214  -0.00063
  38        3S          0.00088  -0.00032  -0.19843  -0.00272  -0.00186
  39        4PX        -0.00802  -0.00007  -0.03124   0.00449  -0.02429
  40        4PY        -0.00617   0.00008   0.02692  -0.01664  -0.03159
  41        4PZ        -0.00057  -0.00003   0.00064  -0.00253  -0.01572
  42        5PX        -0.00149   0.00004  -0.01386   0.00064  -0.00477
  43        5PY        -0.00147  -0.00037   0.01358   0.00003  -0.00395
  44        5PZ        -0.00010  -0.00002   0.00039  -0.00074  -0.00404
  45 6   Mg 1S         -0.00051  -0.01598   0.00030   0.05844  -0.02167
  46        2S         -0.00391  -0.02360   0.02115  -0.02336   0.02804
  47        3PX        -0.00259  -0.00489  -0.00052   0.00761  -0.02047
  48        3PY        -0.00093   0.00859  -0.00031   0.01487  -0.02013
  49        3PZ         0.00042   0.00126   0.00038   0.00061   0.00019
  50        4PX        -0.00434   0.01283  -0.01239   0.02244  -0.01808
  51        4PY        -0.00088   0.00791   0.00066   0.02132  -0.01315
  52        4PZ        -0.00655   0.00349  -0.00227  -0.00075   0.00324
  53 7   O  1S          0.00401   0.07303  -0.00007   0.00120   0.00010
  54        2S         -0.00847  -0.15578   0.00016  -0.00281  -0.00039
  55        3S         -0.01062  -0.19713   0.00016  -0.00287   0.00061
  56        4PX        -0.13696   0.03308  -0.00003   0.00019  -0.04303
[...]
                                                    51(r),90(r),93(g),70(r)
                                                    96(g),67(r),68(r),153(r)
                                                    98(r),82(r),69(r),154(r)
                                                    122(r),115(r),109(r),121(r)
                                                    142(r),102(r),140(r)
    60. LP (   2)Br   8                  1.94838    -0.23147  55(v),160(v)
    61. LP (   3)Br   8                  1.94240    -0.23171  56(v),160(v),55(v),155(r)
                                                    75(r),71(r),180(r),67(r)
                                                    51(r),90(r),156(r),70(r)
                                                    82(r),179(r),154(r),153(r)
                                                    68(r),125(r),65(r),101(r)
                                                    78(r),102(r)
    73. RY*(   1) C   3                  0.00142     0.97895   
    74. RY*(   2) C   3                  0.00112     0.51702   
    75. RY*(   3) C   3                  0.00065     1.35717   
    76. RY*(   4) C   3                  0.00017     0.77883   
    85. RY*(   1)Mg   6                  0.00469     0.39536   
    86. RY*(   2)Mg   6                  0.00151     0.40429   
    87. RY*(   3)Mg   6                  0.00095     4.12770   
    88. RY*(   4)Mg   6                  0.00040     0.52408   
    93. RY*(   1)Br   8                  0.00007     1.34755   
    94. RY*(   2)Br   8                  0.00002     0.79956   
    95. RY*(   3)Br   8                  0.00003     0.68080   
    96. RY*(   4)Br   8                  0.00001    18.34652   
   149. RY*(   1) H  37                  0.00052     0.99318   
   150. RY*(   1) H  38                  0.00044     0.95515   
   151. RY*(   1) H  39                  0.00062     1.01289   
   160. BD*(   1) C   3 -Mg   6          0.10007     0.78004  155(r),76(g),94(v),70(r)
                                                    71(r),75(g),90(r),87(g)
                                                    93(v),69(r),115(r),73(g)
                                                    153(r),74(g),68(r),55(g)
                                                    151(v),51(r),154(r),82(r)
                                                    88(g),149(v),142(r),140(r)
                                                    131(r),138(r),67(r),128(r)
                                                    135(r),161(g),86(g),98(r)
                                                    56(g),72(r),109(r),122(r)
                                                    113(r),134(r),114(r),158(r)
                                                    141(r),80(r),85(g),105(r)
                                                    148(r),121(r),81(r),145(r)
                                                    102(r),162(g),100(r),129(r)
                                                    89(r),139(r),159(r),144(r)
                                                    152(r),119(r),104(r),111(r)
                                                    118(r),78(r),91(r),65(r)
                                                    125(r),110(r),83(r),180(r)
                                                    147(r),106(r),143(r),132(r)
                                                    177(r),116(r),126(r),183(r)
                                                    101(r),167(r),173(r),108(r)
                                                    172(r),123(r),66(r),156(r)
                                                    157(r),179(r),103(r),117(r)
                                                    99(r),133(r),112(r),77(r)
                                                    192(r),120(r),174(r),146(r)
                                                    189(r),107(r),84(r),178(r)
                                                    185(r),130(r)
   161. BD*(   1) C   3 - H  37          0.00610     0.46884   
   162. BD*(   1) C   3 - H  38          0.00489     0.48216   
   163. BD*(   1) C   3 - H  39          0.00992     0.47369   
   170. BD*(   1)Mg   6 -Br   8          0.02496     0.22412   
       -------------------------------
              Total Lewis   55.67777  ( 99.2583%)
        Valence non-Lewis    0.40343  (  0.7192%)
        Rydberg non-Lewis    0.01261  (  0.0225%)
       -------------------------------
            Total unit  2   56.09381  (100.0000%)
           Charge unit  2   -0.09381

 Molecular unit  3  (C4H10O)
    10. BD (   1) C   4 - C   9          1.99361    -0.63776  56(r),89(v),172(v)
    11. BD (   1) C   4 - H  17          1.97704    -0.51597  171(v),56(r)
    12. BD (   1) C   4 - H  18          1.98736    -0.52100  173(v),97(v),56(r)
    13. BD (   1) C   4 - H  19          1.98608    -0.51549  174(v),56(r),160(r),87(r)
    17. BD (   1) O   7 - C   9          1.99090    -0.79891  56(r),165(v),180(v),106(v)
                                                    155(r),51(r),87(r),75(r)
                                                    52(r),55(r),71(r),70(r)
                                                    160(r),74(r),73(r)
    18. BD (   1) O   7 - C  11          1.99099    -0.79487  56(r),176(v),173(v),87(r)
                                                    70(r),170(r),74(r),75(r)
                                                    71(r),55(r),155(r)
    19. BD (   1) C   9 - H  20          1.97565    -0.54141  172(v),166(v),56(r),77(v)
                                                    87(r),155(r),67(r),52(r)
                                                    160(r),156(r),170(r),82(r)
                                                    51(r)
    20. BD (   1) C   9 - H  21          1.98435    -0.54671  167(v),56(r),160(r)
    21. BD (   1) C  10 - C  11          1.99361    -0.63402  56(r),171(v),89(v),55(r)
    22. BD (   1) C  10 - H  22          1.97711    -0.51417  172(v),56(r)
    23. BD (   1) C  10 - H  23          1.98618    -0.51199  179(v),56(r),87(r),170(r)
                                                    55(r),73(r),67(r)
    24. BD (   1) C  10 - H  24          1.98740    -0.51847  180(v),105(v),56(r)
    25. BD (   1) C  11 - H  25          1.98375    -0.54489  177(v),56(r),102(v),172(g)
                                                    170(r),67(r)
    26. BD (   1) C  11 - H  26          1.97914    -0.53517  171(v),178(v),56(r),101(v)
                                                    170(r),87(r)
    41. CR (   1) C   4                  1.99936   -10.07838  129(v),131(v),130(v),100(v)
                                                    56(r)
    43. CR (   1) O   7                  1.99986   -19.02443  56(r),98(v),106(v),170(r)
                                                    155(r)
    44. CR (   1) C   9                  1.99921   -10.16321  171(g),56(r),172(v),79(v)
                                                    133(v),132(v)
    45. CR (   1) C  10                  1.99937   -10.07610  134(v),135(v),136(v),56(r)
    46. CR (   1) C  11                  1.99920   -10.15721  172(g),56(r),171(v),103(v)
                                                    138(v),137(v),170(r),160(r)
    57. LP (   1) O   7                  1.95027    -0.35241  175(v),164(v),174(v),179(v)
                                                    55(r),180(v),176(r),160(r)
                                                    158(r)
    58. LP (   2) O   7                  1.91049    -0.63158  56(r),160(r),170(r),87(r)
                                                    173(v),180(v),179(v),69(r)
                                                    73(r),98(v),70(r),90(g)
                                                    105(v),174(v),88(r),75(r)
                                                    71(r),55(r),67(r),74(r)
                                                    85(r),86(r),94(r),93(r)
                                                    68(r),153(r),121(r),110(r)
    77. RY*(   1) C   4                  0.00248     0.28003   
    78. RY*(   2) C   4                  0.00204     0.31273   
    79. RY*(   3) C   4                  0.00084     0.56677   
    80. RY*(   4) C   4                  0.00004     0.80374   
    89. RY*(   1) O   7                  0.00335     0.84342   
    90. RY*(   2) O   7                  0.00120     1.37258   
    91. RY*(   3) O   7                  0.00057     1.06502   
    92. RY*(   4) O   7                  0.00029     1.69242   
    97. RY*(   1) C   9                  0.00431     0.49238   
    98. RY*(   2) C   9                  0.00202     0.38876   
    99. RY*(   3) C   9                  0.00112     0.36640   
   100. RY*(   4) C   9                  0.00058     1.02138   
   101. RY*(   1) C  10                  0.00274     0.29025   
   102. RY*(   2) C  10                  0.00183     0.30101   
   103. RY*(   3) C  10                  0.00080     0.57039   
   104. RY*(   4) C  10                  0.00004     0.79983   
   105. RY*(   1) C  11                  0.00463     0.49545   
   106. RY*(   2) C  11                  0.00178     0.38523   
   107. RY*(   3) C  11                  0.00115     0.32235   
   108. RY*(   4) C  11                  0.00061     1.05412   
   129. RY*(   1) H  17                  0.00080     0.84233   
   130. RY*(   1) H  18                  0.00096     0.87343   
   131. RY*(   1) H  19                  0.00107     0.91580   
   132. RY*(   1) H  20                  0.00155     0.96098   
   133. RY*(   1) H  21                  0.00189     0.86720   
   134. RY*(   1) H  22                  0.00078     0.84414   
   135. RY*(   1) H  23                  0.00108     0.91843   
   136. RY*(   1) H  24                  0.00104     0.86999   
   137. RY*(   1) H  25                  0.00185     0.87206   
   138. RY*(   1) H  26                  0.00160     0.93205   
   164. BD*(   1) C   4 - C   9          0.01325     0.33877   
   165. BD*(   1) C   4 - H  17          0.00454     0.45638   
   166. BD*(   1) C   4 - H  18          0.00828     0.44747   
   167. BD*(   1) C   4 - H  19          0.00776     0.45889   
   171. BD*(   1) O   7 - C   9          0.03657     0.17077   
   172. BD*(   1) O   7 - C  11          0.03627     0.17097   
   173. BD*(   1) C   9 - H  20          0.01484     0.46307   
   174. BD*(   1) C   9 - H  21          0.01859     0.44960   
   175. BD*(   1) C  10 - C  11          0.01288     0.34107   
   176. BD*(   1) C  10 - H  22          0.00476     0.45807   
   177. BD*(   1) C  10 - H  23          0.00785     0.46317   
   178. BD*(   1) C  10 - H  24          0.00825     0.44905   
   179. BD*(   1) C  11 - H  25          0.01867     0.45065   
   180. BD*(   1) C  11 - H  26          0.01703     0.46824   
       -------------------------------
              Total Lewis   41.65094  ( 99.3925%)
        Valence non-Lewis    0.20954  (  0.5000%)
        Rydberg non-Lewis    0.04504  (  0.1075%)
       -------------------------------
            Total unit  3   41.90553  (100.0000%)
           Charge unit  3    0.09447

 Molecular unit  4  (C4H10O)
    14. BD (   1) O   5 - C  12          1.99102    -0.79686  52(r),184(v),188(v),122(v)
                                                    67(r),75(r),156(r),71(r)
                                                    160(r),51(r),70(r)
    15. BD (   1) O   5 - C  15          1.99090    -0.79865  52(r),190(v),183(v),110(v)
                                                    160(r),67(r),55(r),56(r)
                                                    51(r),75(r),71(r)
    27. BD (   1) C  12 - C  14          1.99366    -0.63412  52(r),81(v),169(v)
    28. BD (   1) C  12 - H  27          1.98416    -0.54539  185(v),52(r),118(v),168(g)
                                                    156(r),51(r),87(r)
    29. BD (   1) C  12 - H  28          1.97897    -0.53640  169(v),186(v),52(r),117(v)
                                                    156(r),67(r)
    30. BD (   1) C  14 - H  29          1.97696    -0.51324  168(v),52(r)
    31. BD (   1) C  14 - H  30          1.98628    -0.51008  182(v),52(r),67(r),156(r)
                                                    87(r),75(r),73(r)
    32. BD (   1) C  14 - H  31          1.98730    -0.51795  183(v),109(v),52(r)
    33. BD (   1) C  15 - C  16          1.99367    -0.63714  52(r),81(v),168(v)
    34. BD (   1) C  15 - H  32          1.97618    -0.54171  168(v),191(v),52(r),125(v)
                                                    67(r),55(r),87(r),160(r)
                                                    155(r),56(r),170(r),156(r)
                                                    157(r)
    35. BD (   1) C  15 - H  33          1.98459    -0.54780  192(v),52(r),126(v),155(r)
                                                    51(r)
    36. BD (   1) C  16 - H  34          1.97691    -0.51430  169(v),52(r)
    37. BD (   1) C  16 - H  35          1.98716    -0.51943  188(v),121(v),52(r)
    38. BD (   1) C  16 - H  36          1.98547    -0.51355  189(v),52(r),51(r),67(r)
                                                    87(r),56(r),160(r)
    42. CR (   1) O   5                  1.99986   -19.02435  52(r),122(v),110(v),156(r)
                                                    155(r),160(r)
    47. CR (   1) C  12                  1.99921   -10.15859  168(g),52(r),169(v),119(v)
                                                    140(v),139(v),156(r)
    48. CR (   1) C  14                  1.99937   -10.07478  141(v),142(v),143(v),111(v)
                                                    52(r)
    49. CR (   1) C  15                  1.99921   -10.16317  169(g),52(r),168(v),127(v)
                                                    145(v),144(v)
    50. CR (   1) C  16                  1.99936   -10.07701  146(v),148(v),147(v),52(r)
    53. LP (   1) O   5                  1.95096    -0.35289  187(v),181(v),189(v),182(v)
                                                    51(r),188(v),183(v),184(r)
                                                    190(r),155(r),66(r)
    54. LP (   2) O   5                  1.91100    -0.63108  52(r),155(r),156(r),67(r)
                                                    188(v),75(r),183(v),71(r)
                                                    182(v),189(v),121(v),109(v)
                                                    110(v),51(r),87(r),69(r)
                                                    73(r),151(r),68(r),153(r)
                                                    149(r),154(r),158(r),115(r)
                                                    86(r),98(r),105(r)
    81. RY*(   1) O   5                  0.00350     0.83846   
    82. RY*(   2) O   5                  0.00111     1.23526   
    83. RY*(   3) O   5                  0.00060     1.05140   
    84. RY*(   4) O   5                  0.00030     1.68743   
   109. RY*(   1) C  12                  0.00461     0.48861   
   110. RY*(   2) C  12                  0.00179     0.36677   
   111. RY*(   3) C  12                  0.00124     0.32280   
   112. RY*(   4) C  12                  0.00056     1.05259   
   117. RY*(   1) C  14                  0.00278     0.29232   
   118. RY*(   2) C  14                  0.00196     0.29884   
   119. RY*(   3) C  14                  0.00080     0.57420   
   120. RY*(   4) C  14                  0.00004     0.79806   
   121. RY*(   1) C  15                  0.00421     0.49265   
   122. RY*(   2) C  15                  0.00187     0.39649   
   123. RY*(   3) C  15                  0.00125     0.31040   
   124. RY*(   4) C  15                  0.00065     1.05159   
   125. RY*(   1) C  16                  0.00271     0.30178   
   126. RY*(   2) C  16                  0.00211     0.30551   
   127. RY*(   3) C  16                  0.00082     0.57171   
   128. RY*(   4) C  16                  0.00007     0.80245   
   139. RY*(   1) H  27                  0.00183     0.86326   
   140. RY*(   1) H  28                  0.00163     0.93057   
   141. RY*(   1) H  29                  0.00078     0.84617   
   142. RY*(   1) H  30                  0.00120     0.91642   
   143. RY*(   1) H  31                  0.00101     0.87134   
   144. RY*(   1) H  32                  0.00141     0.96820   
   145. RY*(   1) H  33                  0.00190     0.86542   
   146. RY*(   1) H  34                  0.00079     0.84257   
   147. RY*(   1) H  35                  0.00100     0.87317   
   148. RY*(   1) H  36                  0.00117     0.92285   
   168. BD*(   1) O   5 - C  12          0.03641     0.17135   
   169. BD*(   1) O   5 - C  15          0.03694     0.16977   
   181. BD*(   1) C  12 - C  14          0.01284     0.34190   
   182. BD*(   1) C  12 - H  27          0.01892     0.44925   
   183. BD*(   1) C  12 - H  28          0.01639     0.46602   
   184. BD*(   1) C  14 - H  29          0.00475     0.45819   
   185. BD*(   1) C  14 - H  30          0.00802     0.46621   
   186. BD*(   1) C  14 - H  31          0.00830     0.44855   
   187. BD*(   1) C  15 - C  16          0.01309     0.33889   
   188. BD*(   1) C  15 - H  32          0.01461     0.46107   
   189. BD*(   1) C  15 - H  33          0.01831     0.44823   
   190. BD*(   1) C  16 - H  34          0.00464     0.45858   
   191. BD*(   1) C  16 - H  35          0.00823     0.44857   
   192. BD*(   1) C  16 - H  36          0.00741     0.46318   
       -------------------------------
              Total Lewis   41.65220  ( 99.3925%)
        Valence non-Lewis    0.20886  (  0.4984%)
        Rydberg non-Lewis    0.04571  (  0.1091%)
       -------------------------------
            Total unit  4   41.90677  (100.0000%)
           Charge unit  4    0.09323
 1\1\GINC-CX1-9-4-8\SP\RB3LYP\LANL2DZ\C10H26Br2Mg2O2\SCAN-USER-1\15-Mar
 -2010\0\\# rb3lyp/lanl2dz pop=(nbo,full) geom=connectivity\\[No Title]
 \\0,1\Mg,0,-1.335242,-0.257251,-0.018683\C,0,0.021484,0.007308,1.74896
 5\C,0,-0.012606,-0.101709,-1.830117\C,0,2.334493,-3.366833,-1.412851\O
 ,0,-2.59701,1.321815,0.01455\Mg,0,1.32571,0.259072,-0.068058\O,0,2.594
 222,-1.312861,-0.007705\Br,0,2.727758,2.343522,-0.100758\C,0,2.090748,
 -2.713496,-0.051104\C,0,4.435747,-1.224645,1.676784\C,0,4.065791,-1.16
 7916,0.193643\C,0,-4.077003,1.198276,-0.12286\Br,0,-2.743619,-2.331852
 ,-0.007792\C,0,-4.765084,1.163723,1.242225\C,0,-2.085821,2.707218,0.21
 1119\C,0,-1.927104,3.45013,-1.116812\H,0,1.899473,-4.374655,-1.412866\
 H,0,3.402694,-3.460895,-1.640519\H,0,1.856441,-2.789209,-2.210869\H,0,
 1.020271,-2.645472,0.164677\H,0,2.571049,-3.268725,0.763617\H,0,5.5233
 26,-1.118026,1.783493\H,0,3.961343,-0.403169,2.223918\H,0,4.14278,-2.1
 74779,2.13953\H,0,4.559643,-1.954698,-0.387874\H,0,4.313374,-0.19425,-
 0.236859\H,0,-4.423071,2.032003,-0.745463\H,0,-4.232814,0.258618,-0.65
 9188\H,0,-5.849937,1.071981,1.099687\H,0,-4.424967,0.296654,1.817678\H
 ,0,-4.577456,2.074948,1.823159\H,0,-1.121824,2.591812,0.716038\H,0,-2.
 772235,3.223476,0.892552\H,0,-1.531626,4.455803,-0.924245\H,0,-2.88303
 5,3.55669,-1.643542\H,0,-1.219844,2.930749,-1.771349\H,0,-0.916187,0.3
 38177,-2.295327\H,0,0.033588,-1.138508,-2.204935\H,0,0.797702,0.440287
 ,-2.355492\H,0,0.287717,-0.975355,2.176128\H,0,-0.932685,0.276107,2.24
 303\H,0,0.724219,0.736168,2.196429\\Version=EM64L-G09RevA.02\State=1-A
 \HF=-575.3476233\RMSD=2.378e-09\Dipole=0.0058628,0.0402695,0.1771645\Q
 uadrupole=8.1573757,-5.0103554,-3.1470203,-36.8382893,1.2597129,0.6761
 41\PG=C01 [X(C10H26Br2Mg2O2)]\\@


 I do not feel obliged to believe that the same God who
 has endowed us with sense, reason, and intellect has
 intended us to forgo their use.
                   --Galileo Galilei
 Job cpu time:  0 days  0 hours  4 minutes 56.9 seconds.
 File lengths (MBytes):  RWF=     22 Int=      0 D2E=      0 Chk=      2 Scr=      1
 Normal termination of Gaussian 09 at Mon Mar 15 16:21:26 2010.
