 Entering Gaussian System, Link 0=g03
 Initial command:
 /apps/gaussian/g09/g09/l1.exe /home/scan-user-1/run/26234/Gau-20886.inp -scrdir=/home/scan-user-1/run/26234/
 Entering Link 1 = /apps/gaussian/g09/g09/l1.exe PID=     20887.
  
 Copyright (c) 1988,1990,1992,1993,1995,1998,2003,2009, Gaussian, Inc.
                  All Rights Reserved.
  
 This is part of the Gaussian(R) 09 program.  It is based on
 the Gaussian(R) 03 system (copyright 2003, Gaussian, Inc.),
 the Gaussian(R) 98 system (copyright 1998, Gaussian, Inc.),
 the Gaussian(R) 94 system (copyright 1995, Gaussian, Inc.),
 the Gaussian 92(TM) system (copyright 1992, Gaussian, Inc.),
 the Gaussian 90(TM) system (copyright 1990, Gaussian, Inc.),
 the Gaussian 88(TM) system (copyright 1988, Gaussian, Inc.),
 the Gaussian 86(TM) system (copyright 1986, Carnegie Mellon
 University), and the Gaussian 82(TM) system (copyright 1983,
 Carnegie Mellon University). Gaussian is a federally registered
 trademark of Gaussian, Inc.
  
 This software contains proprietary and confidential information,
 including trade secrets, belonging to Gaussian, Inc.
  
 This software is provided under written license and may be
 used, copied, transmitted, or stored only in accord with that
 written license.
  
 The following legend is applicable only to US Government
 contracts under FAR:
  
                    RESTRICTED RIGHTS LEGEND
  
 Use, reproduction and disclosure by the US Government is
 subject to restrictions as set forth in subparagraphs (a)
 and (c) of the Commercial Computer Software - Restricted
 Rights clause in FAR 52.227-19.
  
 Gaussian, Inc.
 340 Quinnipiac St., Bldg. 40, Wallingford CT 06492
  
  
 ---------------------------------------------------------------
 Warning -- This program may not be used in any manner that
 competes with the business of Gaussian, Inc. or will provide
 assistance to any competitor of Gaussian, Inc.  The licensee
 of this program is prohibited from giving any competitor of
 Gaussian, Inc. access to this program.  By using this program,
 the user acknowledges that Gaussian, Inc. is engaged in the
 business of creating and licensing software in the field of
 computational chemistry and represents and warrants to the
 licensee that it is not a competitor of Gaussian, Inc. and that
 it will not use this program in any manner prohibited above.
 ---------------------------------------------------------------
  

 Cite this work as:
 Gaussian 09, Revision A.02,
 M. J. Frisch, G. W. Trucks, H. B. Schlegel, G. E. Scuseria, 
 M. A. Robb, J. R. Cheeseman, G. Scalmani, V. Barone, B. Mennucci, 
 G. A. Petersson, H. Nakatsuji, M. Caricato, X. Li, H. P. Hratchian, 
 A. F. Izmaylov, J. Bloino, G. Zheng, J. L. Sonnenberg, M. Hada, 
 M. Ehara, K. Toyota, R. Fukuda, J. Hasegawa, M. Ishida, T. Nakajima, 
 Y. Honda, O. Kitao, H. Nakai, T. Vreven, J. A. Montgomery, Jr., 
 J. E. Peralta, F. Ogliaro, M. Bearpark, J. J. Heyd, E. Brothers, 
 K. N. Kudin, V. N. Staroverov, R. Kobayashi, J. Normand, 
 K. Raghavachari, A. Rendell, J. C. Burant, S. S. Iyengar, J. Tomasi, 
 M. Cossi, N. Rega, J. M. Millam, M. Klene, J. E. Knox, J. B. Cross, 
 V. Bakken, C. Adamo, J. Jaramillo, R. Gomperts, R. E. Stratmann, 
 O. Yazyev, A. J. Austin, R. Cammi, C. Pomelli, J. W. Ochterski, 
 R. L. Martin, K. Morokuma, V. G. Zakrzewski, G. A. Voth, 
 P. Salvador, J. J. Dannenberg, S. Dapprich, A. D. Daniels, 
 O. Farkas, J. B. Foresman, J. V. Ortiz, J. Cioslowski, 
 and D. J. Fox, Gaussian, Inc., Wallingford CT, 2009.
 
 ******************************************
 Gaussian 09:  EM64L-G09RevA.02 11-Jun-2009
                15-Mar-2010 
 ******************************************
 %nprocshared=4
 Will use up to    4 processors via shared memory.
 %mem=7000MB
 %NoSave
 %Chk=chk.chk
 %rwf=/tmp/pbs.3646729.cx1/rwf
 ---------------------------------------------------------------
 # irc=(forward,maxpoints=50,calcfc) rhf/3-21g geom=connectivity
 ---------------------------------------------------------------
 1/10=4,18=20,22=1,38=1,42=50,44=3,57=2/1,23;
 2/9=110,12=2,17=6,18=5,29=1,40=1/2;
 3/5=5,11=1,16=1,25=1,30=1,71=2,116=1/1,2,3;
 4//1;
 5/5=2,38=5/2;
 8/6=4,10=90,11=11/1;
 11/6=1,8=1,9=11,15=111,16=1/1,2,10;
 10/6=1,7=6,13=1/2;
 6/7=2,8=2,9=2,10=2,28=1/1;
 7/10=1,18=20,25=1/1,2,3,16;
 1/10=4,18=20,22=1,42=50,44=3/23(3);
 2/9=110,29=1/2;
 7/9=1,25=1,44=-1/16;
 99//99;
 2/9=110,29=1/2;
 3/5=5,11=1,16=1,25=1,30=1,71=2,116=1/1,2,3;
 4/5=5,16=3/1;
 5/5=2,38=5/2;
 8/6=4,10=90,11=11/1;
 11/6=1,8=1,9=11,15=111,16=1/1,2,10;
 10/6=1,7=6,13=1/2;
 7/10=1,18=20,25=1/1,2,3,16;
 1/18=20,22=1,42=50,44=3/23(-8);
 2/9=110,29=1/2;
 6/7=2,8=2,9=2,10=2,19=2,28=1/1;
 7/9=1,25=1,44=-1/16;
 99/9=1/99;
 ---------
 Chair IRC
 ---------
 Symbolic Z-matrix:
 Charge =  0 Multiplicity = 1
 C
 C                    1    B1
 H                    1    B2       2    A1
 H                    1    B3       2    A2       3    D1       0
 C                    2    B4       1    A3       4    D2       0
 H                    2    B5       1    A4       5    D3       0
 H                    5    B6       2    A5       1    D4       0
 H                    5    B7       2    A6       1    D5       0
 C                    5    B8       2    A7       1    D6       0
 C                    9    B9       5    A8       2    D7       0
 H                    9    B10      5    A9       2    D8       0
 H                    9    B11      5    A10      2    D9       0
 C                    10   B12      9    A11      5    D10      0
 H                    10   B13      9    A12      5    D11      0
 H                    13   B14      10   A13      9    D12      0
 H                    13   B15      10   A14      9    D13      0
       Variables:
  B1                    1.3894                   
  B2                    1.07599                  
  B3                    1.07426                  
  B4                    1.38936                  
  B5                    1.07586                  
  B6                    1.07601                  
  B7                    1.07427                  
  B8                    2.01961                  
  B9                    1.38937                  
  B10                   1.07602                  
  B11                   1.07425                  
  B12                   1.38941                  
  B13                   1.07586                  
  B14                   1.076                    
  B15                   1.07426                  
  A1                  119.00586                  
  A2                  118.86735                  
  A3                  120.49548                  
  A4                  118.18973                  
  A5                  119.00788                  
  A6                  118.87369                  
  A7                  101.86955                  
  A8                  101.87375                  
  A9                  100.59615                  
  A10                  96.41682                  
  A11                 120.49652                  
  A12                 118.19129                  
  A13                 119.00433                  
  A14                 118.87119                  
  D1                  146.3737                   
  D2                  -35.84962                  
  D3                 -159.66586                  
  D4                 -177.7569                   
  D5                   35.85293                  
  D6                  -68.4275                   
  D7                   54.94307                  
  D8                  177.86279                  
  D9                  -66.39868                  
  D10                 -68.41245                  
  D11                  91.25618                  
  D12                 177.77563                  
  D13                 -35.84453                  
 
 IRC-IRC-IRC-IRC-IRC-IRC-IRC-IRC-IRC-IRC-IRC-IRC-IRC-IRC-IRC-IRC-IRC-IRC
 ------------------------------------------------------------------------
 INPUT DATA FOR L123
 ------------------------------------------------------------------------
 GENERAL PARAMETERS:
 Rxn path following direction = Forward
 Maximum points per path      =  50
 Step size                    =   0.100 bohr
 Integration scheme           = HPC                                 
    Redo corrector integration= Yes                                 
    Max correction cycles     =  20
 Initial Hessian              = CalcFC
 Hessian eveluation           = All updating
    Hessian updating method   = Bofill                              
 ------------------------------------------------------------------------
 IRC-IRC-IRC-IRC-IRC-IRC-IRC-IRC-IRC-IRC-IRC-IRC-IRC-IRC-IRC-IRC-IRC-IRC
                          Input orientation:                          
 ---------------------------------------------------------------------
 Center     Atomic      Atomic             Coordinates (Angstroms)
 Number     Number       Type             X           Y           Z
 ---------------------------------------------------------------------
      1          6           0        0.000000    0.000000    0.000000
      2          6           0        0.000000    0.000000    1.389402
      3          1           0        0.941031    0.000000   -0.521748
      4          1           0       -0.783351   -0.520976   -0.518636
      5          6           0       -1.196264    0.046444    2.094459
      6          1           0        0.901268    0.294768    1.897629
      7          1           0       -1.167288    0.082178    3.169489
      8          1           0       -2.050932   -0.471778    1.700702
      9          6           0       -1.851126    1.911240    1.679097
     10          6           0       -1.850646    1.911546    0.289724
     11          1           0       -2.792345    1.911154    2.200567
     12          1           0       -1.067888    2.431931    2.198159
     13          6           0       -0.654116    1.865056   -0.414976
     14          1           0       -2.751793    1.617088   -0.218907
     15          1           0       -0.682806    1.829873   -1.490015
     16          1           0        0.200511    2.382941   -0.020723
 ---------------------------------------------------------------------
                    Distance matrix (angstroms):
                    1          2          3          4          5
     1  C    0.000000
     2  C    1.389402   0.000000
     3  H    1.075992   2.130266   0.000000
     4  H    1.074262   2.127361   1.801366   0.000000
     5  C    2.412460   1.389356   3.378568   2.705684   0.000000
     6  H    2.121360   1.075857   2.437591   3.056422   2.121332
     7  H    3.378605   2.130264   4.251704   3.756789   1.076014
     8  H    2.705788   2.127394   3.756821   2.556295   1.074270
     9  C    3.146247   2.676458   4.036421   3.447585   2.019613
    10  C    2.676348   2.878921   3.479361   2.776639   2.676544
    11  H    4.036359   3.479611   5.000160   4.164778   2.456803
    12  H    3.447692   2.776466   4.165085   4.022635   2.391189
    13  C    2.019531   2.676206   2.456486   2.391776   3.146195
    14  H    3.199259   3.574072   4.042726   2.921629   3.199727
    15  H    2.456584   3.479325   2.631126   2.545620   4.036424
    16  H    2.391452   2.776161   2.545153   3.106226   3.447347
                    6          7          8          9         10
     6  H    0.000000
     7  H    2.437570   0.000000
     8  H    3.056446   1.801396   0.000000
     9  C    3.199439   2.456496   2.391477   0.000000
    10  C    3.573844   3.479455   2.776906   1.389372   0.000000
    11  H    4.043174   2.631496   2.545177   1.076022   2.130286
    12  H    2.921534   2.544544   3.105699   1.074247   2.127353
    13  C    3.198932   4.036135   3.447896   2.412490   1.389406
    14  H    4.424150   4.043245   2.922236   2.121354   1.075861
    15  H    4.042520   5.000014   4.165339   3.378589   2.130257
    16  H    2.920891   4.164354   4.022652   2.705754   2.127402
                   11         12         13         14         15
    11  H    0.000000
    12  H    1.801378   0.000000
    13  C    3.378641   2.705740   0.000000
    14  H    2.437617   3.056421   2.121362   0.000000
    15  H    4.251724   3.756779   1.075997   2.437560   0.000000
    16  H    3.756847   2.556301   1.074257   3.056453   1.801375
                   16
    16  H    0.000000
 Symmetry turned off by external request.
 Stoichiometry    C6H10
 Framework group  C1[X(C6H10)]
 Deg. of freedom    42
 Full point group                 C1      NOp   1
 Rotational constants (GHZ):      4.5904656      4.0353882      2.4720999
 Standard basis: 3-21G (6D, 7F)
 Integral buffers will be    131072 words long.
 Raffenetti 1 integral format.
 Two-electron integral symmetry is turned off.
    74 basis functions,   120 primitive gaussians,    74 cartesian basis functions
    23 alpha electrons       23 beta electrons
       nuclear repulsion energy       231.7718062296 Hartrees.
 NAtoms=   16 NActive=   16 NUniq=   16 SFac= 7.50D-01 NAtFMM=   80 NAOKFM=F Big=F
 One-electron integrals computed using PRISM.
 NBasis=    74 RedAO= T  NBF=    74
 NBsUse=    74 1.00D-06 NBFU=    74
 Harris functional with IExCor=  205 diagonalized for initial guess.
 ExpMin= 1.83D-01 ExpMax= 1.72D+02 ExpMxC= 1.72D+02 IAcc=1 IRadAn=         1 AccDes= 0.00D+00
 HarFok:  IExCor=  205 AccDes= 0.00D+00 IRadAn=         1 IDoV= 1
 ScaDFX=  1.000000  1.000000  1.000000  1.000000
 FoFCou: FMM=F IPFlag=           0 FMFlag=      100000 FMFlg1=           0
         NFxFlg=           0 DoJE=T BraDBF=F KetDBF=T FulRan=T
         Omega=  0.000000  0.000000  1.000000  0.000000  0.000000 ICntrl=     500 IOpCl=  0
         NMat0=    1 NMatS0=    1 NMatT0=    0 NMatD0=    1 NMtDS0=    0 NMtDT0=    0
         I1Cent=           4 NGrid=           0.
 Symmetry not used in FoFCou.
 Requested convergence on RMS density matrix=1.00D-08 within 128 cycles.
 Requested convergence on MAX density matrix=1.00D-06.
 Requested convergence on             energy=1.00D-06.
 No special actions if energy rises.
 Keep R1 ints in memory in canonical form, NReq=4687208.
 SCF Done:  E(RHF) =  -231.619322288     A.U. after   11 cycles
             Convg  =    0.3269D-08             -V/T =  2.0017
 Range of M.O.s used for correlation:     1    74
 NBasis=    74 NAE=    23 NBE=    23 NFC=     0 NFV=     0
 NROrb=     74 NOA=    23 NOB=    23 NVA=    51 NVB=    51
 Symmetrizing basis deriv contribution to polar:
 IMax=3 JMax=2 DiffMx= 0.00D+00
 G2DrvN: will do    17 centers at a time, making    1 passes doing MaxLOS=1.
 Calling FoFCou, ICntrl=  3107 FMM=F I1Cent=   0 AccDes= 0.00D+00.
 FoFDir/FoFCou used for L=0 through L=1.
 End of G2Drv Frequency-dependent properties file   721 does not exist.
 End of G2Drv Frequency-dependent properties file   722 does not exist.
          IDoAtm=1111111111111111
          Differentiating once with respect to nuclear coordinates.
          Keep R1 ints in memory in canonical form, NReq=4652799.
          There are    51 degrees of freedom in the 1st order CPHF.  IDoFFX=5.
     45 vectors produced by pass  0 Test12= 2.30D-11 1.96D-07 XBig12= 6.43D-02 1.08D-01.
 AX will form    45 AO Fock derivatives at one time.
     45 vectors produced by pass  1 Test12= 2.30D-11 1.96D-07 XBig12= 3.19D-03 1.59D-02.
     45 vectors produced by pass  2 Test12= 2.30D-11 1.96D-07 XBig12= 4.12D-05 1.31D-03.
     45 vectors produced by pass  3 Test12= 2.30D-11 1.96D-07 XBig12= 2.12D-07 7.47D-05.
     44 vectors produced by pass  4 Test12= 2.30D-11 1.96D-07 XBig12= 1.31D-09 5.37D-06.
      4 vectors produced by pass  5 Test12= 2.30D-11 1.96D-07 XBig12= 6.32D-12 3.65D-07.
 Inverted reduced A of dimension   228 with in-core refinement.
 End of Minotr Frequency-dependent properties file   721 does not exist.
 End of Minotr Frequency-dependent properties file   722 does not exist.

 **********************************************************************

            Population analysis using the SCF density.

 **********************************************************************

 Alpha  occ. eigenvalues --  -11.17063 -11.17001 -11.16993 -11.16972 -11.15037
 Alpha  occ. eigenvalues --  -11.15036  -1.10057  -1.03218  -0.95531  -0.87198
 Alpha  occ. eigenvalues --   -0.76466  -0.74765  -0.65470  -0.63078  -0.60684
 Alpha  occ. eigenvalues --   -0.57218  -0.52886  -0.50795  -0.50756  -0.50294
 Alpha  occ. eigenvalues --   -0.47899  -0.33730  -0.28094
 Alpha virt. eigenvalues --    0.14397   0.20703   0.28003   0.28799   0.30968
 Alpha virt. eigenvalues --    0.32786   0.33095   0.34123   0.37755   0.38020
 Alpha virt. eigenvalues --    0.38452   0.38824   0.41865   0.53020   0.53981
 Alpha virt. eigenvalues --    0.57302   0.57348   0.87999   0.88844   0.89378
 Alpha virt. eigenvalues --    0.93607   0.97949   0.98262   1.06950   1.07130
 Alpha virt. eigenvalues --    1.07489   1.09162   1.12131   1.14712   1.20025
 Alpha virt. eigenvalues --    1.26123   1.28938   1.29572   1.31540   1.33175
 Alpha virt. eigenvalues --    1.34290   1.38374   1.40630   1.41960   1.43378
 Alpha virt. eigenvalues --    1.45970   1.48846   1.61267   1.62715   1.67682
 Alpha virt. eigenvalues --    1.77729   1.95894   2.00061   2.28248   2.30844
 Alpha virt. eigenvalues --    2.75432
          Condensed to atoms (all electrons):
              1          2          3          4          5          6
     1  C    5.373495   0.438393   0.387621   0.397068  -0.112853  -0.042384
     2  C    0.438393   5.303874  -0.044457  -0.049707   0.438485   0.407688
     3  H    0.387621  -0.044457   0.471759  -0.024086   0.003385  -0.002378
     4  H    0.397068  -0.049707  -0.024086   0.474423   0.000554   0.002274
     5  C   -0.112853   0.438485   0.003385   0.000554   5.373510  -0.042385
     6  H   -0.042384   0.407688  -0.002378   0.002274  -0.042385   0.468761
     7  H    0.003385  -0.044462  -0.000062  -0.000042   0.387625  -0.002378
     8  H    0.000554  -0.049701  -0.000042   0.001854   0.397075   0.002274
     9  C   -0.018439  -0.055898   0.000187   0.000461   0.093200   0.000218
    10  C   -0.055904  -0.052708   0.001087  -0.006401  -0.055878   0.000010
    11  H    0.000187   0.001087   0.000000  -0.000011  -0.010553  -0.000016
    12  H    0.000461  -0.006408  -0.000011  -0.000005  -0.021085   0.000399
    13  C    0.093340  -0.055934  -0.010575  -0.021051  -0.018442   0.000217
    14  H    0.000217   0.000010  -0.000016   0.000398   0.000218   0.000004
    15  H   -0.010565   0.001087  -0.000293  -0.000564   0.000187  -0.000016
    16  H   -0.021075  -0.006410  -0.000565   0.000962   0.000461   0.000399
              7          8          9         10         11         12
     1  C    0.003385   0.000554  -0.018439  -0.055904   0.000187   0.000461
     2  C   -0.044462  -0.049701  -0.055898  -0.052708   0.001087  -0.006408
     3  H   -0.000062  -0.000042   0.000187   0.001087   0.000000  -0.000011
     4  H   -0.000042   0.001854   0.000461  -0.006401  -0.000011  -0.000005
     5  C    0.387625   0.397075   0.093200  -0.055878  -0.010553  -0.021085
     6  H   -0.002378   0.002274   0.000218   0.000010  -0.000016   0.000399
     7  H    0.471774  -0.024088  -0.010568   0.001087  -0.000293  -0.000567
     8  H   -0.024088   0.474411  -0.021063  -0.006401  -0.000566   0.000963
     9  C   -0.010568  -0.021063   5.373514   0.438472   0.387628   0.397080
    10  C    0.001087  -0.006401   0.438472   5.303805  -0.044456  -0.049709
    11  H   -0.000293  -0.000566   0.387628  -0.044456   0.471765  -0.024090
    12  H   -0.000567   0.000963   0.397080  -0.049709  -0.024090   0.474435
    13  C    0.000187   0.000461  -0.112834   0.438400   0.003384   0.000555
    14  H   -0.000016   0.000398  -0.042382   0.407686  -0.002378   0.002274
    15  H    0.000000  -0.000011   0.003385  -0.044459  -0.000062  -0.000042
    16  H   -0.000011  -0.000005   0.000556  -0.049702  -0.000042   0.001854
             13         14         15         16
     1  C    0.093340   0.000217  -0.010565  -0.021075
     2  C   -0.055934   0.000010   0.001087  -0.006410
     3  H   -0.010575  -0.000016  -0.000293  -0.000565
     4  H   -0.021051   0.000398  -0.000564   0.000962
     5  C   -0.018442   0.000218   0.000187   0.000461
     6  H    0.000217   0.000004  -0.000016   0.000399
     7  H    0.000187  -0.000016   0.000000  -0.000011
     8  H    0.000461   0.000398  -0.000011  -0.000005
     9  C   -0.112834  -0.042382   0.003385   0.000556
    10  C    0.438400   0.407686  -0.044459  -0.049702
    11  H    0.003384  -0.002378  -0.000062  -0.000042
    12  H    0.000555   0.002274  -0.000042   0.001854
    13  C    5.373492  -0.042384   0.387623   0.397074
    14  H   -0.042384   0.468757  -0.002378   0.002274
    15  H    0.387623  -0.002378   0.471752  -0.024086
    16  H    0.397074   0.002274  -0.024086   0.474432
 Mulliken atomic charges:
              1
     1  C   -0.433501
     2  C   -0.224938
     3  H    0.218447
     4  H    0.223872
     5  C   -0.433506
     6  H    0.207315
     7  H    0.218430
     8  H    0.223886
     9  C   -0.433517
    10  C   -0.224931
    11  H    0.218416
    12  H    0.223897
    13  C   -0.433514
    14  H    0.207319
    15  H    0.218442
    16  H    0.223883
 Sum of Mulliken atomic charges =   0.00000
 Mulliken charges with hydrogens summed into heavy atoms:
              1
     1  C    0.008819
     2  C   -0.017624
     5  C    0.008810
     9  C    0.008796
    10  C   -0.017612
    13  C    0.008811
 Sum of Mulliken charges with hydrogens summed into heavy atoms =   0.00000
 APT atomic charges:
              1
     1  C   -0.587108
     2  C   -0.306176
     3  H    0.369350
     4  H    0.378945
     5  C   -1.033970
     6  H    0.451206
     7  H    0.652836
     8  H    0.397897
     9  C   -1.373635
    10  C   -0.441272
    11  H    0.694642
    12  H    0.424015
    13  C   -0.926710
    14  H    0.483732
    15  H    0.411110
    16  H    0.405136
 Sum of APT charges=   0.00000
 APT Atomic charges with hydrogens summed into heavy atoms:
              1
     1  C    0.161187
     2  C    0.145031
     3  H    0.000000
     4  H    0.000000
     5  C    0.016763
     6  H    0.000000
     7  H    0.000000
     8  H    0.000000
     9  C   -0.254978
    10  C    0.042460
    11  H    0.000000
    12  H    0.000000
    13  C   -0.110463
    14  H    0.000000
    15  H    0.000000
    16  H    0.000000
 Sum of APT charges=   0.00000
 Electronic spatial extent (au):  <R**2>=            976.3194
 Charge=              0.0000 electrons
 Dipole moment (field-independent basis, Debye):
    X=              0.0002    Y=             -0.0001    Z=             -0.0003  Tot=              0.0003
 Quadrupole moment (field-independent basis, Debye-Ang):
   XX=            -37.1241   YY=            -43.5788   ZZ=            -36.1949
   XY=              2.5916   XZ=             -0.9045   YZ=              1.6564
 Traceless Quadrupole moment (field-independent basis, Debye-Ang):
   XX=              1.8418   YY=             -4.6129   ZZ=              2.7710
   XY=              2.5916   XZ=             -0.9045   YZ=              1.6564
 Octapole moment (field-independent basis, Debye-Ang**2):
  XXX=            103.0579  YYY=           -124.9505  ZZZ=            -91.1705  XYY=             45.2786
  XXY=            -40.2751  XXZ=            -29.4964  XZZ=             31.9740  YZZ=            -31.8076
  YYZ=            -33.4264  XYZ=             -0.2201
 Hexadecapole moment (field-independent basis, Debye-Ang**3):
 XXXX=           -398.6180 YYYY=           -533.0684 ZZZZ=           -430.8309 XXXY=            161.2935
 XXXZ=            111.1209 YYYX=            194.1902 YYYZ=            -59.6549 ZZZX=            110.0608
 ZZZY=            -53.7129 XXYY=           -166.3401 XXZZ=           -135.6679 YYZZ=           -154.6333
 XXYZ=            -18.0666 YYXZ=             41.2947 ZZXY=             48.5817
 N-N= 2.317718062296D+02 E-N=-1.001883898701D+03  KE= 2.312264505366D+02
  Exact polarizability:   0.000   0.000   0.000   0.000   0.000   0.000
 Approx polarizability:  61.799  -9.438  50.145  -4.004  -4.971  66.993
 Calling FoFJK, ICntrl=    100147 FMM=F ISym2X=0 I1Cent= 0 IOpClX= 0 NMat=1 NMatS=1 NMatT=0.
 -------------------------------------------------------------------
 Center     Atomic                   Forces (Hartrees/Bohr)
 Number     Number              X              Y              Z
 -------------------------------------------------------------------
      1        6          -0.000024348   -0.000056669    0.000053293
      2        6          -0.000042461    0.000008157   -0.000014968
      3        1           0.000013247    0.000007937    0.000009896
      4        1           0.000001759    0.000004241    0.000010110
      5        6           0.000006109   -0.000099031   -0.000031849
      6        1          -0.000004031   -0.000002037   -0.000002502
      7        1           0.000016288    0.000001039   -0.000011180
      8        1           0.000026682   -0.000009183   -0.000001824
      9        6           0.000028032    0.000103928   -0.000052656
     10        6           0.000032245   -0.000024078    0.000035397
     11        1           0.000008877   -0.000021174   -0.000019927
     12        1          -0.000008448    0.000029583   -0.000015526
     13        6          -0.000029202    0.000045710    0.000041044
     14        1           0.000007229    0.000004035    0.000004063
     15        1          -0.000012331   -0.000008820   -0.000002844
     16        1          -0.000019647    0.000016362   -0.000000528
 -------------------------------------------------------------------
 Cartesian Forces:  Max     0.000103928 RMS     0.000031031
 IRC-IRC-IRC-IRC-IRC-IRC-IRC-IRC-IRC-IRC-IRC-IRC-IRC-IRC-IRC-IRC-IRC-IRC
          ******** Start new reaction path calculation ********
 Supplied step size of   0.1000 bohr.
    Integration on MW PES will use step size of   0.3144 sqrt(amu)*bohr.
 Point Number:   0          Path Number:   1
 Calculating another point on the path.
 IRC-IRC-IRC-IRC-IRC-IRC-IRC-IRC-IRC-IRC-IRC-IRC-IRC-IRC-IRC-IRC-IRC-IRC
                          Input orientation:                          
 ---------------------------------------------------------------------
 Center     Atomic      Atomic             Coordinates (Angstroms)
 Number     Number       Type             X           Y           Z
 ---------------------------------------------------------------------
      1          6           0        0.917533   -0.935713   -0.848554
      2          6           0        0.921917   -0.955581    0.555810
      3          1           0        1.864373   -0.957099   -1.361203
      4          1           0        0.146697   -1.486806   -1.358109
      5          6           0       -0.259614   -0.929402    1.257718
      6          1           0        1.825200   -0.660890    1.060509
      7          1           0       -0.241015   -0.872122    2.331643
      8          1           0       -1.127895   -1.417442    0.856773
      9          6           0       -0.933601    0.975524    0.830544
     10          6           0       -0.928734    0.955964   -0.543870
     11          1           0       -1.869018    0.954079    1.361102
     12          1           0       -0.137839    1.466063    1.358691
     13          6           0        0.282527    0.889204   -1.251722
     14          1           0       -1.827864    0.661432   -1.056031
     15          1           0        0.243465    0.875583   -2.327859
     16          1           0        1.123556    1.437260   -0.864641
 ---------------------------------------------------------------------
                    Distance matrix (angstroms):
                    1          2          3          4          5
     1  C    0.000000
     2  C    1.404511   0.000000
     3  H    1.076927   2.136156   0.000000
     4  H    1.075889   2.132194   1.797500   0.000000
     5  C    2.412902   1.374546   3.372067   2.705243   0.000000
     6  H    2.131644   1.075864   2.440074   3.057650   2.111265
     7  H    3.385251   2.124373   4.251704   3.760642   1.075612
     8  H    2.706285   2.122646   3.752998   2.556384   1.073710
     9  C    3.146250   2.692135   4.045669   3.467032   2.065304
    10  C    2.660822   2.878925   3.482712   2.790459   2.692220
    11  H    4.027252   3.476293   5.000175   4.173144   2.479591
    12  H    3.428450   2.762618   4.156728   4.022611   2.400683
    13  C    1.973854   2.660681   2.433733   2.382266   3.146194
    14  H    3.182943   3.574082   4.042942   2.933440   3.216147
    15  H    2.433825   3.482672   2.630683   2.555516   4.045667
    16  H    2.381954   2.789987   2.555061   3.122167   3.466794
                    6          7          8          9         10
     6  H    0.000000
     7  H    2.435086   0.000000
     8  H    3.055266   1.805318   0.000000
     9  C    3.215854   2.479268   2.400984   0.000000
    10  C    3.573850   3.476123   2.763064   1.374561   0.000000
    11  H    4.042985   2.631987   2.535296   1.075619   2.124395
    12  H    2.909702   2.534639   3.089780   1.073687   2.122605
    13  C    3.182616   4.027017   3.428652   2.412933   1.404516
    14  H    4.424156   4.043045   2.910411   2.111285   1.075869
    15  H    4.042731   5.000015   4.156979   3.372088   2.136147
    16  H    2.932703   4.172713   4.022639   2.705318   2.132237
                   11         12         13         14         15
    11  H    0.000000
    12  H    1.805301   0.000000
    13  C    3.385292   2.706239   0.000000
    14  H    2.435132   3.055241   2.131648   0.000000
    15  H    4.251726   3.752960   1.076932   2.440043   0.000000
    16  H    3.760704   2.556394   1.075884   3.057682   1.797511
                   16
    16  H    0.000000
 Symmetry turned off by external request.
 Stoichiometry    C6H10
 Framework group  C1[X(C6H10)]
 Deg. of freedom    42
 Full point group                 C1      NOp   1
 Rotational constants (GHZ):      4.5903758      4.0345496      2.4717664
 Standard basis: 3-21G (6D, 7F)
 Integral buffers will be    131072 words long.
 Raffenetti 1 integral format.
 Two-electron integral symmetry is turned off.
    74 basis functions,   120 primitive gaussians,    74 cartesian basis functions
    23 alpha electrons       23 beta electrons
       nuclear repulsion energy       231.7706530680 Hartrees.
 NAtoms=   16 NActive=   16 NUniq=   16 SFac= 7.50D-01 NAtFMM=   80 NAOKFM=F Big=F
 One-electron integrals computed using PRISM.
 NBasis=    74 RedAO= T  NBF=    74
 NBsUse=    74 1.00D-06 NBFU=    74
 Initial guess read from the read-write file.
 B after Tr=     0.000000    0.000000    0.000000
         Rot=    1.000000    0.000000    0.000000    0.000000 Ang=   0.00 deg.
 Harris functional with IExCor=  205 diagonalized for initial guess.
 ExpMin= 1.83D-01 ExpMax= 1.72D+02 ExpMxC= 1.72D+02 IAcc=1 IRadAn=         1 AccDes= 0.00D+00
 HarFok:  IExCor=  205 AccDes= 0.00D+00 IRadAn=         1 IDoV= 1
 ScaDFX=  1.000000  1.000000  1.000000  1.000000
 FoFCou: FMM=F IPFlag=           0 FMFlag=      100000 FMFlg1=           0
         NFxFlg=           0 DoJE=T BraDBF=F KetDBF=T FulRan=T
         Omega=  0.000000  0.000000  1.000000  0.000000  0.000000 ICntrl=     500 IOpCl=  0
         NMat0=    1 NMatS0=    1 NMatT0=    0 NMatD0=    1 NMtDS0=    0 NMtDT0=    0
         I1Cent=           4 NGrid=           0.
 Symmetry not used in FoFCou.
 Requested convergence on RMS density matrix=1.00D-08 within 128 cycles.
 Requested convergence on MAX density matrix=1.00D-06.
 Requested convergence on             energy=1.00D-06.
 No special actions if energy rises.
 Keep R1 ints in memory in canonical form, NReq=4687208.
 SCF Done:  E(RHF) =  -231.620551010     A.U. after   10 cycles
             Convg  =    0.7784D-08             -V/T =  2.0017
 Range of M.O.s used for correlation:     1    74
 NBasis=    74 NAE=    23 NBE=    23 NFC=     0 NFV=     0
 NROrb=     74 NOA=    23 NOB=    23 NVA=    51 NVB=    51
 Symmetrizing basis deriv contribution to polar:
 IMax=3 JMax=2 DiffMx= 0.00D+00
 Calling FoFJK, ICntrl=      2147 FMM=F ISym2X=0 I1Cent= 0 IOpClX= 0 NMat=1 NMatS=1 NMatT=0.
 -------------------------------------------------------------------
 Center     Atomic                   Forces (Hartrees/Bohr)
 Number     Number              X              Y              Z
 -------------------------------------------------------------------
      1        6          -0.004356405    0.010922407   -0.005361460
      2        6          -0.001528080    0.000241753    0.003227095
      3        1          -0.000201471   -0.000085519    0.000113344
      4        1           0.000417537   -0.000160961    0.000173922
      5        6           0.005595949   -0.011440474    0.002000282
      6        1          -0.000054339   -0.000048174    0.000123547
      7        1           0.000099357   -0.000040821   -0.000067094
      8        1           0.000197142    0.000682068   -0.000103997
      9        6          -0.004344787    0.011399297   -0.004212233
     10        6          -0.002009515   -0.000121305    0.002967432
     11        1           0.000015114    0.000017714   -0.000121530
     12        1          -0.000020839   -0.000668451   -0.000191078
     13        6           0.006624328   -0.011024454    0.001391756
     14        1          -0.000074866    0.000055561    0.000109662
     15        1           0.000009703    0.000091934    0.000231293
     16        1          -0.000368827    0.000179424   -0.000280941
 -------------------------------------------------------------------
 Cartesian Forces:  Max     0.011440474 RMS     0.003803731
 IRC-IRC-IRC-IRC-IRC-IRC-IRC-IRC-IRC-IRC-IRC-IRC-IRC-IRC-IRC-IRC-IRC-IRC
 Pt  1 Step number   1 out of a maximum of  20
 CORRECTOR INTEGRATION CONVERGENCE:
   Recorrection delta-x convergence threshold:    0.010000
   Delta-x Convergence Met
 Point Number:   1          Path Number:   1
   CHANGE IN THE REACTION COORDINATE =    0.31432
   NET REACTION COORDINATE UP TO THIS POINT =    0.31432
  # OF POINTS ALONG THE PATH =   1
  # OF STEPS =   1

 Calculating another point on the path.
 IRC-IRC-IRC-IRC-IRC-IRC-IRC-IRC-IRC-IRC-IRC-IRC-IRC-IRC-IRC-IRC-IRC-IRC
                          Input orientation:                          
 ---------------------------------------------------------------------
 Center     Atomic      Atomic             Coordinates (Angstroms)
 Number     Number       Type             X           Y           Z
 ---------------------------------------------------------------------
      1          6           0        0.909903   -0.915674   -0.857669
      2          6           0        0.918809   -0.955232    0.561703
      3          1           0        1.862306   -0.958960   -1.360832
      4          1           0        0.151122   -1.494534   -1.357798
      5          6           0       -0.248648   -0.949726    1.261073
      6          1           0        1.824333   -0.662015    1.063192
      7          1           0       -0.239512   -0.872819    2.333530
      8          1           0       -1.129694   -1.406531    0.852349
      9          6           0       -0.941652    0.995759    0.822112
     10          6           0       -0.932235    0.955836   -0.538195
     11          1           0       -1.871369    0.954577    1.360730
     12          1           0       -0.133425    1.455245    1.358378
     13          6           0        0.293872    0.869028   -1.249112
     14          1           0       -1.829695    0.662552   -1.053938
     15          1           0        0.244255    0.877442   -2.325951
     16          1           0        1.121083    1.445157   -0.868603
 ---------------------------------------------------------------------
                    Distance matrix (angstroms):
                    1          2          3          4          5
     1  C    0.000000
     2  C    1.419951   0.000000
     3  H    1.078016   2.141575   0.000000
     4  H    1.077477   2.136509   1.793042   0.000000
     5  C    2.415051   1.360920   3.366096   2.704647   0.000000
     6  H    2.142483   1.075844   2.442440   3.058417   2.102185
     7  H    3.392159   2.118460   4.251279   3.763645   1.075250
     8  H    2.706484   2.117666   3.748407   2.555969   1.073298
     9  C    3.146982   2.708412   4.055657   3.485358   2.111364
    10  C    2.645390   2.878945   3.486064   2.801736   2.708473
    11  H    4.019280   3.474321   5.000886   4.180790   2.503903
    12  H    3.408909   2.748142   4.147944   4.019922   2.409696
    13  C    1.928181   2.645282   2.411225   2.370362   3.146939
    14  H    3.167762   3.575163   4.044052   2.944314   3.233949
    15  H    2.411266   3.486009   2.630954   2.563643   4.055643
    16  H    2.370283   2.801528   2.563490   3.133995   3.485276
                    6          7          8          9         10
     6  H    0.000000
     7  H    2.432623   0.000000
     8  H    3.053691   1.808637   0.000000
     9  C    3.233729   2.503791   2.409828   0.000000
    10  C    3.574989   3.474284   2.748341   1.360925   0.000000
    11  H    4.044763   2.636034   2.526532   1.075258   2.118464
    12  H    2.898748   2.526274   3.072195   1.073285   2.117663
    13  C    3.167515   4.019186   3.408936   2.415067   1.419957
    14  H    4.425905   4.044871   2.899144   2.102191   1.075843
    15  H    4.043867   5.000821   4.147994   3.366106   2.141575
    16  H    2.943903   4.180656   4.019925   2.704690   2.136520
                   11         12         13         14         15
    11  H    0.000000
    12  H    1.808626   0.000000
    13  C    3.392177   2.706518   0.000000
    14  H    2.432619   3.053680   2.142490   0.000000
    15  H    4.251285   3.748437   1.078014   2.442429   0.000000
    16  H    3.763690   2.556039   1.077492   3.058416   1.793039
                   16
    16  H    0.000000
 Symmetry turned off by external request.
 Stoichiometry    C6H10
 Framework group  C1[X(C6H10)]
 Deg. of freedom    42
 Full point group                 C1      NOp   1
 Rotational constants (GHZ):      4.5887372      4.0317305      2.4700857
 Standard basis: 3-21G (6D, 7F)
 Integral buffers will be    131072 words long.
 Raffenetti 1 integral format.
 Two-electron integral symmetry is turned off.
    74 basis functions,   120 primitive gaussians,    74 cartesian basis functions
    23 alpha electrons       23 beta electrons
       nuclear repulsion energy       231.7557369212 Hartrees.
 NAtoms=   16 NActive=   16 NUniq=   16 SFac= 7.50D-01 NAtFMM=   80 NAOKFM=F Big=F
 One-electron integrals computed using PRISM.
 NBasis=    74 RedAO= T  NBF=    74
 NBsUse=    74 1.00D-06 NBFU=    74
 Initial guess read from the read-write file.
 B after Tr=     0.000000    0.000000    0.000000
         Rot=    1.000000    0.000000    0.000000    0.000000 Ang=   0.00 deg.
 Harris functional with IExCor=  205 diagonalized for initial guess.
 ExpMin= 1.83D-01 ExpMax= 1.72D+02 ExpMxC= 1.72D+02 IAcc=1 IRadAn=         1 AccDes= 0.00D+00
 HarFok:  IExCor=  205 AccDes= 0.00D+00 IRadAn=         1 IDoV= 1
 ScaDFX=  1.000000  1.000000  1.000000  1.000000
 FoFCou: FMM=F IPFlag=           0 FMFlag=      100000 FMFlg1=           0
         NFxFlg=           0 DoJE=T BraDBF=F KetDBF=T FulRan=T
         Omega=  0.000000  0.000000  1.000000  0.000000  0.000000 ICntrl=     500 IOpCl=  0
         NMat0=    1 NMatS0=    1 NMatT0=    0 NMatD0=    1 NMtDS0=    0 NMtDT0=    0
         I1Cent=           4 NGrid=           0.
 Symmetry not used in FoFCou.
 Requested convergence on RMS density matrix=1.00D-08 within 128 cycles.
 Requested convergence on MAX density matrix=1.00D-06.
 Requested convergence on             energy=1.00D-06.
 No special actions if energy rises.
 Keep R1 ints in memory in canonical form, NReq=4687208.
 SCF Done:  E(RHF) =  -231.623968688     A.U. after   11 cycles
             Convg  =    0.3695D-08             -V/T =  2.0017
 Range of M.O.s used for correlation:     1    74
 NBasis=    74 NAE=    23 NBE=    23 NFC=     0 NFV=     0
 NROrb=     74 NOA=    23 NOB=    23 NVA=    51 NVB=    51
 Symmetrizing basis deriv contribution to polar:
 IMax=3 JMax=2 DiffMx= 0.00D+00
 Calling FoFJK, ICntrl=      2147 FMM=F ISym2X=0 I1Cent= 0 IOpClX= 0 NMat=1 NMatS=1 NMatT=0.
 -------------------------------------------------------------------
 Center     Atomic                   Forces (Hartrees/Bohr)
 Number     Number              X              Y              Z
 -------------------------------------------------------------------
      1        6          -0.007695062    0.020017269   -0.009464252
      2        6          -0.001996641    0.000568175    0.005021824
      3        1          -0.000466788   -0.000074200    0.000190983
      4        1           0.000683095   -0.000082732    0.000271212
      5        6           0.009401039   -0.020737101    0.004195205
      6        1          -0.000055085   -0.000148045    0.000227401
      7        1           0.000209834   -0.000319247   -0.000034040
      8        1           0.000447459    0.001229773   -0.000111910
      9        6          -0.008001832    0.020684004   -0.006663005
     10        6          -0.003319860   -0.000373954    0.004284078
     11        1          -0.000065915    0.000311284   -0.000211223
     12        1          -0.000148966   -0.001234273   -0.000397815
     13        6           0.011687766   -0.020156605    0.002496417
     14        1          -0.000164487    0.000151686    0.000158954
     15        1           0.000073412    0.000088144    0.000494348
     16        1          -0.000587969    0.000075821   -0.000458179
 -------------------------------------------------------------------
 Cartesian Forces:  Max     0.020737101 RMS     0.006824289
 IRC-IRC-IRC-IRC-IRC-IRC-IRC-IRC-IRC-IRC-IRC-IRC-IRC-IRC-IRC-IRC-IRC-IRC
 Pt  2 Step number   1 out of a maximum of  20
 CORRECTOR INTEGRATION CONVERGENCE:
   Recorrection delta-x convergence threshold:    0.010000
   Delta-x Convergence Met
 Point Number:   2          Path Number:   1
   CHANGE IN THE REACTION COORDINATE =    0.31417
   NET REACTION COORDINATE UP TO THIS POINT =    0.62849
  # OF POINTS ALONG THE PATH =   2
  # OF STEPS =   1

 Calculating another point on the path.
 IRC-IRC-IRC-IRC-IRC-IRC-IRC-IRC-IRC-IRC-IRC-IRC-IRC-IRC-IRC-IRC-IRC-IRC
                          Input orientation:                          
 ---------------------------------------------------------------------
 Center     Atomic      Atomic             Coordinates (Angstroms)
 Number     Number       Type             X           Y           Z
 ---------------------------------------------------------------------
      1          6           0        0.902348   -0.895182   -0.866777
      2          6           0        0.916513   -0.954638    0.566855
      3          1           0        1.859380   -0.959536   -1.360781
      4          1           0        0.154899   -1.498399   -1.357477
      5          6           0       -0.238401   -0.970291    1.265243
      6          1           0        1.824298   -0.664212    1.065751
      7          1           0       -0.237013   -0.877453    2.335961
      8          1           0       -1.130516   -1.395645    0.848489
      9          6           0       -0.950055    1.016255    0.814715
     10          6           0       -0.935516    0.955449   -0.533587
     11          1           0       -1.874632    0.959222    1.359654
     12          1           0       -0.129886    1.444279    1.357487
     13          6           0        0.305164    0.848401   -1.246545
     14          1           0       -1.831829    0.664786   -1.052676
     15          1           0        0.245703    0.878066   -2.323428
     16          1           0        1.118945    1.448968   -0.871837
 ---------------------------------------------------------------------
                    Distance matrix (angstroms):
                    1          2          3          4          5
     1  C    0.000000
     2  C    1.434934   0.000000
     3  H    1.078930   2.145880   0.000000
     4  H    1.078581   2.139809   1.787634   0.000000
     5  C    2.419185   1.349746   3.361071   2.704116   0.000000
     6  H    2.153602   1.075788   2.444689   3.058561   2.094804
     7  H    3.399410   2.113366   4.250589   3.765721   1.074736
     8  H    2.706499   2.112849   3.743066   2.555218   1.072605
     9  C    3.148397   2.725790   4.065643   3.501832   2.157728
    10  C    2.629372   2.879134   3.487529   2.808766   2.725845
    11  H    4.013406   3.475900   5.002523   4.188281   2.531637
    12  H    3.389091   2.734018   4.138174   4.013912   2.418767
    13  C    1.881737   2.629280   2.386896   2.354221   3.148361
    14  H    3.153377   3.577541   4.044549   2.952857   3.253497
    15  H    2.386928   3.487481   2.628198   2.566883   4.065629
    16  H    2.354142   2.808583   2.566750   3.138822   3.501759
                    6          7          8          9         10
     6  H    0.000000
     7  H    2.430619   0.000000
     8  H    3.051741   1.810924   0.000000
     9  C    3.253310   2.531551   2.418877   0.000000
    10  C    3.577395   3.475880   2.734191   1.349750   0.000000
    11  H    4.050185   2.647328   2.521982   1.074734   2.113365
    12  H    2.889581   2.521771   3.053770   1.072606   2.112855
    13  C    3.153169   4.013337   3.389113   2.419202   1.434941
    14  H    4.429587   4.050285   2.889921   2.094804   1.075787
    15  H    4.044394   5.002476   4.138212   3.361082   2.145879
    16  H    2.952508   4.188178   4.013904   2.704156   2.139810
                   11         12         13         14         15
    11  H    0.000000
    12  H    1.810918   0.000000
    13  C    3.399421   2.706533   0.000000
    14  H    2.430610   3.051739   2.153611   0.000000
    15  H    4.250588   3.743100   1.078931   2.444675   0.000000
    16  H    3.765755   2.555287   1.078576   3.058548   1.787623
                   16
    16  H    0.000000
 Symmetry turned off by external request.
 Stoichiometry    C6H10
 Framework group  C1[X(C6H10)]
 Deg. of freedom    42
 Full point group                 C1      NOp   1
 Rotational constants (GHZ):      4.5849742      4.0275518      2.4670552
 Standard basis: 3-21G (6D, 7F)
 Integral buffers will be    131072 words long.
 Raffenetti 1 integral format.
 Two-electron integral symmetry is turned off.
    74 basis functions,   120 primitive gaussians,    74 cartesian basis functions
    23 alpha electrons       23 beta electrons
       nuclear repulsion energy       231.7278396157 Hartrees.
 NAtoms=   16 NActive=   16 NUniq=   16 SFac= 7.50D-01 NAtFMM=   80 NAOKFM=F Big=F
 One-electron integrals computed using PRISM.
 NBasis=    74 RedAO= T  NBF=    74
 NBsUse=    74 1.00D-06 NBFU=    74
 Initial guess read from the read-write file.
 B after Tr=     0.000000    0.000000    0.000000
         Rot=    1.000000    0.000000    0.000000    0.000000 Ang=   0.00 deg.
 Harris functional with IExCor=  205 diagonalized for initial guess.
 ExpMin= 1.83D-01 ExpMax= 1.72D+02 ExpMxC= 1.72D+02 IAcc=1 IRadAn=         1 AccDes= 0.00D+00
 HarFok:  IExCor=  205 AccDes= 0.00D+00 IRadAn=         1 IDoV= 1
 ScaDFX=  1.000000  1.000000  1.000000  1.000000
 FoFCou: FMM=F IPFlag=           0 FMFlag=      100000 FMFlg1=           0
         NFxFlg=           0 DoJE=T BraDBF=F KetDBF=T FulRan=T
         Omega=  0.000000  0.000000  1.000000  0.000000  0.000000 ICntrl=     500 IOpCl=  0
         NMat0=    1 NMatS0=    1 NMatT0=    0 NMatD0=    1 NMtDS0=    0 NMtDT0=    0
         I1Cent=           4 NGrid=           0.
 Symmetry not used in FoFCou.
 Requested convergence on RMS density matrix=1.00D-08 within 128 cycles.
 Requested convergence on MAX density matrix=1.00D-06.
 Requested convergence on             energy=1.00D-06.
 No special actions if energy rises.
 Keep R1 ints in memory in canonical form, NReq=4687208.
 SCF Done:  E(RHF) =  -231.628963015     A.U. after   11 cycles
             Convg  =    0.3450D-08             -V/T =  2.0016
 Range of M.O.s used for correlation:     1    74
 NBasis=    74 NAE=    23 NBE=    23 NFC=     0 NFV=     0
 NROrb=     74 NOA=    23 NOB=    23 NVA=    51 NVB=    51
 Symmetrizing basis deriv contribution to polar:
 IMax=3 JMax=2 DiffMx= 0.00D+00
 Calling FoFJK, ICntrl=      2147 FMM=F ISym2X=0 I1Cent= 0 IOpClX= 0 NMat=1 NMatS=1 NMatT=0.
 -------------------------------------------------------------------
 Center     Atomic                   Forces (Hartrees/Bohr)
 Number     Number              X              Y              Z
 -------------------------------------------------------------------
      1        6          -0.009677535    0.026054395   -0.011374787
      2        6          -0.001935596    0.000936658    0.005407613
      3        1          -0.000588219    0.000081927    0.000133633
      4        1           0.000598632    0.000049188    0.000191341
      5        6           0.011705849   -0.026774712    0.005817312
      6        1           0.000014353   -0.000278958    0.000256682
      7        1           0.000364054   -0.000816599    0.000226354
      8        1           0.000507839    0.001360310   -0.000102453
      9        6          -0.010438677    0.026731334   -0.008023222
     10        6          -0.003690387   -0.000729798    0.004439894
     11        1          -0.000366140    0.000815154   -0.000224901
     12        1          -0.000198655   -0.001370991   -0.000445695
     13        6           0.014212510   -0.026225021    0.003428767
     14        1          -0.000222226    0.000283089    0.000108679
     15        1           0.000182277   -0.000067052    0.000577240
     16        1          -0.000468079   -0.000048926   -0.000416458
 -------------------------------------------------------------------
 Cartesian Forces:  Max     0.026774712 RMS     0.008725581
 IRC-IRC-IRC-IRC-IRC-IRC-IRC-IRC-IRC-IRC-IRC-IRC-IRC-IRC-IRC-IRC-IRC-IRC
 Pt  3 Step number   1 out of a maximum of  20
 CORRECTOR INTEGRATION CONVERGENCE:
   Recorrection delta-x convergence threshold:    0.010000
   Delta-x Convergence Met
 Point Number:   3          Path Number:   1
   CHANGE IN THE REACTION COORDINATE =    0.31418
   NET REACTION COORDINATE UP TO THIS POINT =    0.94267
  # OF POINTS ALONG THE PATH =   3
  # OF STEPS =   1

 Calculating another point on the path.
 IRC-IRC-IRC-IRC-IRC-IRC-IRC-IRC-IRC-IRC-IRC-IRC-IRC-IRC-IRC-IRC-IRC-IRC
                          Input orientation:                          
 ---------------------------------------------------------------------
 Center     Atomic      Atomic             Coordinates (Angstroms)
 Number     Number       Type             X           Y           Z
 ---------------------------------------------------------------------
      1          6           0        0.894833   -0.874477   -0.875435
      2          6           0        0.914912   -0.953846    0.571081
      3          1           0        1.855560   -0.958034   -1.361184
      4          1           0        0.157714   -1.498987   -1.357346
      5          6           0       -0.228690   -0.991203    1.269999
      6          1           0        1.825013   -0.667264    1.067861
      7          1           0       -0.233188   -0.886610    2.339236
      8          1           0       -1.130384   -1.386070    0.845578
      9          6           0       -0.958682    1.037129    0.808068
     10          6           0       -0.938356    0.954820   -0.530039
     11          1           0       -1.879222    0.968396    1.357715
     12          1           0       -0.127641    1.434632    1.356211
     13          6           0        0.316043    0.827570   -1.243776
     14          1           0       -1.833943    0.667857   -1.052321
     15          1           0        0.247963    0.876617   -2.320294
     16          1           0        1.117406    1.449541   -0.874221
 ---------------------------------------------------------------------
                    Distance matrix (angstroms):
                    1          2          3          4          5
     1  C    0.000000
     2  C    1.448830   0.000000
     3  H    1.079783   2.149066   0.000000
     4  H    1.079628   2.142278   1.781945   0.000000
     5  C    2.424627   1.340787   3.356833   2.703719   0.000000
     6  H    2.164387   1.075734   2.446578   3.058313   2.088897
     7  H    3.406859   2.109272   4.249833   3.767297   1.074350
     8  H    2.706496   2.108412   3.737497   2.554373   1.071963
     9  C    3.150228   2.744176   4.075082   3.516708   2.204631
    10  C    2.612702   2.879249   3.486515   2.811934   2.744225
    11  H    4.009803   3.481522   5.005212   4.196265   2.563586
    12  H    3.370115   2.721796   4.128217   4.006362   2.429468
    13  C    1.835112   2.612622   2.360568   2.334702   3.150196
    14  H    3.139475   3.580720   4.043681   2.958877   3.274521
    15  H    2.360590   3.486468   2.621107   2.564938   4.075065
    16  H    2.334652   2.811792   2.564844   3.138190   3.516658
                    6          7          8          9         10
     6  H    0.000000
     7  H    2.429134   0.000000
     8  H    3.049666   1.812578   0.000000
     9  C    3.274356   2.563511   2.429564   0.000000
    10  C    3.580594   3.481504   2.721941   1.340790   0.000000
    11  H    4.059649   2.667182   2.523203   1.074350   2.109272
    12  H    2.883395   2.523022   3.036873   1.071960   2.108416
    13  C    3.139297   4.009744   3.370127   2.424645   1.448838
    14  H    4.434600   4.059735   2.883683   2.088897   1.075733
    15  H    4.043544   5.005167   4.128236   3.356844   2.149065
    16  H    2.958590   4.196190   4.006364   2.703761   2.142281
                   11         12         13         14         15
    11  H    0.000000
    12  H    1.812570   0.000000
    13  C    3.406872   2.706531   0.000000
    14  H    2.429125   3.049661   2.164395   0.000000
    15  H    4.249834   3.737532   1.079783   2.446563   0.000000
    16  H    3.767335   2.554445   1.079630   3.058302   1.781937
                   16
    16  H    0.000000
 Symmetry turned off by external request.
 Stoichiometry    C6H10
 Framework group  C1[X(C6H10)]
 Deg. of freedom    42
 Full point group                 C1      NOp   1
 Rotational constants (GHZ):      4.5804596      4.0213104      2.4629415
 Standard basis: 3-21G (6D, 7F)
 Integral buffers will be    131072 words long.
 Raffenetti 1 integral format.
 Two-electron integral symmetry is turned off.
    74 basis functions,   120 primitive gaussians,    74 cartesian basis functions
    23 alpha electrons       23 beta electrons
       nuclear repulsion energy       231.6921835888 Hartrees.
 NAtoms=   16 NActive=   16 NUniq=   16 SFac= 7.50D-01 NAtFMM=   80 NAOKFM=F Big=F
 One-electron integrals computed using PRISM.
 NBasis=    74 RedAO= T  NBF=    74
 NBsUse=    74 1.00D-06 NBFU=    74
 Initial guess read from the read-write file.
 B after Tr=     0.000000    0.000000    0.000000
         Rot=    1.000000    0.000000    0.000000    0.000000 Ang=   0.00 deg.
 Harris functional with IExCor=  205 diagonalized for initial guess.
 ExpMin= 1.83D-01 ExpMax= 1.72D+02 ExpMxC= 1.72D+02 IAcc=1 IRadAn=         1 AccDes= 0.00D+00
 HarFok:  IExCor=  205 AccDes= 0.00D+00 IRadAn=         1 IDoV= 1
 ScaDFX=  1.000000  1.000000  1.000000  1.000000
 FoFCou: FMM=F IPFlag=           0 FMFlag=      100000 FMFlg1=           0
         NFxFlg=           0 DoJE=T BraDBF=F KetDBF=T FulRan=T
         Omega=  0.000000  0.000000  1.000000  0.000000  0.000000 ICntrl=     500 IOpCl=  0
         NMat0=    1 NMatS0=    1 NMatT0=    0 NMatD0=    1 NMtDS0=    0 NMtDT0=    0
         I1Cent=           4 NGrid=           0.
 Symmetry not used in FoFCou.
 Requested convergence on RMS density matrix=1.00D-08 within 128 cycles.
 Requested convergence on MAX density matrix=1.00D-06.
 Requested convergence on             energy=1.00D-06.
 No special actions if energy rises.
 Keep R1 ints in memory in canonical form, NReq=4687208.
 SCF Done:  E(RHF) =  -231.634831651     A.U. after   11 cycles
             Convg  =    0.3002D-08             -V/T =  2.0016
 Range of M.O.s used for correlation:     1    74
 NBasis=    74 NAE=    23 NBE=    23 NFC=     0 NFV=     0
 NROrb=     74 NOA=    23 NOB=    23 NVA=    51 NVB=    51
 Symmetrizing basis deriv contribution to polar:
 IMax=3 JMax=2 DiffMx= 0.00D+00
 Calling FoFJK, ICntrl=      2147 FMM=F ISym2X=0 I1Cent= 0 IOpClX= 0 NMat=1 NMatS=1 NMatT=0.
 -------------------------------------------------------------------
 Center     Atomic                   Forces (Hartrees/Bohr)
 Number     Number              X              Y              Z
 -------------------------------------------------------------------
      1        6          -0.010473094    0.028754833   -0.011577249
      2        6          -0.001356661    0.001316180    0.004739402
      3        1          -0.000650985    0.000327051    0.000021057
      4        1           0.000418934    0.000344899    0.000097102
      5        6           0.012449500   -0.029817548    0.006960382
      6        1           0.000119691   -0.000412542    0.000211325
      7        1           0.000564835   -0.001472494    0.000487768
      8        1           0.000538087    0.001223263   -0.000021736
      9        6          -0.011748559    0.029793842   -0.008186431
     10        6          -0.003416180   -0.001141729    0.003615206
     11        1          -0.000678872    0.001476340   -0.000288314
     12        1          -0.000277406   -0.001231637   -0.000433453
     13        6           0.014743150   -0.028911232    0.004103717
     14        1          -0.000234229    0.000413467   -0.000009352
     15        1           0.000306103   -0.000314301    0.000581643
     16        1          -0.000304313   -0.000348393   -0.000301069
 -------------------------------------------------------------------
 Cartesian Forces:  Max     0.029817548 RMS     0.009562385
 IRC-IRC-IRC-IRC-IRC-IRC-IRC-IRC-IRC-IRC-IRC-IRC-IRC-IRC-IRC-IRC-IRC-IRC
 Pt  4 Step number   1 out of a maximum of  20
 CORRECTOR INTEGRATION CONVERGENCE:
   Recorrection delta-x convergence threshold:    0.010000
   Delta-x Convergence Met
 Point Number:   4          Path Number:   1
   CHANGE IN THE REACTION COORDINATE =    0.31417
   NET REACTION COORDINATE UP TO THIS POINT =    1.25684
  # OF POINTS ALONG THE PATH =   4
  # OF STEPS =   1

 Calculating another point on the path.
 IRC-IRC-IRC-IRC-IRC-IRC-IRC-IRC-IRC-IRC-IRC-IRC-IRC-IRC-IRC-IRC-IRC-IRC
                          Input orientation:                          
 ---------------------------------------------------------------------
 Center     Atomic      Atomic             Coordinates (Angstroms)
 Number     Number       Type             X           Y           Z
 ---------------------------------------------------------------------
      1          6           0        0.887432   -0.853868   -0.883432
      2          6           0        0.913978   -0.952838    0.574337
      3          1           0        1.850912   -0.954280   -1.362223
      4          1           0        0.159348   -1.496234   -1.357518
      5          6           0       -0.219425   -1.012501    1.275284
      6          1           0        1.826582   -0.671276    1.069326
      7          1           0       -0.227629   -0.901256    2.343539
      8          1           0       -1.129355   -1.378403    0.843850
      9          6           0       -0.967533    1.058414    0.802059
     10          6           0       -0.940704    0.953932   -0.527550
     11          1           0       -1.885470    0.983068    1.354621
     12          1           0       -0.126822    1.426900    1.354702
     13          6           0        0.326297    0.806856   -1.240773
     14          1           0       -1.835919    0.671857   -1.053061
     15          1           0        0.251145    0.872916   -2.316695
     16          1           0        1.116668    1.446763   -0.875629
 ---------------------------------------------------------------------
                    Distance matrix (angstroms):
                    1          2          3          4          5
     1  C    0.000000
     2  C    1.461366   0.000000
     3  H    1.080564   2.151305   0.000000
     4  H    1.080509   2.144018   1.776268   0.000000
     5  C    2.431122   1.333975   3.353525   2.703537   0.000000
     6  H    2.174536   1.075704   2.448084   3.057744   2.084466
     7  H    3.414521   2.106182   4.249214   3.768498   1.074063
     8  H    2.706672   2.104508   3.732109   2.553559   1.071444
     9  C    3.152554   2.763525   4.083955   3.529852   2.252176
    10  C    2.595549   2.879196   3.482969   2.811098   2.763569
    11  H    4.009015   3.491917   5.009502   4.205225   2.600826
    12  H    3.352590   2.712081   4.118632   3.997842   2.442449
    13  C    1.789014   2.595480   2.332553   2.312083   3.152526
    14  H    3.126220   3.584688   4.041364   2.962162   3.297166
    15  H    2.332570   3.482928   2.609390   2.557600   4.083938
    16  H    2.312037   2.810973   2.557518   3.132078   3.529809
                    6          7          8          9         10
     6  H    0.000000
     7  H    2.428229   0.000000
     8  H    3.047693   1.813793   0.000000
     9  C    3.297019   2.600755   2.442541   0.000000
    10  C    3.584576   3.491898   2.712215   1.333977   0.000000
    11  H    4.074012   2.697605   2.531628   1.074063   2.106181
    12  H    2.880897   2.531457   3.022543   1.071444   2.104513
    13  C    3.126066   4.008963   3.352602   2.431140   1.461373
    14  H    4.440996   4.074086   2.881158   2.084464   1.075703
    15  H    4.041246   5.009461   4.118648   3.353537   2.151304
    16  H    2.961911   4.205161   3.997848   2.703580   2.144020
                   11         12         13         14         15
    11  H    0.000000
    12  H    1.813789   0.000000
    13  C    3.414533   2.706707   0.000000
    14  H    2.428217   3.047691   2.174544   0.000000
    15  H    4.249214   3.732146   1.080564   2.448067   0.000000
    16  H    3.768535   2.553632   1.080508   3.057733   1.776260
                   16
    16  H    0.000000
 Symmetry turned off by external request.
 Stoichiometry    C6H10
 Framework group  C1[X(C6H10)]
 Deg. of freedom    42
 Full point group                 C1      NOp   1
 Rotational constants (GHZ):      4.5756354      4.0122413      2.4576425
 Standard basis: 3-21G (6D, 7F)
 Integral buffers will be    131072 words long.
 Raffenetti 1 integral format.
 Two-electron integral symmetry is turned off.
    74 basis functions,   120 primitive gaussians,    74 cartesian basis functions
    23 alpha electrons       23 beta electrons
       nuclear repulsion energy       231.6452526632 Hartrees.
 NAtoms=   16 NActive=   16 NUniq=   16 SFac= 7.50D-01 NAtFMM=   80 NAOKFM=F Big=F
 One-electron integrals computed using PRISM.
 NBasis=    74 RedAO= T  NBF=    74
 NBsUse=    74 1.00D-06 NBFU=    74
 Initial guess read from the read-write file.
 B after Tr=     0.000000    0.000000    0.000000
         Rot=    1.000000    0.000000    0.000000    0.000000 Ang=   0.00 deg.
 Harris functional with IExCor=  205 diagonalized for initial guess.
 ExpMin= 1.83D-01 ExpMax= 1.72D+02 ExpMxC= 1.72D+02 IAcc=1 IRadAn=         1 AccDes= 0.00D+00
 HarFok:  IExCor=  205 AccDes= 0.00D+00 IRadAn=         1 IDoV= 1
 ScaDFX=  1.000000  1.000000  1.000000  1.000000
 FoFCou: FMM=F IPFlag=           0 FMFlag=      100000 FMFlg1=           0
         NFxFlg=           0 DoJE=T BraDBF=F KetDBF=T FulRan=T
         Omega=  0.000000  0.000000  1.000000  0.000000  0.000000 ICntrl=     500 IOpCl=  0
         NMat0=    1 NMatS0=    1 NMatT0=    0 NMatD0=    1 NMtDS0=    0 NMtDT0=    0
         I1Cent=           4 NGrid=           0.
 Symmetry not used in FoFCou.
 Requested convergence on RMS density matrix=1.00D-08 within 128 cycles.
 Requested convergence on MAX density matrix=1.00D-06.
 Requested convergence on             energy=1.00D-06.
 No special actions if energy rises.
 Keep R1 ints in memory in canonical form, NReq=4687208.
 SCF Done:  E(RHF) =  -231.640985908     A.U. after   11 cycles
             Convg  =    0.2395D-08             -V/T =  2.0015
 Range of M.O.s used for correlation:     1    74
 NBasis=    74 NAE=    23 NBE=    23 NFC=     0 NFV=     0
 NROrb=     74 NOA=    23 NOB=    23 NVA=    51 NVB=    51
 Symmetrizing basis deriv contribution to polar:
 IMax=3 JMax=2 DiffMx= 0.00D+00
 Calling FoFJK, ICntrl=      2147 FMM=F ISym2X=0 I1Cent= 0 IOpClX= 0 NMat=1 NMatS=1 NMatT=0.
 -------------------------------------------------------------------
 Center     Atomic                   Forces (Hartrees/Bohr)
 Number     Number              X              Y              Z
 -------------------------------------------------------------------
      1        6          -0.010286007    0.028521989   -0.010496064
      2        6          -0.000686935    0.001599144    0.003608390
      3        1          -0.000661729    0.000571681   -0.000103226
      4        1           0.000179706    0.000615141    0.000002681
      5        6           0.012312775   -0.030539739    0.007434449
      6        1           0.000228801   -0.000528136    0.000105929
      7        1           0.000780965   -0.002153986    0.000727169
      8        1           0.000554211    0.000914534    0.000129727
      9        6          -0.012071480    0.030533830   -0.007851235
     10        6          -0.002787728   -0.001473811    0.002474338
     11        1          -0.000982586    0.002161377   -0.000375088
     12        1          -0.000411845   -0.000919083   -0.000381897
     13        6           0.013719891   -0.028648952    0.004482347
     14        1          -0.000196905    0.000524079   -0.000160882
     15        1           0.000414105   -0.000562535    0.000536512
     16        1          -0.000105239   -0.000615533   -0.000133150
 -------------------------------------------------------------------
 Cartesian Forces:  Max     0.030539739 RMS     0.009559936
 IRC-IRC-IRC-IRC-IRC-IRC-IRC-IRC-IRC-IRC-IRC-IRC-IRC-IRC-IRC-IRC-IRC-IRC
 Pt  5 Step number   1 out of a maximum of  20
 CORRECTOR INTEGRATION CONVERGENCE:
   Recorrection delta-x convergence threshold:    0.010000
   Delta-x Convergence Met
 Point Number:   5          Path Number:   1
   CHANGE IN THE REACTION COORDINATE =    0.31417
   NET REACTION COORDINATE UP TO THIS POINT =    1.57101
  # OF POINTS ALONG THE PATH =   5
  # OF STEPS =   1

 Calculating another point on the path.
 IRC-IRC-IRC-IRC-IRC-IRC-IRC-IRC-IRC-IRC-IRC-IRC-IRC-IRC-IRC-IRC-IRC-IRC
                          Input orientation:                          
 ---------------------------------------------------------------------
 Center     Atomic      Atomic             Coordinates (Angstroms)
 Number     Number       Type             X           Y           Z
 ---------------------------------------------------------------------
      1          6           0        0.880236   -0.833857   -0.890575
      2          6           0        0.913599   -0.951648    0.576699
      3          1           0        1.845560   -0.948444   -1.363931
      4          1           0        0.159686   -1.490690   -1.357932
      5          6           0       -0.210373   -1.034269    1.280970
      6          1           0        1.829061   -0.676303    1.069915
      7          1           0       -0.219896   -0.922110    2.348966
      8          1           0       -1.127439   -1.373127    0.843672
      9          6           0       -0.976612    1.080185    0.796422
     10          6           0       -0.942568    0.952822   -0.525987
     11          1           0       -1.893674    1.003937    1.350018
     12          1           0       -0.127749    1.421596    1.353133
     13          6           0        0.335723    0.786763   -1.237534
     14          1           0       -1.837583    0.676829   -1.055064
     15          1           0        0.255223    0.867125   -2.312759
     16          1           0        1.116741    1.441223   -0.875950
 ---------------------------------------------------------------------
                    Distance matrix (angstroms):
                    1          2          3          4          5
     1  C    0.000000
     2  C    1.472372   0.000000
     3  H    1.081225   2.152814   0.000000
     4  H    1.081224   2.145169   1.770944   0.000000
     5  C    2.438279   1.328962   3.351079   2.703529   0.000000
     6  H    2.183715   1.075708   2.449069   3.056875   2.081340
     7  H    3.422383   2.103952   4.248812   3.769411   1.073911
     8  H    2.707247   2.101133   3.727277   2.552954   1.071011
     9  C    3.155534   2.783796   4.092324   3.541442   2.300613
    10  C    2.578325   2.878937   3.477157   2.806750   2.783835
    11  H    4.011523   3.507580   5.015893   4.215737   2.644343
    12  H    3.337263   2.705465   4.110167   3.989224   2.458314
    13  C    1.744501   2.578266   2.303591   2.287418   3.155510
    14  H    3.113803   3.589372   4.037630   2.962930   3.321554
    15  H    2.303603   3.477120   2.593403   2.545607   4.092306
    16  H    2.287386   2.806650   2.545547   3.121598   3.541411
                    6          7          8          9         10
     6  H    0.000000
     7  H    2.427883   0.000000
     8  H    3.045922   1.814652   0.000000
     9  C    3.321422   2.644276   2.458398   0.000000
    10  C    3.589273   3.507561   2.705584   1.328964   0.000000
    11  H    4.093949   2.740271   2.548319   1.073911   2.103951
    12  H    2.882793   2.548163   3.011546   1.071008   2.101136
    13  C    3.113670   4.011476   3.337272   2.438297   1.472379
    14  H    4.448683   4.094012   2.883023   2.081337   1.075707
    15  H    4.037526   5.015853   4.110175   3.351092   2.152812
    16  H    2.962719   4.215688   3.989237   2.703572   2.145172
                   11         12         13         14         15
    11  H    0.000000
    12  H    1.814646   0.000000
    13  C    3.422396   2.707282   0.000000
    14  H    2.427872   3.045919   2.183721   0.000000
    15  H    4.248813   3.727314   1.081225   2.449051   0.000000
    16  H    3.769449   2.553028   1.081226   3.056863   1.770938
                   16
    16  H    0.000000
 Symmetry turned off by external request.
 Stoichiometry    C6H10
 Framework group  C1[X(C6H10)]
 Deg. of freedom    42
 Full point group                 C1      NOp   1
 Rotational constants (GHZ):      4.5712081      3.9991139      2.4509635
 Standard basis: 3-21G (6D, 7F)
 Integral buffers will be    131072 words long.
 Raffenetti 1 integral format.
 Two-electron integral symmetry is turned off.
    74 basis functions,   120 primitive gaussians,    74 cartesian basis functions
    23 alpha electrons       23 beta electrons
       nuclear repulsion energy       231.5822541389 Hartrees.
 NAtoms=   16 NActive=   16 NUniq=   16 SFac= 7.50D-01 NAtFMM=   80 NAOKFM=F Big=F
 One-electron integrals computed using PRISM.
 NBasis=    74 RedAO= T  NBF=    74
 NBsUse=    74 1.00D-06 NBFU=    74
 Initial guess read from the read-write file.
 B after Tr=     0.000000    0.000000    0.000000
         Rot=    1.000000    0.000000    0.000000    0.000000 Ang=   0.00 deg.
 Harris functional with IExCor=  205 diagonalized for initial guess.
 ExpMin= 1.83D-01 ExpMax= 1.72D+02 ExpMxC= 1.72D+02 IAcc=1 IRadAn=         1 AccDes= 0.00D+00
 HarFok:  IExCor=  205 AccDes= 0.00D+00 IRadAn=         1 IDoV= 1
 ScaDFX=  1.000000  1.000000  1.000000  1.000000
 FoFCou: FMM=F IPFlag=           0 FMFlag=      100000 FMFlg1=           0
         NFxFlg=           0 DoJE=T BraDBF=F KetDBF=T FulRan=T
         Omega=  0.000000  0.000000  1.000000  0.000000  0.000000 ICntrl=     500 IOpCl=  0
         NMat0=    1 NMatS0=    1 NMatT0=    0 NMatD0=    1 NMtDS0=    0 NMtDT0=    0
         I1Cent=           4 NGrid=           0.
 Symmetry not used in FoFCou.
 Requested convergence on RMS density matrix=1.00D-08 within 128 cycles.
 Requested convergence on MAX density matrix=1.00D-06.
 Requested convergence on             energy=1.00D-06.
 No special actions if energy rises.
 Keep R1 ints in memory in canonical form, NReq=4687208.
 SCF Done:  E(RHF) =  -231.646994227     A.U. after   11 cycles
             Convg  =    0.1854D-08             -V/T =  2.0015
 Range of M.O.s used for correlation:     1    74
 NBasis=    74 NAE=    23 NBE=    23 NFC=     0 NFV=     0
 NROrb=     74 NOA=    23 NOB=    23 NVA=    51 NVB=    51
 Symmetrizing basis deriv contribution to polar:
 IMax=3 JMax=2 DiffMx= 0.00D+00
 Calling FoFJK, ICntrl=      2147 FMM=F ISym2X=0 I1Cent= 0 IOpClX= 0 NMat=1 NMatS=1 NMatT=0.
 -------------------------------------------------------------------
 Center     Atomic                   Forces (Hartrees/Bohr)
 Number     Number              X              Y              Z
 -------------------------------------------------------------------
      1        6          -0.009402098    0.025917106   -0.008612054
      2        6          -0.000104049    0.001701545    0.002434570
      3        1          -0.000603426    0.000718502   -0.000208038
      4        1          -0.000047872    0.000762476   -0.000066573
      5        6           0.011811345   -0.029675324    0.007371463
      6        1           0.000312563   -0.000615285   -0.000025907
      7        1           0.000991167   -0.002742020    0.000877795
      8        1           0.000523213    0.000523768    0.000296017
      9        6          -0.011781445    0.029676424   -0.007423855
     10        6          -0.002075122   -0.001625467    0.001380689
     11        1          -0.001207392    0.002750203   -0.000499537
     12        1          -0.000530049   -0.000522291   -0.000282802
     13        6           0.011699502   -0.025999091    0.004590928
     14        1          -0.000124387    0.000605596   -0.000302680
     15        1           0.000471775   -0.000713665    0.000437795
     16        1           0.000066276   -0.000762475    0.000032189
 -------------------------------------------------------------------
 Cartesian Forces:  Max     0.029676424 RMS     0.008966048
 IRC-IRC-IRC-IRC-IRC-IRC-IRC-IRC-IRC-IRC-IRC-IRC-IRC-IRC-IRC-IRC-IRC-IRC
 Pt  6 Step number   1 out of a maximum of  20
 CORRECTOR INTEGRATION CONVERGENCE:
   Recorrection delta-x convergence threshold:    0.010000
   Delta-x Convergence Met
 Point Number:   6          Path Number:   1
   CHANGE IN THE REACTION COORDINATE =    0.31415
   NET REACTION COORDINATE UP TO THIS POINT =    1.88516
  # OF POINTS ALONG THE PATH =   6
  # OF STEPS =   1

 Calculating another point on the path.
 IRC-IRC-IRC-IRC-IRC-IRC-IRC-IRC-IRC-IRC-IRC-IRC-IRC-IRC-IRC-IRC-IRC-IRC
                          Input orientation:                          
 ---------------------------------------------------------------------
 Center     Atomic      Atomic             Coordinates (Angstroms)
 Number     Number       Type             X           Y           Z
 ---------------------------------------------------------------------
      1          6           0        0.873381   -0.815128   -0.896670
      2          6           0        0.913685   -0.950365    0.578291
      3          1           0        1.839784   -0.941227   -1.366166
      4          1           0        0.158773   -1.483249   -1.358419
      5          6           0       -0.201236   -1.056688    1.286962
      6          1           0        1.832459   -0.682391    1.069471
      7          1           0       -0.209515   -0.949644    2.355482
      8          1           0       -1.124716   -1.370594    0.845323
      9          6           0       -0.985985    1.102615    0.790844
     10          6           0       -0.944006    0.951586   -0.525212
     11          1           0       -1.904032    1.031469    1.343465
     12          1           0       -0.130601    1.419073    1.351707
     13          6           0        0.344097    0.767980   -1.234099
     14          1           0       -1.838806    0.682812   -1.058417
     15          1           0        0.259943    0.859947   -2.308679
     16          1           0        1.117478    1.433797   -0.875168
 ---------------------------------------------------------------------
                    Distance matrix (angstroms):
                    1          2          3          4          5
     1  C    0.000000
     2  C    1.481696   0.000000
     3  H    1.081787   2.153754   0.000000
     4  H    1.081787   2.145857   1.766251   0.000000
     5  C    2.445690   1.325356   3.349355   2.703628   0.000000
     6  H    2.191611   1.075739   2.449362   3.055691   2.079259
     7  H    3.430342   2.102377   4.248571   3.770071   1.073900
     8  H    2.708407   2.098327   3.723344   2.552746   1.070699
     9  C    3.159538   2.805112   4.100603   3.551971   2.350437
    10  C    2.561670   2.878567   3.469788   2.799782   2.805146
    11  H    4.017729   3.528836   5.024916   4.228374   2.695015
    12  H    3.324881   2.702396   4.103690   3.981457   2.477615
    13  C    1.703007   2.561620   2.275063   2.262263   3.159517
    14  H    3.102570   3.594758   4.032894   2.961781   3.347879
    15  H    2.275072   3.469756   2.574579   2.530572   4.100587
    16  H    2.262235   2.799697   2.530522   3.108344   3.551947
                    6          7          8          9         10
     6  H    0.000000
     7  H    2.427943   0.000000
     8  H    3.044462   1.815316   0.000000
     9  C    3.347761   2.694952   2.477696   0.000000
    10  C    3.594670   3.528817   2.702506   1.325358   0.000000
    11  H    4.119921   2.796494   2.573983   1.073900   2.102375
    12  H    2.889535   2.573832   3.004486   1.070699   2.098332
    13  C    3.102456   4.017687   3.324892   2.445709   1.481702
    14  H    4.457563   4.119977   2.889745   2.079255   1.075738
    15  H    4.032805   5.024879   4.103696   3.349368   2.153752
    16  H    2.961599   4.228333   3.981473   2.703671   2.145860
                   11         12         13         14         15
    11  H    0.000000
    12  H    1.815313   0.000000
    13  C    3.430356   2.708441   0.000000
    14  H    2.427932   3.044461   2.191616   0.000000
    15  H    4.248572   3.723383   1.081787   2.449342   0.000000
    16  H    3.770109   2.552821   1.081786   3.055679   1.766246
                   16
    16  H    0.000000
 Symmetry turned off by external request.
 Stoichiometry    C6H10
 Framework group  C1[X(C6H10)]
 Deg. of freedom    42
 Full point group                 C1      NOp   1
 Rotational constants (GHZ):      4.5678633      3.9800920      2.4424877
 Standard basis: 3-21G (6D, 7F)
 Integral buffers will be    131072 words long.
 Raffenetti 1 integral format.
 Two-electron integral symmetry is turned off.
    74 basis functions,   120 primitive gaussians,    74 cartesian basis functions
    23 alpha electrons       23 beta electrons
       nuclear repulsion energy       231.4897748000 Hartrees.
 NAtoms=   16 NActive=   16 NUniq=   16 SFac= 7.50D-01 NAtFMM=   80 NAOKFM=F Big=F
 One-electron integrals computed using PRISM.
 NBasis=    74 RedAO= T  NBF=    74
 NBsUse=    74 1.00D-06 NBFU=    74
 Initial guess read from the read-write file.
 B after Tr=     0.000000    0.000000    0.000000
         Rot=    1.000000    0.000000    0.000000    0.000000 Ang=   0.00 deg.
 Harris functional with IExCor=  205 diagonalized for initial guess.
 ExpMin= 1.83D-01 ExpMax= 1.72D+02 ExpMxC= 1.72D+02 IAcc=1 IRadAn=         1 AccDes= 0.00D+00
 HarFok:  IExCor=  205 AccDes= 0.00D+00 IRadAn=         1 IDoV= 1
 ScaDFX=  1.000000  1.000000  1.000000  1.000000
[...]
 Harris functional with IExCor=  205 diagonalized for initial guess.
 ExpMin= 1.83D-01 ExpMax= 1.72D+02 ExpMxC= 1.72D+02 IAcc=1 IRadAn=         1 AccDes= 0.00D+00
 HarFok:  IExCor=  205 AccDes= 0.00D+00 IRadAn=         1 IDoV= 1
 ScaDFX=  1.000000  1.000000  1.000000  1.000000
 FoFCou: FMM=F IPFlag=           0 FMFlag=      100000 FMFlg1=           0
         NFxFlg=           0 DoJE=T BraDBF=F KetDBF=T FulRan=T
         Omega=  0.000000  0.000000  1.000000  0.000000  0.000000 ICntrl=     500 IOpCl=  0
         NMat0=    1 NMatS0=    1 NMatT0=    0 NMatD0=    1 NMtDS0=    0 NMtDT0=    0
         I1Cent=           4 NGrid=           0.
 Symmetry not used in FoFCou.
 Requested convergence on RMS density matrix=1.00D-08 within 128 cycles.
 Requested convergence on MAX density matrix=1.00D-06.
 Requested convergence on             energy=1.00D-06.
 No special actions if energy rises.
 Keep R1 ints in memory in canonical form, NReq=4687208.
 SCF Done:  E(RHF) =  -231.688118565     A.U. after    9 cycles
             Convg  =    0.3101D-08             -V/T =  2.0017
 Range of M.O.s used for correlation:     1    74
 NBasis=    74 NAE=    23 NBE=    23 NFC=     0 NFV=     0
 NROrb=     74 NOA=    23 NOB=    23 NVA=    51 NVB=    51
 Symmetrizing basis deriv contribution to polar:
 IMax=3 JMax=2 DiffMx= 0.00D+00
 Calling FoFJK, ICntrl=      2147 FMM=F ISym2X=0 I1Cent= 0 IOpClX= 0 NMat=1 NMatS=1 NMatT=0.
 -------------------------------------------------------------------
 Center     Atomic                   Forces (Hartrees/Bohr)
 Number     Number              X              Y              Z
 -------------------------------------------------------------------
      1        6          -0.001036431   -0.000912338    0.000396163
      2        6           0.000642520   -0.000450480   -0.000398526
      3        1          -0.000156066   -0.000105327   -0.000066099
      4        1          -0.000152475    0.000079732    0.000095223
      5        6           0.002207743   -0.003173843    0.001388144
      6        1           0.000059928    0.000002275   -0.000068551
      7        1           0.000207337   -0.000170042   -0.000305082
      8        1          -0.000166217   -0.000308373   -0.000004736
      9        6          -0.002270081    0.003172172   -0.001321202
     10        6           0.000031960    0.000416482   -0.000769003
     11        1           0.000151559    0.000157440   -0.000336916
     12        1           0.000112695    0.000313418    0.000140810
     13        6           0.000213995    0.000944649    0.001068151
     14        1           0.000025704   -0.000003175   -0.000082821
     15        1           0.000135516    0.000116153    0.000085034
     16        1          -0.000007688   -0.000078744    0.000179413
 -------------------------------------------------------------------
 Cartesian Forces:  Max     0.003173843 RMS     0.000915952
 IRC-IRC-IRC-IRC-IRC-IRC-IRC-IRC-IRC-IRC-IRC-IRC-IRC-IRC-IRC-IRC-IRC-IRC
 Error in corrector energy =          -0.0000059847
 Magnitude of corrector gradient =     0.0054123473
 Magnitude of analytic gradient =      0.0063459048
 Magnitude of difference =             0.0021345849
 Angle between gradients (degrees)=   18.8520
 Pt 24 Step number  18 out of a maximum of  20
 CORRECTOR INTEGRATION CONVERGENCE:
   Recorrection delta-x convergence threshold:    0.010000
   Delta-x Convergence NOT Met
 IRC-IRC-IRC-IRC-IRC-IRC-IRC-IRC-IRC-IRC-IRC-IRC-IRC-IRC-IRC-IRC-IRC-IRC
                          Input orientation:                          
 ---------------------------------------------------------------------
 Center     Atomic      Atomic             Coordinates (Angstroms)
 Number     Number       Type             X           Y           Z
 ---------------------------------------------------------------------
      1          6           0        0.777691   -0.767956   -0.888396
      2          6           0        0.971772   -1.023868    0.584942
      3          1           0        1.693365   -0.985730   -1.428051
      4          1           0       -0.000618   -1.410289   -1.284118
      5          6           0        0.025034   -1.454139    1.391852
      6          1           0        1.942447   -0.780776    0.981754
      7          1           0        0.190227   -1.579843    2.444792
      8          1           0       -0.959000   -1.689868    1.032826
      9          6           0       -1.183671    1.498924    0.635945
     10          6           0       -0.977841    1.024137   -0.574313
     11          1           0       -2.171971    1.656512    1.023539
     12          1           0       -0.370127    1.741132    1.293478
     13          6           0        0.384675    0.722994   -1.145932
     14          1           0       -1.817262    0.776067   -1.200889
     15          1           0        0.388436    0.905242   -2.215479
     16          1           0        1.133043    1.366460   -0.697790
 ---------------------------------------------------------------------
                    Distance matrix (angstroms):
                    1          2          3          4          5
     1  C    0.000000
     2  C    1.507940   0.000000
     3  H    1.084949   2.138760   0.000000
     4  H    1.083953   2.142019   1.752298   0.000000
     5  C    2.497373   1.316263   3.309772   2.676452   0.000000
     6  H    2.203243   1.076459   2.431297   3.050567   2.073179
     7  H    3.480576   2.092597   4.196583   3.737638   1.073206
     8  H    2.749020   2.090942   3.686024   2.522873   1.073681
     9  C    3.362930   3.318586   4.325612   3.681002   3.279168
    10  C    2.528267   3.056008   3.450185   2.717576   3.318646
    11  H    4.270134   4.154506   5.285126   4.409685   3.826047
    12  H    3.517610   3.154036   4.370411   4.088030   3.221116
    13  C    1.563240   2.528267   2.170714   2.172198   3.362975
    14  H    3.035694   3.769306   3.934468   2.843814   3.884608
    15  H    2.170774   3.450233   2.428715   2.525962   4.325688
    16  H    2.172173   2.717549   2.525874   3.056028   3.681041
                    6          7          8          9         10
     6  H    0.000000
     7  H    2.418525   0.000000
     8  H    3.040962   1.823863   0.000000
     9  C    3.884486   3.826007   3.221240   0.000000
    10  C    3.769236   4.154526   3.154215   1.316250   0.000000
    11  H    4.782317   4.251344   3.559444   1.073220   2.092600
    12  H    3.435869   3.559269   3.490913   1.073716   2.090943
    13  C    3.035626   4.270148   3.517720   2.497372   1.507941
    14  H    4.617695   4.782396   3.436122   2.073143   1.076459
    15  H    3.934451   5.285173   4.370546   3.309773   2.138756
    16  H    2.843699   4.409696   4.088131   2.676483   2.142024
                   11         12         13         14         15
    11  H    0.000000
    12  H    1.823916   0.000000
    13  C    3.480589   2.749009   0.000000
    14  H    2.418487   3.040956   2.203262   0.000000
    15  H    4.196586   3.686043   1.084970   2.431292   0.000000
    16  H    3.737676   2.522904   1.083944   3.050570   1.752297
                   16
    16  H    0.000000
 Symmetry turned off by external request.
 Stoichiometry    C6H10
 Framework group  C1[X(C6H10)]
 Deg. of freedom    42
 Full point group                 C1      NOp   1
 Rotational constants (GHZ):      4.8135257      2.9924045      2.0912026
 Standard basis: 3-21G (6D, 7F)
 Integral buffers will be    131072 words long.
 Raffenetti 1 integral format.
 Two-electron integral symmetry is turned off.
    74 basis functions,   120 primitive gaussians,    74 cartesian basis functions
    23 alpha electrons       23 beta electrons
       nuclear repulsion energy       224.0963063544 Hartrees.
 NAtoms=   16 NActive=   16 NUniq=   16 SFac= 7.50D-01 NAtFMM=   80 NAOKFM=F Big=F
 One-electron integrals computed using PRISM.
 NBasis=    74 RedAO= T  NBF=    74
 NBsUse=    74 1.00D-06 NBFU=    74
 Initial guess read from the read-write file.
 B after Tr=     0.000000    0.000000    0.000000
         Rot=    1.000000    0.000000    0.000000    0.000000 Ang=   0.00 deg.
 Harris functional with IExCor=  205 diagonalized for initial guess.
 ExpMin= 1.83D-01 ExpMax= 1.72D+02 ExpMxC= 1.72D+02 IAcc=1 IRadAn=         1 AccDes= 0.00D+00
 HarFok:  IExCor=  205 AccDes= 0.00D+00 IRadAn=         1 IDoV= 1
 ScaDFX=  1.000000  1.000000  1.000000  1.000000
 FoFCou: FMM=F IPFlag=           0 FMFlag=      100000 FMFlg1=           0
         NFxFlg=           0 DoJE=T BraDBF=F KetDBF=T FulRan=T
         Omega=  0.000000  0.000000  1.000000  0.000000  0.000000 ICntrl=     500 IOpCl=  0
         NMat0=    1 NMatS0=    1 NMatT0=    0 NMatD0=    1 NMtDS0=    0 NMtDT0=    0
         I1Cent=           4 NGrid=           0.
 Symmetry not used in FoFCou.
 Requested convergence on RMS density matrix=1.00D-08 within 128 cycles.
 Requested convergence on MAX density matrix=1.00D-06.
 Requested convergence on             energy=1.00D-06.
 No special actions if energy rises.
 Keep R1 ints in memory in canonical form, NReq=4687208.
 SCF Done:  E(RHF) =  -231.688118802     A.U. after    9 cycles
             Convg  =    0.2972D-08             -V/T =  2.0017
 Range of M.O.s used for correlation:     1    74
 NBasis=    74 NAE=    23 NBE=    23 NFC=     0 NFV=     0
 NROrb=     74 NOA=    23 NOB=    23 NVA=    51 NVB=    51
 Symmetrizing basis deriv contribution to polar:
 IMax=3 JMax=2 DiffMx= 0.00D+00
 Calling FoFJK, ICntrl=      2147 FMM=F ISym2X=0 I1Cent= 0 IOpClX= 0 NMat=1 NMatS=1 NMatT=0.
 -------------------------------------------------------------------
 Center     Atomic                   Forces (Hartrees/Bohr)
 Number     Number              X              Y              Z
 -------------------------------------------------------------------
      1        6          -0.001189383    0.000284421    0.000189112
      2        6           0.000299870   -0.001078818    0.000188827
      3        1          -0.000165198   -0.000081064   -0.000077147
      4        1          -0.000228305    0.000042368    0.000073462
      5        6           0.001833837   -0.002443336    0.000005012
      6        1           0.000030694    0.000056886   -0.000089484
      7        1           0.000360646   -0.000406218    0.000339719
      8        1           0.000461126   -0.000364498    0.000254684
      9        6          -0.000874711    0.002417512   -0.001623161
     10        6          -0.000297921    0.001075730   -0.000211420
     11        1          -0.000457446    0.000408791   -0.000153972
     12        1          -0.000469235    0.000361700   -0.000293478
     13        6           0.000423976   -0.000253845    0.001119545
     14        1           0.000063337   -0.000061686   -0.000074683
     15        1           0.000154669    0.000072144    0.000114056
     16        1           0.000054045   -0.000030089    0.000238930
 -------------------------------------------------------------------
 Cartesian Forces:  Max     0.002443336 RMS     0.000736995
 IRC-IRC-IRC-IRC-IRC-IRC-IRC-IRC-IRC-IRC-IRC-IRC-IRC-IRC-IRC-IRC-IRC-IRC
 Error in corrector energy =          -0.0000050038
 Magnitude of corrector gradient =     0.0055895579
 Magnitude of analytic gradient =      0.0051060519
 Magnitude of difference =             0.0019599284
 Angle between gradients (degrees)=   20.4791
 Pt 24 Step number  19 out of a maximum of  20
 CORRECTOR INTEGRATION CONVERGENCE:
   Recorrection delta-x convergence threshold:    0.010000
   Delta-x Convergence NOT Met
 IRC-IRC-IRC-IRC-IRC-IRC-IRC-IRC-IRC-IRC-IRC-IRC-IRC-IRC-IRC-IRC-IRC-IRC
                          Input orientation:                          
 ---------------------------------------------------------------------
 Center     Atomic      Atomic             Coordinates (Angstroms)
 Number     Number       Type             X           Y           Z
 ---------------------------------------------------------------------
      1          6           0        0.777347   -0.766762   -0.888410
      2          6           0        0.971748   -1.024189    0.585042
      3          1           0        1.692996   -0.984819   -1.428109
      4          1           0       -0.000770   -1.409649   -1.284131
      5          6           0        0.024986   -1.453538    1.391517
      6          1           0        1.942324   -0.780683    0.981764
      7          1           0        0.191182   -1.581574    2.444930
      8          1           0       -0.957943   -1.691235    1.033209
      9          6           0       -1.183362    1.498337    0.635850
     10          6           0       -0.977922    1.024447   -0.574261
     11          1           0       -2.172510    1.658177    1.022759
     12          1           0       -0.371051    1.742647    1.292662
     13          6           0        0.384835    0.721809   -1.145592
     14          1           0       -1.817177    0.775851   -1.200800
     15          1           0        0.388697    0.904196   -2.215125
     16          1           0        1.133089    1.365888   -0.697635
 ---------------------------------------------------------------------
                    Distance matrix (angstroms):
                    1          2          3          4          5
     1  C    0.000000
     2  C    1.508350   0.000000
     3  H    1.085006   2.138814   0.000000
     4  H    1.084143   2.142003   1.752157   0.000000
     5  C    2.497153   1.315713   3.309418   2.676132   0.000000
     6  H    2.203387   1.076430   2.431321   3.050490   2.072877
     7  H    3.481187   2.092641   4.196665   3.737954   1.074101
     8  H    2.749273   2.090338   3.685728   2.523001   1.072863
     9  C    3.361312   3.318165   4.324283   3.679841   3.277912
    10  C    2.527467   3.056486   3.449639   2.717272   3.318210
    11  H    4.270193   4.156084   5.285292   4.410187   3.827236
    12  H    3.517531   3.155823   4.370578   4.088268   3.222145
    13  C    1.560785   2.527463   2.168796   2.170483   3.361331
    14  H    3.034600   3.769281   3.933566   2.843007   3.883793
    15  H    2.168714   3.449573   2.426719   2.524344   4.324242
    16  H    2.170516   2.717307   2.524462   3.055032   3.679893
                    6          7          8          9         10
     6  H    0.000000
     7  H    2.418425   0.000000
     8  H    3.040280   1.823588   0.000000
     9  C    3.883749   3.827270   3.222124   0.000000
    10  C    3.769290   4.156160   3.155834   1.315729   0.000000
    11  H    4.783469   4.255067   3.562842   1.074086   2.092636
    12  H    3.437377   3.562903   3.493324   1.072819   2.090336
    13  C    3.034616   4.270237   3.517529   2.497153   1.508349
    14  H    4.617384   4.783546   3.437382   2.072918   1.076430
    15  H    3.933532   5.285280   4.370513   3.309446   2.138819
    16  H    2.843063   4.410265   4.088305   2.676130   2.142002
                   11         12         13         14         15
    11  H    0.000000
    12  H    1.823523   0.000000
    13  C    3.481170   2.749283   0.000000
    14  H    2.418465   3.040284   2.203367   0.000000
    15  H    4.196685   3.685754   1.084980   2.431298   0.000000
    16  H    3.737937   2.523027   1.084153   3.050474   1.752157
                   16
    16  H    0.000000
 Symmetry turned off by external request.
 Stoichiometry    C6H10
 Framework group  C1[X(C6H10)]
 Deg. of freedom    42
 Full point group                 C1      NOp   1
 Rotational constants (GHZ):      4.8154405      2.9935190      2.0919153
 Standard basis: 3-21G (6D, 7F)
 Integral buffers will be    131072 words long.
 Raffenetti 1 integral format.
 Two-electron integral symmetry is turned off.
    74 basis functions,   120 primitive gaussians,    74 cartesian basis functions
    23 alpha electrons       23 beta electrons
       nuclear repulsion energy       224.1394461667 Hartrees.
 NAtoms=   16 NActive=   16 NUniq=   16 SFac= 7.50D-01 NAtFMM=   80 NAOKFM=F Big=F
 One-electron integrals computed using PRISM.
 NBasis=    74 RedAO= T  NBF=    74
 NBsUse=    74 1.00D-06 NBFU=    74
 Initial guess read from the read-write file.
 B after Tr=     0.000000    0.000000    0.000000
         Rot=    1.000000    0.000000    0.000000    0.000000 Ang=   0.00 deg.
 Harris functional with IExCor=  205 diagonalized for initial guess.
 ExpMin= 1.83D-01 ExpMax= 1.72D+02 ExpMxC= 1.72D+02 IAcc=1 IRadAn=         1 AccDes= 0.00D+00
 HarFok:  IExCor=  205 AccDes= 0.00D+00 IRadAn=         1 IDoV= 1
 ScaDFX=  1.000000  1.000000  1.000000  1.000000
 FoFCou: FMM=F IPFlag=           0 FMFlag=      100000 FMFlg1=           0
         NFxFlg=           0 DoJE=T BraDBF=F KetDBF=T FulRan=T
         Omega=  0.000000  0.000000  1.000000  0.000000  0.000000 ICntrl=     500 IOpCl=  0
         NMat0=    1 NMatS0=    1 NMatT0=    0 NMatD0=    1 NMtDS0=    0 NMtDT0=    0
         I1Cent=           4 NGrid=           0.
 Symmetry not used in FoFCou.
 Requested convergence on RMS density matrix=1.00D-08 within 128 cycles.
 Requested convergence on MAX density matrix=1.00D-06.
 Requested convergence on             energy=1.00D-06.
 No special actions if energy rises.
 Keep R1 ints in memory in canonical form, NReq=4687208.
 SCF Done:  E(RHF) =  -231.688118239     A.U. after    9 cycles
             Convg  =    0.2795D-08             -V/T =  2.0017
 Range of M.O.s used for correlation:     1    74
 NBasis=    74 NAE=    23 NBE=    23 NFC=     0 NFV=     0
 NROrb=     74 NOA=    23 NOB=    23 NVA=    51 NVB=    51
 Symmetrizing basis deriv contribution to polar:
 IMax=3 JMax=2 DiffMx= 0.00D+00
 Calling FoFJK, ICntrl=      2147 FMM=F ISym2X=0 I1Cent= 0 IOpClX= 0 NMat=1 NMatS=1 NMatT=0.
 -------------------------------------------------------------------
 Center     Atomic                   Forces (Hartrees/Bohr)
 Number     Number              X              Y              Z
 -------------------------------------------------------------------
      1        6          -0.001026712   -0.000874269    0.000392765
      2        6           0.000640232   -0.000473951   -0.000386622
      3        1          -0.000168617   -0.000096134   -0.000062083
      4        1          -0.000156166    0.000085530    0.000094277
      5        6           0.002155780   -0.003131809    0.001310511
      6        1           0.000057828    0.000005062   -0.000070676
      7        1           0.000219724   -0.000189546   -0.000258735
      8        1          -0.000122311   -0.000312936    0.000013325
      9        6          -0.002182144    0.003118878   -0.001340025
     10        6           0.000020943    0.000448219   -0.000744909
     11        1           0.000102323    0.000178930   -0.000324145
     12        1           0.000084531    0.000319264    0.000118467
     13        6           0.000215162    0.000905239    0.001063125
     14        1           0.000027794   -0.000006233   -0.000080461
     15        1           0.000137669    0.000110005    0.000094103
     16        1          -0.000006034   -0.000086249    0.000181082
 -------------------------------------------------------------------
 Cartesian Forces:  Max     0.003131809 RMS     0.000897678
 IRC-IRC-IRC-IRC-IRC-IRC-IRC-IRC-IRC-IRC-IRC-IRC-IRC-IRC-IRC-IRC-IRC-IRC
 Error in corrector energy =          -0.0000048411
 Magnitude of corrector gradient =     0.0054108298
 Magnitude of analytic gradient =      0.0062192981
 Magnitude of difference =             0.0019347680
 Angle between gradients (degrees)=   17.4283
 Pt 24 Step number  20 out of a maximum of  20
 CORRECTOR INTEGRATION CONVERGENCE:
   Recorrection delta-x convergence threshold:    0.010000
   Delta-x Convergence NOT Met
 Maximum number of corrector steps exceded.
 Error termination via Lnk1e in /apps/gaussian/g09/g09/l123.exe at Mon Mar 15 17:04:27 2010.
 Job cpu time:  0 days  0 hours  7 minutes 12.2 seconds.
 File lengths (MBytes):  RWF=     16 Int=      0 D2E=      0 Chk=      3 Scr=      1
