 Entering Gaussian System, Link 0=g03
 Initial command:
 /apps/gaussian/g09/g09/l1.exe /home/scan-user-1/run/26215/Gau-3167.inp -scrdir=/home/scan-user-1/run/26215/
 Entering Link 1 = /apps/gaussian/g09/g09/l1.exe PID=      3169.
  
 Copyright (c) 1988,1990,1992,1993,1995,1998,2003,2009, Gaussian, Inc.
                  All Rights Reserved.
  
 This is part of the Gaussian(R) 09 program.  It is based on
 the Gaussian(R) 03 system (copyright 2003, Gaussian, Inc.),
 the Gaussian(R) 98 system (copyright 1998, Gaussian, Inc.),
 the Gaussian(R) 94 system (copyright 1995, Gaussian, Inc.),
 the Gaussian 92(TM) system (copyright 1992, Gaussian, Inc.),
 the Gaussian 90(TM) system (copyright 1990, Gaussian, Inc.),
 the Gaussian 88(TM) system (copyright 1988, Gaussian, Inc.),
 the Gaussian 86(TM) system (copyright 1986, Carnegie Mellon
 University), and the Gaussian 82(TM) system (copyright 1983,
 Carnegie Mellon University). Gaussian is a federally registered
 trademark of Gaussian, Inc.
  
 This software contains proprietary and confidential information,
 including trade secrets, belonging to Gaussian, Inc.
  
 This software is provided under written license and may be
 used, copied, transmitted, or stored only in accord with that
 written license.
  
 The following legend is applicable only to US Government
 contracts under FAR:
  
                    RESTRICTED RIGHTS LEGEND
  
 Use, reproduction and disclosure by the US Government is
 subject to restrictions as set forth in subparagraphs (a)
 and (c) of the Commercial Computer Software - Restricted
 Rights clause in FAR 52.227-19.
  
 Gaussian, Inc.
 340 Quinnipiac St., Bldg. 40, Wallingford CT 06492
  
  
 ---------------------------------------------------------------
 Warning -- This program may not be used in any manner that
 competes with the business of Gaussian, Inc. or will provide
 assistance to any competitor of Gaussian, Inc.  The licensee
 of this program is prohibited from giving any competitor of
 Gaussian, Inc. access to this program.  By using this program,
 the user acknowledges that Gaussian, Inc. is engaged in the
 business of creating and licensing software in the field of
 computational chemistry and represents and warrants to the
 licensee that it is not a competitor of Gaussian, Inc. and that
 it will not use this program in any manner prohibited above.
 ---------------------------------------------------------------
  

 Cite this work as:
 Gaussian 09, Revision A.02,
 M. J. Frisch, G. W. Trucks, H. B. Schlegel, G. E. Scuseria, 
 M. A. Robb, J. R. Cheeseman, G. Scalmani, V. Barone, B. Mennucci, 
 G. A. Petersson, H. Nakatsuji, M. Caricato, X. Li, H. P. Hratchian, 
 A. F. Izmaylov, J. Bloino, G. Zheng, J. L. Sonnenberg, M. Hada, 
 M. Ehara, K. Toyota, R. Fukuda, J. Hasegawa, M. Ishida, T. Nakajima, 
 Y. Honda, O. Kitao, H. Nakai, T. Vreven, J. A. Montgomery, Jr., 
 J. E. Peralta, F. Ogliaro, M. Bearpark, J. J. Heyd, E. Brothers, 
 K. N. Kudin, V. N. Staroverov, R. Kobayashi, J. Normand, 
 K. Raghavachari, A. Rendell, J. C. Burant, S. S. Iyengar, J. Tomasi, 
 M. Cossi, N. Rega, J. M. Millam, M. Klene, J. E. Knox, J. B. Cross, 
 V. Bakken, C. Adamo, J. Jaramillo, R. Gomperts, R. E. Stratmann, 
 O. Yazyev, A. J. Austin, R. Cammi, C. Pomelli, J. W. Ochterski, 
 R. L. Martin, K. Morokuma, V. G. Zakrzewski, G. A. Voth, 
 P. Salvador, J. J. Dannenberg, S. Dapprich, A. D. Daniels, 
 O. Farkas, J. B. Foresman, J. V. Ortiz, J. Cioslowski, 
 and D. J. Fox, Gaussian, Inc., Wallingford CT, 2009.
 
 ******************************************
 Gaussian 09:  EM64L-G09RevA.02 11-Jun-2009
                15-Mar-2010 
 ******************************************
 %nprocshared=4
 Will use up to    4 processors via shared memory.
 %mem=7000MB
 %NoSave
 %Chk=chk.chk
 %rwf=/tmp/pbs.3646623.cx1/rwf
 -------------------------------------------------
 # rb3lyp/lanl2dz pop=(nbo,full) geom=connectivity
 -------------------------------------------------
 1/38=1,57=2/1;
 2/12=2,17=6,18=5,40=1/2;
 3/5=6,6=3,11=2,16=1,25=1,30=1,74=-5,116=1/1,2,3;
 4//1;
 5/5=2,38=5/2;
 6/7=3,28=1/1,7;
 99/5=1,9=1/99;
 ----------
 [No Title]
 ----------
 Symbolic Z-matrix:
 Charge =  0 Multiplicity = 1
 Mg                    1.39332   0.0244    0.13336 
 C                     0.13675  -0.2167    1.90121 
 C                     0.23931  -0.0142   -1.72468 
 C                     4.09924   1.02989   1.94011 
 O                     2.67992  -1.54258  -0.01422 
 Mg                   -1.31326  -0.00943   0.04145 
 I                    -2.27429   2.56223   0.10735 
 I                    -2.5972   -2.39995  -0.12729 
 C                     3.40537  -1.80864  -1.28534 
 O                     2.5167    1.72111   0.1715 
 C                     4.91763  -1.92418  -1.08207 
 C                     2.55975  -2.70627   0.92281 
 C                     1.58392  -3.77168   0.42074 
 C                     3.86732   1.94734   0.74037 
 C                     1.86422   2.95461  -0.38491 
 C                     2.52015   3.41594  -1.68489 
 H                     5.09631   1.22199   2.35661 
 H                     4.05351  -0.02654   1.65444 
 H                     3.35983   1.22097   2.72578 
 H                     0.00016  -1.26589   2.21049 
 H                    -0.7314    0.33169   2.31085 
 H                     0.95928   0.18746   2.52865 
 H                    -0.68352   0.39493  -2.17379 
 H                     0.31684  -1.04326  -2.11618 
 H                     1.01752   0.58169  -2.24603 
 H                     2.98341  -2.71195  -1.73884 
 H                     3.15893  -0.96022  -1.93125 
 H                     5.40481  -2.03681  -2.05926 
 H                     5.32014  -1.02494  -0.60162 
 H                     5.19036  -2.79524  -0.47607 
 H                     2.20691  -2.2613    1.857 
 H                     3.56765  -3.10604   1.08256 
 H                     1.48805  -4.55191   1.18739 
 H                     1.93124  -4.25714  -0.49865 
 H                     0.58586  -3.35539   0.24518 
 H                     3.92189   2.99928   1.0464 
 H                     4.60515   1.77423  -0.05317 
 H                     1.91281   3.7198    0.39974 
 H                     0.81314   2.68846  -0.53188 
 H                     1.97714   4.29084  -2.06409 
 H                     2.46898   2.63329  -2.45041 
 H                     3.56825   3.70645  -1.54289 
 
                          Input orientation:                          
 ---------------------------------------------------------------------
 Center     Atomic      Atomic             Coordinates (Angstroms)
 Number     Number       Type             X           Y           Z
 ---------------------------------------------------------------------
      1         12           0        1.393315    0.024395    0.133355
      2          6           0        0.136752   -0.216701    1.901207
      3          6           0        0.239313   -0.014200   -1.724682
      4          6           0        4.099239    1.029890    1.940108
      5          8           0        2.679917   -1.542575   -0.014221
      6         12           0       -1.313256   -0.009429    0.041454
      7         53           0       -2.274289    2.562230    0.107348
      8         53           0       -2.597200   -2.399947   -0.127291
      9          6           0        3.405373   -1.808643   -1.285335
     10          8           0        2.516703    1.721112    0.171499
     11          6           0        4.917627   -1.924178   -1.082067
     12          6           0        2.559752   -2.706267    0.922809
     13          6           0        1.583923   -3.771682    0.420741
     14          6           0        3.867322    1.947336    0.740365
     15          6           0        1.864224    2.954609   -0.384907
     16          6           0        2.520150    3.415944   -1.684894
     17          1           0        5.096308    1.221994    2.356610
     18          1           0        4.053506   -0.026544    1.654442
     19          1           0        3.359828    1.220969    2.725776
     20          1           0        0.000157   -1.265892    2.210485
     21          1           0       -0.731399    0.331690    2.310854
     22          1           0        0.959284    0.187456    2.528645
     23          1           0       -0.683524    0.394928   -2.173794
     24          1           0        0.316841   -1.043257   -2.116180
     25          1           0        1.017516    0.581689   -2.246026
     26          1           0        2.983410   -2.711953   -1.738840
     27          1           0        3.158927   -0.960221   -1.931250
     28          1           0        5.404814   -2.036812   -2.059262
     29          1           0        5.320135   -1.024943   -0.601618
     30          1           0        5.190355   -2.795244   -0.476067
     31          1           0        2.206910   -2.261298    1.857000
     32          1           0        3.567651   -3.106036    1.082564
     33          1           0        1.488046   -4.551911    1.187389
     34          1           0        1.931241   -4.257139   -0.498654
     35          1           0        0.585857   -3.355394    0.245183
     36          1           0        3.921890    2.999284    1.046399
     37          1           0        4.605152    1.774229   -0.053169
     38          1           0        1.912812    3.719802    0.399739
     39          1           0        0.813135    2.688463   -0.531876
     40          1           0        1.977136    4.290835   -2.064090
     41          1           0        2.468983    2.633293   -2.450414
     42          1           0        3.568247    3.706447   -1.542885
 ---------------------------------------------------------------------
                    Distance matrix (angstroms):
                    1          2          3          4          5
     1  Mg   0.000000
     2  C    2.182287   0.000000
     3  C    2.187581   3.632987   0.000000
     4  C    3.405496   4.154131   5.424006   0.000000
     5  O    2.032860   3.448840   3.349351   3.528662   0.000000
     6  Mg   2.708342   2.367312   2.351538   5.829252   4.277741
     7  I    4.460112   4.093105   4.038876   6.806536   6.434933
     8  I    4.676492   4.044238   4.035995   7.802578   5.347507
     9  C    3.069379   4.834482   3.665650   4.352264   1.487551
    10  O    2.035265   3.522950   3.434140   2.471879   3.273039
    11  C    4.206538   5.888308   5.093878   4.304628   2.508637
    12  C    3.072512   3.609173   4.431802   4.166988   1.498881
    13  C    3.811709   4.113876   4.530948   5.629421   2.521768
    14  C    3.191688   4.466292   4.804844   1.528030   3.762819
    15  C    3.012724   4.274071   3.639940   3.755733   4.585567
    16  C    4.009787   5.633544   4.119428   4.618161   5.234843
    17  H    4.482105   5.184055   6.463399   1.097508   4.370655
    18  H    3.064787   3.929124   5.095753   1.095331   2.639987
    19  H    3.466931   3.624228   5.574032   1.095680   3.950574
    20  H    2.814285   1.102322   4.136359   4.705974   3.493849
    21  H    3.057833   1.105545   4.165030   4.894895   4.533864
    22  H    2.439751   1.110667   4.318543   3.303844   3.524167
    23  H    3.126258   4.201497   1.104860   6.340520   4.441892
    24  H    2.712763   4.105487   1.103739   5.920975   3.201824
    25  H    2.472500   4.314245   1.110173   5.217434   3.501004
    26  H    3.677107   5.251637   3.848135   5.364804   2.105674
    27  H    2.889541   4.937012   3.075999   4.453329   2.059997
    28  H    5.014805   6.837441   5.557455   5.206164   3.442605
    29  H    4.130522   5.812473   5.300719   3.489025   2.753857
    30  H    4.768571   6.151359   5.814298   4.654040   2.843375
    31  H    2.976119   2.909963   4.663618   3.797333   2.059555
    32  H    3.927892   4.559551   5.340217   4.257212   2.106044
    33  H    4.697078   4.596692   5.534466   6.208173   3.452612
    34  H    4.361231   5.030374   4.729513   6.212926   2.857280
    35  H    3.476704   3.577080   3.894103   5.869186   2.781850
    36  H    4.009652   5.039893   5.506482   2.169950   4.826582
    37  H    3.662323   5.267826   5.005296   2.187039   3.835262
    38  H    3.741239   4.572182   4.610481   3.793261   5.334081
    39  H    2.806492   3.849333   3.009393   4.433965   4.653442
    40  H    4.834472   6.279210   4.654949   5.583071   6.222904
    41  H    3.826130   5.700734   3.536571   4.950285   4.839153
    42  H    4.593214   6.247241   4.995805   4.424607   5.538788
                    6          7          8          9         10
     6  Mg   0.000000
     7  I    2.746153   0.000000
     8  I    2.718743   4.978205   0.000000
     9  C    5.221398   7.300867   6.141790   0.000000
    10  O    4.204791   4.864689   6.574527   3.920621   0.000000
    11  C    6.614565   8.559569   7.590163   1.530222   4.541366
    12  C    4.801032   7.196526   5.271688   2.529171   4.490880
    13  C    4.763618   7.423103   4.434387   3.175200   5.577005
    14  C    5.581738   6.204691   7.838478   4.292346   1.482888
    15  C    4.366198   4.186116   6.974377   5.086696   1.502275
    16  C    5.422957   5.189181   7.901771   5.314092   2.513695
    17  H    6.925234   7.821836   8.858797   5.030684   3.417337
    18  H    5.603941   7.009725   7.282823   3.498320   2.759562
    19  H    5.527855   6.355975   7.532410   5.026891   2.735934
    20  H    2.829920   4.924511   3.673900   4.910278   4.405980
    21  H    2.367508   3.494461   4.109453   5.884427   4.130073
    22  H    3.374807   4.685960   5.137823   4.951182   3.214622
    23  H    2.338245   3.525811   3.957481   4.729076   4.183374
    24  H    2.895065   4.965639   3.779937   3.288639   4.208872
    25  H    3.318808   4.505207   5.142506   3.512617   3.064355
    26  H    5.379073   7.672602   5.817013   1.095303   4.849668
    27  H    4.979557   6.788474   6.201619   1.094423   3.467499
    28  H    7.325009   9.209452   8.239940   2.156105   5.238270
    29  H    6.741416   8.428862   8.049833   2.178983   3.999720
    30  H    7.094050   9.206726   7.805377   2.194187   5.288216
    31  H    4.556171   6.812404   5.199626   3.393447   4.335490
    32  H    5.873341   8.198082   6.322001   2.704905   5.023534
    33  H    5.458443   8.119893   4.800892   4.161253   6.437467
    34  H    5.372292   8.034769   4.908549   2.964298   6.044117
    35  H    3.852742   6.574018   3.344169   3.561544   5.431805
    36  H    6.121194   6.282155   8.545629   5.368420   2.091345
    37  H    6.182066   6.926285   8.324849   3.974251   2.101170
    38  H    4.943991   4.353996   7.620321   5.969164   2.100367
    39  H    3.482652   3.155429   6.138892   5.245127   2.081501
    40  H    5.809670   5.077187   8.333205   6.312682   3.448546
    41  H    5.243922   5.389418   7.509768   4.686687   2.776469
    42  H    6.336161   6.178004   8.792309   5.523502   2.826024
                   11         12         13         14         15
    11  C    0.000000
    12  C    3.192298   0.000000
    13  C    4.096985   1.529517   0.000000
    14  C    4.406021   4.837256   6.166299   0.000000
    15  C    5.797574   5.851444   6.780164   2.508633   0.000000
    16  C    5.884573   6.654559   7.547992   3.139039   1.527428
    17  H    4.664207   4.890924   6.404782   2.156102   4.578672
    18  H    3.440378   3.153966   4.652625   2.183209   4.223645
    19  H    5.178644   4.394769   5.778719   2.174170   3.862472
    20  H    5.954473   3.206917   3.462728   5.238421   5.293716
    21  H    6.965081   4.689086   5.076505   5.121033   4.569911
    22  H    5.758882   3.676118   4.528599   3.840808   4.118839
    23  H    6.159790   5.452082   5.406807   5.622499   4.030273
    24  H    4.797149   4.126949   3.935196   5.450634   4.623271
    25  H    4.779648   4.819820   5.136565   4.347979   3.132320
    26  H    2.189323   2.695161   2.783052   5.351330   5.932591
    27  H    2.177923   3.399020   3.989588   4.011638   4.403785
    28  H    1.097701   4.175559   4.874361   5.106391   6.344567
    29  H    1.096115   3.573576   4.748586   3.570158   5.275142
    30  H    1.095615   2.980745   3.842401   5.071705   6.643212
    31  H    4.012450   1.093256   2.175365   4.660090   5.687642
    32  H    2.811557   1.095991   2.194600   5.073802   6.464252
    33  H    4.880311   2.150572   1.098043   6.935488   7.678637
    34  H    3.834264   2.195629   1.096169   6.616577   7.212956
    35  H    4.751232   2.185590   1.095560   6.255571   6.468955
    36  H    5.455487   5.867198   7.190516   1.096918   2.506915
    37  H    3.851556   5.021060   6.333210   1.097295   3.002671
    38  H    6.563473   6.479699   7.498729   2.660408   1.097064
    39  H    6.198873   5.854049   6.575338   3.390564   1.094176
    40  H    6.945304   7.630232   8.445897   4.114579   2.148931
    41  H    5.351521   6.316468   7.074643   3.550628   2.176074
    42  H    5.808366   6.944034   7.982217   2.897783   2.193141
                   16         17         18         19         20
    16  C    0.000000
    17  H    5.271030   0.000000
    18  H    5.035183   1.771813   0.000000
    19  H    4.997698   1.775288   1.784722   0.000000
    20  H    6.591201   5.672890   4.274904   4.211578   0.000000
    21  H    6.004265   5.895499   4.842987   4.207269   1.759976
    22  H    5.532933   4.267884   3.222458   2.620996   1.770133
    23  H    4.430473   7.390200   6.105119   6.405999   4.737895
    24  H    4.992500   6.926797   5.404994   6.150693   4.343948
    25  H    3.256652   6.183105   4.980044   5.532985   4.930422
    26  H    6.145620   6.059124   4.457678   5.961742   5.156361
    27  H    4.429396   5.186642   3.811720   5.146440   5.217780
    28  H    6.180128   5.496810   4.433825   6.139356   6.930756
    29  H    5.360493   3.721550   2.773257   4.467491   6.022304
    30  H    6.868050   4.916412   3.673853   5.452760   6.041079
    31  H    6.698821   4.553192   2.906041   3.769639   2.446537
    32  H    7.161865   4.763594   3.169601   4.633175   4.169574
    33  H    8.532407   6.908300   5.222899   6.260699   3.749461
    34  H    7.786539   6.941980   5.199785   6.515173   4.473933
    35  H    7.301897   6.764227   5.009176   5.898420   2.927708
    36  H    3.098135   2.500934   3.089122   2.509706   5.909891
    37  H    3.115283   2.520562   2.542249   3.095071   5.964264
    38  H    2.192461   4.494779   4.493546   3.707893   5.638634
    39  H    2.184623   5.370238   4.759333   4.387651   4.880410
    40  H    1.097309   6.220097   6.064532   5.854804   7.284068
    41  H    1.095984   5.657038   5.141526   5.438861   6.559171
    42  H    1.096844   4.869655   4.938988   4.943936   7.179360
                   21         22         23         24         25
    21  H    0.000000
    22  H    1.710744   0.000000
    23  H    4.485349   4.985458   0.000000
    24  H    4.752675   4.847864   1.752834   0.000000
    25  H    4.887367   4.791273   1.712786   1.774332   0.000000
    26  H    6.282005   5.542119   4.825795   3.168205   3.869115
    27  H    5.899078   5.103553   4.081628   2.849306   2.657482
    28  H    7.896887   6.764540   6.557007   5.184386   5.112711
    29  H    6.851570   5.503224   6.366451   5.227541   4.878307
    30  H    7.253400   5.985546   6.896516   5.432363   5.652346
    31  H    3.945026   2.829147   5.626495   4.565320   5.131477
    32  H    5.639901   4.443177   6.397899   5.005476   5.584086
    33  H    5.480663   4.953802   6.362742   4.959430   6.193835
    34  H    6.003361   5.464766   5.593283   3.943566   5.225175
    35  H    4.426821   4.231481   4.639794   3.315778   4.679004
    36  H    5.510717   4.345166   6.193719   6.272194   5.012007
    37  H    6.012346   4.740882   5.862560   5.530267   4.370573
    38  H    4.703564   4.233075   4.941540   5.618158   4.201117
    39  H    4.002634   3.955147   3.193147   4.084368   2.723707
    40  H    6.492390   6.242352   4.719029   5.586755   3.835588
    41  H    6.181383   5.749116   3.876222   4.273224   2.521430
    42  H    6.687843   5.980580   5.426026   5.784462   4.094478
                   26         27         28         29         30
    26  H    0.000000
    27  H    1.770986   0.000000
    28  H    2.534104   2.493881   0.000000
    29  H    3.098316   2.538293   1.776450   0.000000
    30  H    2.544040   3.100253   1.768536   1.779486   0.000000
    31  H    3.706226   4.117035   5.061037   4.155183   3.824819
    32  H    2.908085   3.722184   3.793347   3.199784   2.271363
    33  H    3.766215   5.041626   5.675168   5.506810   4.422675
    34  H    2.243373   3.798580   4.408067   4.684260   3.572040
    35  H    3.177833   4.134538   5.501952   5.344292   4.694185
    36  H    6.423125   5.012603   6.099710   4.567872   6.124007
    37  H    5.059384   3.618836   4.380400   2.940640   4.626164
    38  H    6.862009   5.374842   7.167940   5.926649   7.345417
    39  H    5.944018   4.557837   6.763479   5.840145   7.016709
    40  H    7.082190   5.384038   7.196396   6.447632   7.940977
    41  H    5.416884   3.695794   5.530098   4.992976   6.385368
    42  H    6.447968   4.700655   6.051830   5.132363   6.785376
                   31         32         33         34         35
    31  H    0.000000
    32  H    1.779030   0.000000
    33  H    2.492399   2.535015   0.000000
    34  H    3.099755   2.550123   1.768065   0.000000
    35  H    2.534327   3.107166   1.770127   1.782273   0.000000
    36  H    5.592133   6.115695   7.934987   7.681507   7.221703
    37  H    5.068115   5.116960   7.160683   6.612538   6.523556
    38  H    6.163089   7.056685   8.319979   8.027393   7.200215
    39  H    5.670050   6.615889   7.472241   7.035101   6.097843
    40  H    7.639253   8.194197   9.434272   8.690256   8.107602
    41  H    6.525298   6.828536   8.113138   7.181684   6.832041
    42  H    7.001888   7.300884   8.943272   8.196884   7.871559
                   36         37         38         39         40
    36  H    0.000000
    37  H    1.782318   0.000000
    38  H    2.230182   3.352473   0.000000
    39  H    3.500274   3.929933   1.772246   0.000000
    40  H    3.889128   4.157352   2.529954   2.504032   0.000000
    41  H    3.804286   3.323852   3.100516   2.534889   1.771611
    42  H    2.707311   2.651017   2.552338   3.106296   1.773358
                   41         42
    41  H    0.000000
    42  H    1.784278   0.000000
 Stoichiometry    C10H26I2Mg2O2
 Framework group  C1[X(C10H26I2Mg2O2)]
 Deg. of freedom   120
 Full point group                 C1      NOp   1
 Largest Abelian subgroup         C1      NOp   1
 Largest concise Abelian subgroup C1      NOp   1
                         Standard orientation:                         
 ---------------------------------------------------------------------
 Center     Atomic      Atomic             Coordinates (Angstroms)
 Number     Number       Type             X           Y           Z
 ---------------------------------------------------------------------
      1         12           0        1.393315    0.024395    0.133355
      2          6           0        0.136752   -0.216701    1.901207
      3          6           0        0.239313   -0.014200   -1.724682
      4          6           0        4.099239    1.029889    1.940108
      5          8           0        2.679916   -1.542576   -0.014221
      6         12           0       -1.313256   -0.009429    0.041454
      7         53           0       -2.274288    2.562231    0.107348
      8         53           0       -2.597201   -2.399946   -0.127291
      9          6           0        3.405372   -1.808644   -1.285335
     10          8           0        2.516703    1.721111    0.171499
     11          6           0        4.917626   -1.924179   -1.082067
     12          6           0        2.559751   -2.706268    0.922809
     13          6           0        1.583922   -3.771682    0.420741
     14          6           0        3.867322    1.947335    0.740365
     15          6           0        1.864225    2.954609   -0.384907
     16          6           0        2.520151    3.415943   -1.684894
     17          1           0        5.096308    1.221993    2.356610
     18          1           0        4.053506   -0.026545    1.654442
     19          1           0        3.359828    1.220968    2.725776
     20          1           0        0.000157   -1.265892    2.210485
     21          1           0       -0.731399    0.331690    2.310854
     22          1           0        0.959284    0.187456    2.528645
     23          1           0       -0.683524    0.394928   -2.173794
     24          1           0        0.316841   -1.043257   -2.116180
     25          1           0        1.017516    0.581689   -2.246026
     26          1           0        2.983409   -2.711954   -1.738840
     27          1           0        3.158927   -0.960222   -1.931250
     28          1           0        5.404813   -2.036813   -2.059262
     29          1           0        5.320135   -1.024944   -0.601618
     30          1           0        5.190354   -2.795245   -0.476067
     31          1           0        2.206909   -2.261298    1.857000
     32          1           0        3.567650   -3.106037    1.082564
     33          1           0        1.488045   -4.551911    1.187389
     34          1           0        1.931240   -4.257139   -0.498654
     35          1           0        0.585856   -3.355394    0.245183
     36          1           0        3.921891    2.999283    1.046399
     37          1           0        4.605152    1.774228   -0.053169
     38          1           0        1.912813    3.719802    0.399739
     39          1           0        0.813136    2.688463   -0.531876
     40          1           0        1.977137    4.290835   -2.064090
     41          1           0        2.468984    2.633292   -2.450414
     42          1           0        3.568248    3.706446   -1.542885
 ---------------------------------------------------------------------
 Rotational constants (GHZ):      0.1832851      0.1511416      0.0917479
 Standard basis: LANL2DZ (5D, 7F)
 There are   192 symmetry adapted basis functions of A   symmetry.
 Integral buffers will be    131072 words long.
 Raffenetti 2 integral format.
 Two-electron integral symmetry is turned on.
   192 basis functions,   452 primitive gaussians,   192 cartesian basis functions
    60 alpha electrons       60 beta electrons
       nuclear repulsion energy       988.7233162632 Hartrees.
 NAtoms=   42 NActive=   42 NUniq=   42 SFac= 7.50D-01 NAtFMM=   80 NAOKFM=F Big=F
 One-electron integrals computed using PRISM.
   1 Symmetry operations used in ECPInt.
 ECPInt:  NShTT=    8256 NPrTT=   48008 LenC2=    8059 LenP2D=   30524.
 LDataN:  DoStor=T MaxTD1= 4 Len=   56
 NBasis=   192 RedAO= T  NBF=   192
 NBsUse=   192 1.00D-06 NBFU=   192
 Defaulting to unpruned grid for atomic number  53.
 Harris functional with IExCor=  402 diagonalized for initial guess.
 ExpMin= 4.04D-02 ExpMax= 7.82D+03 ExpMxC= 2.73D+02 IAcc=2 IRadAn=         0 AccDes= 0.00D+00
 HarFok:  IExCor=  402 AccDes= 0.00D+00 IRadAn=         0 IDoV= 1
 ScaDFX=  1.000000  1.000000  1.000000  1.000000
 Defaulting to unpruned grid for atomic number  53.
 Defaulting to unpruned grid for atomic number  53.
 Defaulting to unpruned grid for atomic number  53.
 Defaulting to unpruned grid for atomic number  53.
 FoFCou: FMM=F IPFlag=           0 FMFlag=      100000 FMFlg1=           0
         NFxFlg=           0 DoJE=T BraDBF=F KetDBF=T FulRan=T
         Omega=  0.000000  0.000000  1.000000  0.000000  0.000000 ICntrl=     500 IOpCl=  0
         NMat0=    1 NMatS0=    1 NMatT0=    0 NMatD0=    1 NMtDS0=    0 NMtDT0=    0
         I1Cent=           4 NGrid=           0.
 Petite list used in FoFCou.
 Initial guess orbital symmetries:
       Occupied  (A) (A) (A) (A) (A) (A) (A) (A) (A) (A) (A) (A)
                 (A) (A) (A) (A) (A) (A) (A) (A) (A) (A) (A) (A)
                 (A) (A) (A) (A) (A) (A) (A) (A) (A) (A) (A) (A)
                 (A) (A) (A) (A) (A) (A) (A) (A) (A) (A) (A) (A)
                 (A) (A) (A) (A) (A) (A) (A) (A) (A) (A) (A) (A)
       Virtual   (A) (A) (A) (A) (A) (A) (A) (A) (A) (A) (A) (A)
                 (A) (A) (A) (A) (A) (A) (A) (A) (A) (A) (A) (A)
                 (A) (A) (A) (A) (A) (A) (A) (A) (A) (A) (A) (A)
                 (A) (A) (A) (A) (A) (A) (A) (A) (A) (A) (A) (A)
                 (A) (A) (A) (A) (A) (A) (A) (A) (A) (A) (A) (A)
                 (A) (A) (A) (A) (A) (A) (A) (A) (A) (A) (A) (A)
                 (A) (A) (A) (A) (A) (A) (A) (A) (A) (A) (A) (A)
                 (A) (A) (A) (A) (A) (A) (A) (A) (A) (A) (A) (A)
                 (A) (A) (A) (A) (A) (A) (A) (A) (A) (A) (A) (A)
                 (A) (A) (A) (A) (A) (A) (A) (A) (A) (A) (A) (A)
                 (A) (A) (A) (A) (A) (A) (A) (A) (A) (A) (A) (A)
 The electronic state of the initial guess is 1-A.
 Requested convergence on RMS density matrix=1.00D-08 within 128 cycles.
 Requested convergence on MAX density matrix=1.00D-06.
 Requested convergence on             energy=1.00D-06.
 No special actions if energy rises.
 Keep R1 ints in memory in canonical form, NReq=175761550.
 Defaulting to unpruned grid for atomic number  53.
 Defaulting to unpruned grid for atomic number  53.
 Defaulting to unpruned grid for atomic number  53.
 Defaulting to unpruned grid for atomic number  53.
 SCF Done:  E(RB3LYP) =  -571.749072288     A.U. after   12 cycles
             Convg  =    0.7289D-08             -V/T =  2.0378

 **********************************************************************

            Population analysis using the SCF density.

 **********************************************************************

 Orbital symmetries:
       Occupied  (A) (A) (A) (A) (A) (A) (A) (A) (A) (A) (A) (A)
                 (A) (A) (A) (A) (A) (A) (A) (A) (A) (A) (A) (A)
                 (A) (A) (A) (A) (A) (A) (A) (A) (A) (A) (A) (A)
                 (A) (A) (A) (A) (A) (A) (A) (A) (A) (A) (A) (A)
                 (A) (A) (A) (A) (A) (A) (A) (A) (A) (A) (A) (A)
       Virtual   (A) (A) (A) (A) (A) (A) (A) (A) (A) (A) (A) (A)
                 (A) (A) (A) (A) (A) (A) (A) (A) (A) (A) (A) (A)
                 (A) (A) (A) (A) (A) (A) (A) (A) (A) (A) (A) (A)
                 (A) (A) (A) (A) (A) (A) (A) (A) (A) (A) (A) (A)
                 (A) (A) (A) (A) (A) (A) (A) (A) (A) (A) (A) (A)
                 (A) (A) (A) (A) (A) (A) (A) (A) (A) (A) (A) (A)
                 (A) (A) (A) (A) (A) (A) (A) (A) (A) (A) (A) (A)
                 (A) (A) (A) (A) (A) (A) (A) (A) (A) (A) (A) (A)
                 (A) (A) (A) (A) (A) (A) (A) (A) (A) (A) (A) (A)
                 (A) (A) (A) (A) (A) (A) (A) (A) (A) (A) (A) (A)
                 (A) (A) (A) (A) (A) (A) (A) (A) (A) (A) (A) (A)
 The electronic state is 1-A.
 Alpha  occ. eigenvalues --  -19.22024 -19.21618 -10.29861 -10.29851 -10.29110
 Alpha  occ. eigenvalues --  -10.28068 -10.23112 -10.22865 -10.21474 -10.20696
 Alpha  occ. eigenvalues --  -10.13994 -10.13922  -1.08592  -1.08169  -0.82448
 Alpha  occ. eigenvalues --   -0.82395  -0.78522  -0.78178  -0.69797  -0.68905
 Alpha  occ. eigenvalues --   -0.67297  -0.66851  -0.65003  -0.63966  -0.59392
 Alpha  occ. eigenvalues --   -0.59160  -0.55529  -0.54777  -0.54305  -0.53468
 Alpha  occ. eigenvalues --   -0.51123  -0.48645  -0.47798  -0.47217  -0.46936
 Alpha  occ. eigenvalues --   -0.44734  -0.43951  -0.43712  -0.42971  -0.42290
 Alpha  occ. eigenvalues --   -0.41567  -0.41472  -0.40616  -0.40155  -0.39373
 Alpha  occ. eigenvalues --   -0.38913  -0.38632  -0.38353  -0.38107  -0.37791
 Alpha  occ. eigenvalues --   -0.33898  -0.33303  -0.30777  -0.24644  -0.24003
 Alpha  occ. eigenvalues --   -0.23392  -0.20888  -0.20747  -0.20377  -0.20346
 Alpha virt. eigenvalues --   -0.00137   0.01521   0.01968   0.02953   0.03334
 Alpha virt. eigenvalues --    0.04904   0.06124   0.06489   0.07552   0.07908
 Alpha virt. eigenvalues --    0.08203   0.08926   0.09354   0.10104   0.10373
 Alpha virt. eigenvalues --    0.11590   0.12092   0.12292   0.12868   0.13050
 Alpha virt. eigenvalues --    0.13695   0.14613   0.14820   0.14999   0.15184
 Alpha virt. eigenvalues --    0.16106   0.16545   0.16922   0.17452   0.17887
 Alpha virt. eigenvalues --    0.18173   0.18224   0.18712   0.19394   0.20291
 Alpha virt. eigenvalues --    0.20475   0.20881   0.21078   0.22443   0.22693
 Alpha virt. eigenvalues --    0.23556   0.24583   0.25548   0.25892   0.26332
 Alpha virt. eigenvalues --    0.27431   0.27681   0.28325   0.29527   0.29932
 Alpha virt. eigenvalues --    0.30330   0.31163   0.32138   0.32847   0.33194
 Alpha virt. eigenvalues --    0.33349   0.34370   0.34745   0.35738   0.36583
 Alpha virt. eigenvalues --    0.37102   0.38316   0.38794   0.39858   0.40139
 Alpha virt. eigenvalues --    0.40428   0.42356   0.43459   0.44040   0.44564
 Alpha virt. eigenvalues --    0.46616   0.46788   0.48102   0.49212   0.50642
 Alpha virt. eigenvalues --    0.51252   0.52571   0.53516   0.54101   0.55666
 Alpha virt. eigenvalues --    0.57554   0.58205   0.59292   0.61197   0.80432
 Alpha virt. eigenvalues --    0.84450   0.86118   0.87212   0.89710   0.94700
 Alpha virt. eigenvalues --    0.95439   0.96844   0.98499   1.00575   1.02200
 Alpha virt. eigenvalues --    1.02740   1.03973   1.06395   1.07300   1.07797
 Alpha virt. eigenvalues --    1.08973   1.09551   1.10284   1.10662   1.11706
 Alpha virt. eigenvalues --    1.12598   1.13906   1.15419   1.15674   1.17390
 Alpha virt. eigenvalues --    1.17924   1.18238   1.19291   1.20556   1.22047
 Alpha virt. eigenvalues --    1.22828   1.24366   1.26156   1.28131   1.30122
 Alpha virt. eigenvalues --    1.31663   1.33925   1.35679   1.39103   1.44364
 Alpha virt. eigenvalues --    1.52827   1.82788   1.84293   5.65893   8.23626
 Alpha virt. eigenvalues --   11.19346  11.94808
     Molecular Orbital Coefficients:
                           1         2         3         4         5
                           O         O         O         O         O
     Eigenvalues --   -19.22024 -19.21618 -10.29861 -10.29851 -10.29110
   1 1   Mg 1S          0.00016   0.00011  -0.00004   0.00014   0.00017
   2        2S          0.00002  -0.00064  -0.00073  -0.00015   0.00119
   3        3PX        -0.00021  -0.00005  -0.00027  -0.00001  -0.00023
   4        3PY        -0.00005  -0.00017  -0.00025   0.00002  -0.00038
   5        3PZ        -0.00010   0.00004  -0.00017  -0.00047   0.00022
   6        4PX         0.00070   0.00054   0.00261   0.00124   0.00075
   7        4PY        -0.00066   0.00016   0.00016  -0.00169  -0.00094
   8        4PZ         0.00002  -0.00001   0.00070   0.00106  -0.00056
   9 2   C  1S          0.00000   0.00000   0.00000  -0.00001   0.00001
  10        2S          0.00007   0.00005  -0.00002  -0.00006   0.00004
  11        3S         -0.00011  -0.00010   0.00036   0.00031   0.00002
  12        4PX         0.00003   0.00000   0.00005   0.00004   0.00004
  13        4PY        -0.00004   0.00002   0.00002  -0.00003  -0.00006
  14        4PZ        -0.00002  -0.00002   0.00001   0.00003   0.00003
  15        5PX        -0.00032  -0.00006  -0.00017  -0.00010  -0.00091
  16        5PY         0.00045  -0.00009   0.00009   0.00044   0.00061
  17        5PZ         0.00011   0.00004   0.00013  -0.00006   0.00005
  18 3   C  1S          0.00000   0.00000  -0.00001   0.00000   0.00000
  19        2S          0.00006   0.00001  -0.00006  -0.00001   0.00002
  20        3S         -0.00002   0.00012   0.00020   0.00020   0.00024
  21        4PX         0.00003   0.00002   0.00002   0.00000   0.00005
  22        4PY        -0.00002   0.00002  -0.00001  -0.00001  -0.00004
  23        4PZ         0.00001   0.00002   0.00001   0.00000   0.00001
  24        5PX        -0.00052  -0.00007  -0.00029  -0.00039  -0.00041
  25        5PY         0.00020  -0.00004   0.00035   0.00047   0.00041
  26        5PZ        -0.00016  -0.00010  -0.00003  -0.00021  -0.00022
  27 4   C  1S          0.00000   0.00001   0.00145  -0.00001   0.00002
  28        2S         -0.00005   0.00002  -0.00038  -0.00006   0.00010
  29        3S          0.00049  -0.00051   0.00412   0.00064  -0.00027
  30        4PX        -0.00001   0.00004  -0.00002  -0.00001   0.00000
  31        4PY        -0.00004  -0.00008   0.00004  -0.00004  -0.00003
  32        4PZ        -0.00002   0.00009  -0.00009   0.00001   0.00000
  33        5PX         0.00015   0.00033  -0.00028   0.00018   0.00016
  34        5PY        -0.00006   0.00000   0.00151   0.00021   0.00023
  35        5PZ        -0.00014   0.00005  -0.00178  -0.00017  -0.00013
  36 5   O  1S          0.99883   0.00010   0.00000  -0.00001  -0.00001
  37        2S          0.00683   0.00000   0.00008   0.00021   0.00023
  38        3S         -0.00523   0.00004  -0.00017   0.00064   0.00060
  39        4PX         0.00030  -0.00001  -0.00001  -0.00001  -0.00002
  40        4PY        -0.00089   0.00004   0.00003  -0.00003   0.00000
  41        4PZ        -0.00029   0.00001   0.00002   0.00005  -0.00005
  42        5PX        -0.00044   0.00007   0.00008   0.00029  -0.00012
  43        5PY         0.00130  -0.00014  -0.00018   0.00037  -0.00022
  44        5PZ         0.00039  -0.00001  -0.00008  -0.00063   0.00064
  45 6   Mg 1S          0.00003   0.00004   0.00002  -0.00003  -0.00009
  46        2S          0.00018   0.00056   0.00193   0.00078  -0.00028
  47        3PX         0.00002   0.00009   0.00012  -0.00001  -0.00013
  48        3PY        -0.00004  -0.00001  -0.00004  -0.00003   0.00002
  49        3PZ         0.00003   0.00002   0.00003  -0.00005  -0.00013
  50        4PX         0.00001   0.00019   0.00072   0.00032  -0.00024
  51        4PY         0.00020   0.00006   0.00004   0.00046   0.00014
  52        4PZ         0.00002  -0.00002  -0.00014  -0.00006   0.00008
  53 7   I  1S          0.00000  -0.00001  -0.00001   0.00000   0.00000
  54        2S         -0.00001  -0.00002  -0.00001  -0.00007   0.00004
  55        3PX        -0.00002  -0.00004  -0.00003  -0.00003  -0.00003
  56        3PY        -0.00001   0.00000  -0.00001  -0.00001  -0.00002
  57        3PZ         0.00000   0.00001   0.00000   0.00000  -0.00001
  58        4PX         0.00007   0.00008   0.00008   0.00010   0.00011
  59        4PY         0.00001   0.00002   0.00002   0.00003   0.00003
  60        4PZ         0.00000  -0.00002   0.00001   0.00000   0.00002
  61 8   I  1S         -0.00001   0.00000   0.00000  -0.00001  -0.00001
  62        2S          0.00007   0.00002  -0.00001   0.00010   0.00006
  63        3PX        -0.00001   0.00000  -0.00001   0.00003  -0.00003
  64        3PY         0.00001   0.00000  -0.00001  -0.00001   0.00006
  65        3PZ         0.00000   0.00000  -0.00001   0.00001   0.00001
  66        4PX         0.00002   0.00002   0.00003  -0.00006   0.00009
  67        4PY         0.00000   0.00000   0.00001   0.00004  -0.00009
  68        4PZ         0.00000   0.00001   0.00002  -0.00001  -0.00001
  69 9   C  1S         -0.00002   0.00000   0.00298   0.99775   0.00084
  70        2S         -0.00012   0.00000   0.00009   0.01597  -0.00066
  71        3S          0.00198  -0.00001  -0.00017  -0.01746   0.00225
  72        4PX        -0.00014   0.00002   0.00001  -0.00037  -0.00005
  73        4PY         0.00000   0.00004   0.00003   0.00004   0.00004
  74        4PZ         0.00030  -0.00001  -0.00001   0.00059   0.00003
  75        5PX        -0.00059  -0.00018  -0.00030  -0.00103   0.00001
  76        5PY        -0.00026  -0.00022  -0.00009   0.00122  -0.00262
  77        5PZ         0.00043  -0.00007  -0.00034  -0.00087   0.00146
  78 10  O  1S         -0.00011   0.99883  -0.00001   0.00000   0.00000
  79        2S         -0.00002   0.00681   0.00014   0.00001   0.00000
  80        3S          0.00009  -0.00521   0.00082   0.00000  -0.00005
  81        4PX         0.00001   0.00047  -0.00005   0.00002   0.00002
  82        4PY        -0.00003   0.00088   0.00005  -0.00004   0.00000
  83        4PZ        -0.00001   0.00001  -0.00003  -0.00002   0.00001
  84        5PX        -0.00006  -0.00076   0.00051  -0.00007  -0.00016
  85        5PY         0.00008  -0.00147  -0.00063   0.00021  -0.00005
  86        5PZ         0.00000  -0.00003   0.00033   0.00005  -0.00006
  87 11  C  1S          0.00000   0.00000  -0.00001   0.00144  -0.00003
  88        2S         -0.00010  -0.00002  -0.00009  -0.00059  -0.00006
  89        3S         -0.00010   0.00013   0.00081   0.00530  -0.00060
  90        4PX         0.00012  -0.00001  -0.00001  -0.00023   0.00021
  91        4PY         0.00000   0.00001   0.00005  -0.00001   0.00004
  92        4PZ        -0.00001   0.00000   0.00001   0.00000  -0.00002
  93        5PX         0.00004  -0.00005   0.00007  -0.00249   0.00035
  94        5PY         0.00015   0.00004  -0.00007  -0.00030   0.00092
  95        5PZ        -0.00002  -0.00003   0.00014  -0.00028  -0.00003
  96 12  C  1S         -0.00002   0.00000   0.00006  -0.00094   0.99776
  97        2S         -0.00013   0.00002   0.00002  -0.00070   0.01596
  98        3S          0.00193  -0.00017   0.00005   0.00251  -0.01752
  99        4PX         0.00006   0.00000   0.00001  -0.00001   0.00025
 100        4PY         0.00021  -0.00002   0.00003   0.00009   0.00056
 101        4PZ        -0.00026   0.00001   0.00002  -0.00001  -0.00046
 102        5PX         0.00006  -0.00016  -0.00031   0.00151  -0.00068
 103        5PY         0.00040   0.00007  -0.00032  -0.00106   0.00108
 104        5PZ        -0.00039   0.00010  -0.00006  -0.00220   0.00133
 105 13  C  1S          0.00001   0.00000   0.00002  -0.00002   0.00117
 106        2S         -0.00004   0.00001   0.00009  -0.00003  -0.00054
 107        3S         -0.00038  -0.00007  -0.00059  -0.00076   0.00506
 108        4PX        -0.00007   0.00002   0.00001  -0.00018   0.00017
 109        4PY        -0.00010   0.00000  -0.00003  -0.00015   0.00015
 110        4PZ        -0.00002   0.00000   0.00001  -0.00001   0.00002
 111        5PX        -0.00013   0.00007  -0.00009  -0.00094   0.00196
 112        5PY        -0.00008   0.00000  -0.00003   0.00020   0.00123
 113        5PZ         0.00006  -0.00002  -0.00011   0.00022   0.00066
 114 14  C  1S          0.00000  -0.00002   0.99774  -0.00298  -0.00007
 115        2S          0.00003  -0.00019   0.01575  -0.00001   0.00002
 116        3S         -0.00012   0.00242  -0.01657  -0.00024   0.00015
 117        4PX         0.00000  -0.00032  -0.00059   0.00002  -0.00001
 118        4PY        -0.00004   0.00000   0.00002  -0.00002  -0.00004
 119        4PZ        -0.00003  -0.00013  -0.00035   0.00000   0.00001
 120        5PX        -0.00014  -0.00083   0.00016  -0.00019  -0.00017
 121        5PY         0.00037   0.00034   0.00034   0.00022   0.00034
 122        5PZ         0.00003  -0.00023  -0.00027  -0.00037  -0.00012
 123 15  C  1S          0.00000  -0.00003  -0.00035  -0.00001   0.00000
 124        2S          0.00001  -0.00017  -0.00057   0.00001   0.00003
 125        3S         -0.00024   0.00218   0.00207  -0.00038  -0.00026
 126        4PX         0.00001   0.00022   0.00009   0.00003   0.00003
 127        4PY         0.00002  -0.00025  -0.00005   0.00003   0.00003
 128        4PZ        -0.00002   0.00016   0.00005  -0.00003  -0.00003
 129        5PX        -0.00022   0.00028   0.00151  -0.00037  -0.00027
 130        5PY        -0.00014  -0.00045   0.00030  -0.00039  -0.00017
 131        5PZ         0.00002   0.00023   0.00114  -0.00006   0.00024
 132 16  C  1S          0.00000   0.00000  -0.00004  -0.00001  -0.00001
 133        2S         -0.00004  -0.00006  -0.00018  -0.00006  -0.00005
 134        3S          0.00025  -0.00032  -0.00022   0.00023   0.00048
 135        4PX         0.00000   0.00005   0.00004   0.00002   0.00000
 136        4PY         0.00000   0.00005   0.00005   0.00000  -0.00002
 137        4PZ         0.00001  -0.00011  -0.00016   0.00004   0.00001
 138        5PX         0.00001  -0.00001  -0.00055  -0.00015  -0.00010
 139        5PY         0.00004   0.00004  -0.00061   0.00015   0.00015
 140        5PZ         0.00011  -0.00017  -0.00034   0.00021   0.00010
 141 17  H  1S          0.00000   0.00000  -0.00021  -0.00002   0.00002
 142        2S         -0.00013   0.00003   0.00014  -0.00015  -0.00001
 143 18  H  1S          0.00005   0.00003  -0.00015   0.00006  -0.00005
 144        2S         -0.00046   0.00006  -0.00012  -0.00045   0.00017
 145 19  H  1S         -0.00002   0.00003  -0.00017   0.00000  -0.00001
 146        2S          0.00005   0.00012   0.00002  -0.00007   0.00023
 147 20  H  1S         -0.00002   0.00001   0.00000  -0.00002   0.00004
 148        2S          0.00031   0.00000  -0.00003   0.00009   0.00007
 149 21  H  1S          0.00004   0.00001   0.00002   0.00003   0.00002
 150        2S         -0.00035   0.00001  -0.00024  -0.00034  -0.00057
 151 22  H  1S          0.00000   0.00000   0.00008   0.00004   0.00002
 152        2S          0.00008   0.00011  -0.00040  -0.00036   0.00026
 153 23  H  1S          0.00003   0.00001   0.00004   0.00000   0.00004
 154        2S         -0.00037  -0.00012  -0.00036  -0.00032  -0.00046
 155 24  H  1S          0.00005  -0.00001  -0.00005  -0.00003   0.00005
 156        2S         -0.00002   0.00000   0.00041   0.00026  -0.00011
 157 25  H  1S         -0.00001   0.00003  -0.00002   0.00006   0.00003
 158        2S          0.00020  -0.00007   0.00012  -0.00005  -0.00021
 159 26  H  1S         -0.00009   0.00003   0.00003  -0.00018  -0.00012
 160        2S         -0.00065  -0.00021  -0.00027   0.00346  -0.00138
 161 27  H  1S         -0.00008   0.00001   0.00007  -0.00017  -0.00013
 162        2S         -0.00035   0.00003  -0.00035   0.00242   0.00121
 163 28  H  1S         -0.00003   0.00000  -0.00002  -0.00025  -0.00002
 164        2S          0.00016  -0.00003  -0.00010   0.00016   0.00017
 165 29  H  1S          0.00002  -0.00001   0.00010  -0.00025   0.00007
 166        2S         -0.00017   0.00003  -0.00059   0.00032  -0.00061
 167 30  H  1S          0.00002   0.00000   0.00001  -0.00022   0.00008
 168        2S         -0.00001   0.00002  -0.00029  -0.00016  -0.00005
 169 31  H  1S         -0.00008  -0.00001   0.00002  -0.00008  -0.00018
 170        2S         -0.00043  -0.00001  -0.00012   0.00090   0.00240
 171 32  H  1S         -0.00011   0.00000   0.00000  -0.00012  -0.00022
 172        2S         -0.00034   0.00013   0.00004  -0.00137   0.00392
 173 33  H  1S         -0.00001   0.00000   0.00002  -0.00001  -0.00022
 174        2S          0.00010   0.00004   0.00007   0.00014  -0.00003
 175 34  H  1S          0.00003   0.00000   0.00001   0.00009  -0.00021
 176        2S         -0.00003   0.00002   0.00003  -0.00015  -0.00021
 177 35  H  1S          0.00003  -0.00002  -0.00001   0.00009  -0.00023
 178        2S         -0.00012   0.00014   0.00015  -0.00069   0.00027
 179 36  H  1S          0.00003  -0.00011  -0.00016   0.00000   0.00001
 180        2S         -0.00021  -0.00069   0.00275   0.00002  -0.00025
 181 37  H  1S          0.00001  -0.00014  -0.00019   0.00003   0.00001
 182        2S          0.00006  -0.00020   0.00300  -0.00014  -0.00010
 183 38  H  1S          0.00000  -0.00013  -0.00007  -0.00002   0.00000
 184        2S          0.00012  -0.00034  -0.00119   0.00037   0.00004
 185 39  H  1S         -0.00001  -0.00008  -0.00009  -0.00004   0.00000
 186        2S          0.00004  -0.00039   0.00069   0.00016  -0.00002
 187 40  H  1S         -0.00001  -0.00001  -0.00004   0.00000   0.00000
 188        2S          0.00000   0.00012   0.00031  -0.00007  -0.00014
 189 41  H  1S         -0.00001   0.00002   0.00006  -0.00006   0.00001
 190        2S          0.00006  -0.00010  -0.00053   0.00038  -0.00003
 191 42  H  1S          0.00000   0.00004  -0.00006  -0.00002   0.00000
 192        2S         -0.00005  -0.00012   0.00043   0.00010  -0.00005
                           6         7         8         9        10
                           O         O         O         O         O
     Eigenvalues --   -10.28068 -10.23112 -10.22865 -10.21474 -10.20696
   1 1   Mg 1S          0.00010  -0.00006   0.00015  -0.00008  -0.00002
   2        2S          0.00022   0.00131  -0.00033   0.00164  -0.00010
   3        3PX        -0.00016   0.00014   0.00022   0.00003  -0.00027
   4        3PY         0.00018  -0.00007  -0.00005  -0.00011   0.00031
   5        3PZ        -0.00016   0.00023   0.00028   0.00016  -0.00007
   6        4PX         0.00081  -0.00070  -0.00020  -0.00098   0.00252
   7        4PY         0.00078  -0.00130   0.00077   0.00173  -0.00158
   8        4PZ         0.00034  -0.00051  -0.00051   0.00079   0.00064
   9 2   C  1S          0.00001   0.00001   0.00000   0.00003   0.00000
  10        2S          0.00007   0.00005  -0.00002   0.00013  -0.00001
  11        3S         -0.00019  -0.00012   0.00020  -0.00030   0.00035
  12        4PX         0.00002   0.00002  -0.00002   0.00001   0.00007
  13        4PY         0.00001  -0.00004   0.00002   0.00002  -0.00005
  14        4PZ         0.00000  -0.00002   0.00000   0.00004   0.00002
  15        5PX        -0.00010  -0.00043   0.00024  -0.00023  -0.00066
  16        5PY        -0.00031   0.00043  -0.00015  -0.00034   0.00045
  17        5PZ        -0.00010   0.00015   0.00018   0.00008   0.00006
  18 3   C  1S          0.00002   0.00000  -0.00001   0.00000  -0.00002
  19        2S          0.00015   0.00000  -0.00005  -0.00001  -0.00009
  20        3S         -0.00061  -0.00023   0.00021   0.00031   0.00046
  21        4PX        -0.00002  -0.00006   0.00000   0.00002   0.00006
  22        4PY         0.00002   0.00003   0.00002   0.00008  -0.00004
  23        4PZ         0.00000  -0.00001  -0.00002   0.00002   0.00002
  24        5PX        -0.00003   0.00065   0.00025   0.00031  -0.00067
  25        5PY        -0.00041   0.00003  -0.00015  -0.00044   0.00026
  26        5PZ         0.00007   0.00005   0.00008  -0.00021  -0.00011
  27 4   C  1S         -0.00001  -0.00001   0.99768   0.00008  -0.00007
  28        2S         -0.00006  -0.00002   0.01662  -0.00008   0.00016
  29        3S          0.00057   0.00023  -0.02045   0.00035  -0.00049
  30        4PX        -0.00002   0.00004   0.00007  -0.00002   0.00002
  31        4PY        -0.00005  -0.00006   0.00011  -0.00002   0.00002
  32        4PZ         0.00003  -0.00005  -0.00005   0.00004   0.00001
  33        5PX         0.00085  -0.00028  -0.00022   0.00036   0.00001
  34        5PY         0.00017  -0.00004  -0.00104   0.00035   0.00022
  35        5PZ        -0.00039  -0.00003   0.00145   0.00002  -0.00001
  36 5   O  1S          0.00000   0.00000   0.00000   0.00000   0.00000
  37        2S         -0.00002  -0.00016  -0.00001  -0.00004  -0.00011
  38        3S          0.00006   0.00005   0.00023   0.00017  -0.00013
  39        4PX        -0.00001  -0.00011   0.00002  -0.00002   0.00005
  40        4PY         0.00001   0.00005   0.00004   0.00000   0.00011
  41        4PZ        -0.00001   0.00006   0.00003   0.00001  -0.00002
  42        5PX         0.00003   0.00021   0.00001   0.00010  -0.00002
  43        5PY         0.00001  -0.00022  -0.00020   0.00001  -0.00021
  44        5PZ         0.00006  -0.00023  -0.00004  -0.00009   0.00006
  45 6   Mg 1S          0.00011   0.00005   0.00002   0.00000   0.00001
  46        2S          0.00007  -0.00086   0.00022  -0.00103   0.00120
  47        3PX        -0.00006  -0.00006   0.00005  -0.00006  -0.00003
  48        3PY         0.00007   0.00003  -0.00002   0.00001  -0.00015
  49        3PZ        -0.00005  -0.00012   0.00007  -0.00007  -0.00003
  50        4PX         0.00012  -0.00036   0.00012  -0.00039   0.00059
  51        4PY        -0.00045   0.00034  -0.00013  -0.00030   0.00081
  52        4PZ        -0.00002   0.00004   0.00002  -0.00017  -0.00003
  53 7   I  1S          0.00003   0.00001   0.00000   0.00000   0.00001
  54        2S          0.00007  -0.00007  -0.00002   0.00002  -0.00012
  55        3PX         0.00015  -0.00003   0.00000   0.00001  -0.00004
  56        3PY         0.00003  -0.00001   0.00000   0.00001   0.00001
  57        3PZ        -0.00004  -0.00001  -0.00001  -0.00002  -0.00001
  58        4PX        -0.00034   0.00006  -0.00004  -0.00008   0.00012
  59        4PY        -0.00010   0.00004   0.00001  -0.00002  -0.00001
  60        4PZ         0.00008   0.00002   0.00001   0.00003   0.00001
  61 8   I  1S          0.00001   0.00000   0.00000   0.00000   0.00003
  62        2S         -0.00009   0.00009  -0.00004  -0.00002   0.00018
  63        3PX        -0.00001   0.00002  -0.00001  -0.00002   0.00022
  64        3PY        -0.00001   0.00000  -0.00001   0.00001  -0.00006
  65        3PZ         0.00000   0.00000  -0.00001   0.00000   0.00002
  66        4PX         0.00002  -0.00005   0.00000   0.00006  -0.00038
  67        4PY         0.00000   0.00001   0.00000  -0.00003   0.00016
  68        4PZ         0.00000   0.00000   0.00001   0.00001  -0.00002
  69 9   C  1S          0.00001  -0.00149   0.00000   0.00001   0.00003
  70        2S         -0.00004  -0.00053  -0.00005  -0.00003  -0.00006
  71        3S          0.00030   0.00444   0.00023  -0.00006   0.00001
  72        4PX         0.00001  -0.00001   0.00001   0.00003   0.00009
  73        4PY         0.00005   0.00001   0.00004   0.00000   0.00006
  74        4PZ         0.00001  -0.00009   0.00001   0.00000  -0.00009
  75        5PX        -0.00022   0.00385   0.00002  -0.00028  -0.00058
  76        5PY        -0.00046  -0.00005  -0.00017   0.00003  -0.00049
  77        5PZ        -0.00009   0.00062   0.00003  -0.00010  -0.00007
  78 10  O  1S         -0.00001   0.00000   0.00000   0.00000   0.00000
  79        2S          0.00022  -0.00002  -0.00010  -0.00012   0.00003
  80        3S          0.00055   0.00006   0.00002  -0.00014  -0.00008
  81        4PX         0.00006  -0.00001  -0.00007  -0.00002   0.00001
  82        4PY        -0.00003   0.00000   0.00006  -0.00010  -0.00002
  83        4PZ         0.00000   0.00000  -0.00009   0.00007   0.00001
  84        5PX        -0.00076   0.00002   0.00029   0.00003  -0.00001
  85        5PY         0.00038  -0.00005  -0.00033   0.00027   0.00011
  86        5PZ        -0.00031  -0.00005   0.00035  -0.00009  -0.00007
  87 11  C  1S          0.00000   0.99767   0.00000   0.00003   0.00003
  88        2S          0.00000   0.01634  -0.00002  -0.00006  -0.00010
  89        3S          0.00001  -0.01911   0.00011   0.00021   0.00073
  90        4PX         0.00001  -0.00002   0.00000  -0.00001  -0.00001
  91        4PY         0.00001  -0.00004   0.00002  -0.00001   0.00001
  92        4PZ         0.00001  -0.00004   0.00004   0.00000   0.00001
  93        5PX        -0.00003   0.00130   0.00007  -0.00020   0.00000
  94        5PY         0.00018  -0.00014   0.00008   0.00005   0.00020
  95        5PZ        -0.00007   0.00024  -0.00010   0.00003   0.00013
  96 12  C  1S          0.00001   0.00005  -0.00002   0.00000  -0.00121
  97        2S          0.00002  -0.00006   0.00007  -0.00005  -0.00046
  98        3S         -0.00009  -0.00011  -0.00013   0.00021   0.00434
  99        4PX         0.00002  -0.00006   0.00007  -0.00001   0.00002
 100        4PY        -0.00002  -0.00006   0.00007   0.00001  -0.00001
 101        4PZ         0.00000   0.00009   0.00002   0.00000   0.00007
 102        5PX        -0.00034   0.00035  -0.00077  -0.00004  -0.00259
 103        5PY         0.00012   0.00027  -0.00047   0.00005  -0.00251
 104        5PZ         0.00016  -0.00001  -0.00016   0.00004  -0.00127
 105 13  C  1S          0.00000  -0.00004   0.00008  -0.00004   0.99767
 106        2S          0.00000  -0.00010   0.00015  -0.00002   0.01646
 107        3S         -0.00009   0.00069  -0.00075  -0.00013  -0.01931
 108        4PX         0.00001   0.00001   0.00002   0.00001   0.00022
 109        4PY        -0.00001   0.00001  -0.00001  -0.00002   0.00000
 110        4PZ         0.00001  -0.00001   0.00000   0.00002   0.00005
 111        5PX         0.00011  -0.00007  -0.00016   0.00004  -0.00089
 112        5PY        -0.00001   0.00011  -0.00013   0.00020  -0.00113
 113        5PZ        -0.00012  -0.00002  -0.00017  -0.00020  -0.00041
 114 14  C  1S          0.00026   0.00001  -0.00148   0.00004  -0.00001
 115        2S         -0.00057  -0.00008  -0.00044  -0.00017   0.00006
 116        3S          0.00233   0.00044   0.00474   0.00020   0.00011
 117        4PX        -0.00007   0.00003  -0.00002   0.00010   0.00001
 118        4PY         0.00001  -0.00007   0.00007  -0.00002  -0.00006
 119        4PZ        -0.00001  -0.00002  -0.00004   0.00010   0.00000
 120        5PX        -0.00125  -0.00010   0.00109  -0.00039  -0.00002
 121        5PY         0.00132   0.00053  -0.00282   0.00012   0.00061
 122        5PZ        -0.00126   0.00005   0.00358  -0.00038   0.00009
 123 15  C  1S          0.99776   0.00000  -0.00001  -0.00155   0.00000
 124        2S          0.01592   0.00002  -0.00018  -0.00047   0.00001
 125        3S         -0.01738  -0.00013   0.00104   0.00431  -0.00027
 126        4PX         0.00048   0.00001   0.00001  -0.00007   0.00002
 127        4PY        -0.00052   0.00000  -0.00011   0.00004   0.00000
 128        4PZ         0.00036  -0.00001   0.00006   0.00001  -0.00001
 129        5PX        -0.00155  -0.00027   0.00110   0.00147  -0.00019
 130        5PY        -0.00058  -0.00018   0.00039   0.00090  -0.00016
 131        5PZ        -0.00004   0.00021   0.00013  -0.00336   0.00007
 132 16  C  1S          0.00152  -0.00004  -0.00008   0.99767   0.00004
 133        2S         -0.00053  -0.00006  -0.00007   0.01633  -0.00004
 134        3S          0.00506   0.00036  -0.00086  -0.01880   0.00026
 135        4PX        -0.00002   0.00000  -0.00003   0.00002   0.00001
 136        4PY        -0.00008  -0.00001   0.00004   0.00002  -0.00001
 137        4PZ         0.00020   0.00002  -0.00011   0.00006   0.00002
 138        5PX        -0.00079  -0.00002   0.00023   0.00069  -0.00018
 139        5PY        -0.00017  -0.00002  -0.00093   0.00056   0.00012
 140        5PZ         0.00220   0.00015   0.00014  -0.00113   0.00007
 141 17  H  1S         -0.00001  -0.00003  -0.00021   0.00000   0.00003
 142        2S         -0.00025   0.00024   0.00359  -0.00026  -0.00001
 143 18  H  1S          0.00000   0.00004  -0.00038  -0.00004  -0.00009
 144        2S         -0.00001  -0.00017   0.00401   0.00028   0.00035
 145 19  H  1S          0.00002  -0.00001  -0.00020   0.00004   0.00007
 146        2S          0.00034  -0.00003   0.00326  -0.00021  -0.00019
 147 20  H  1S          0.00002   0.00000  -0.00001   0.00002   0.00001
 148        2S         -0.00016   0.00014  -0.00004  -0.00022  -0.00001
 149 21  H  1S         -0.00003   0.00003  -0.00002   0.00004   0.00004
 150        2S          0.00024  -0.00039   0.00012  -0.00012  -0.00060
 151 22  H  1S          0.00001  -0.00002   0.00006   0.00008   0.00003
 152        2S          0.00011   0.00016  -0.00033  -0.00027  -0.00009
 153 23  H  1S         -0.00001  -0.00004  -0.00001  -0.00001   0.00003
 154        2S          0.00036   0.00043   0.00008   0.00017  -0.00051
 155 24  H  1S          0.00001  -0.00006   0.00000  -0.00004   0.00001
 156        2S          0.00002   0.00010  -0.00016  -0.00015   0.00003
 157 25  H  1S         -0.00004   0.00003   0.00003   0.00011  -0.00005
 158        2S          0.00038  -0.00039  -0.00030  -0.00054   0.00032
 159 26  H  1S          0.00001  -0.00027   0.00001  -0.00002   0.00005
 160        2S         -0.00038   0.00090  -0.00012   0.00008  -0.00072
 161 27  H  1S          0.00004  -0.00020   0.00001  -0.00001   0.00003
 162        2S         -0.00007   0.00043   0.00000   0.00010  -0.00020
 163 28  H  1S          0.00001  -0.00025   0.00002  -0.00002  -0.00004
 164        2S         -0.00004   0.00334  -0.00013   0.00012   0.00003
 165 29  H  1S         -0.00001  -0.00029   0.00002  -0.00004   0.00003
 166        2S         -0.00001   0.00345  -0.00013   0.00014  -0.00046
 167 30  H  1S         -0.00001  -0.00025  -0.00001  -0.00003   0.00004
 168        2S          0.00014   0.00329   0.00008   0.00012  -0.00022
 169 31  H  1S          0.00001   0.00000   0.00000  -0.00002  -0.00021
 170        2S         -0.00017  -0.00010   0.00028   0.00001   0.00036
 171 32  H  1S         -0.00001   0.00002  -0.00003  -0.00003  -0.00026
 172        2S          0.00024  -0.00027   0.00057   0.00012   0.00083
 173 33  H  1S         -0.00001  -0.00003   0.00002  -0.00003  -0.00022
 174        2S          0.00009   0.00001   0.00006   0.00029   0.00315
 175 34  H  1S          0.00000   0.00003   0.00002  -0.00002  -0.00023
 176        2S         -0.00003  -0.00020   0.00000   0.00006   0.00325
 177 35  H  1S         -0.00001   0.00003   0.00002  -0.00004  -0.00028
 178        2S          0.00013  -0.00042   0.00004   0.00019   0.00355
 179 36  H  1S         -0.00013   0.00002  -0.00024   0.00004   0.00005
 180        2S         -0.00074  -0.00040   0.00080  -0.00032  -0.00055
 181 37  H  1S         -0.00005   0.00003  -0.00026  -0.00003   0.00004
 182        2S         -0.00074  -0.00002   0.00082  -0.00011  -0.00013
 183 38  H  1S         -0.00020  -0.00002   0.00000  -0.00025  -0.00001
 184        2S          0.00363   0.00011  -0.00036   0.00083   0.00015
 185 39  H  1S         -0.00020  -0.00001  -0.00008  -0.00021  -0.00003
 186        2S          0.00265  -0.00004   0.00048   0.00029   0.00021
 187 40  H  1S         -0.00020  -0.00002  -0.00006  -0.00023   0.00000
 188        2S         -0.00011   0.00004   0.00085   0.00315  -0.00012
 189 41  H  1S         -0.00025  -0.00002   0.00003  -0.00027  -0.00002
 190        2S          0.00042   0.00007  -0.00034   0.00334   0.00013
 191 42  H  1S         -0.00017  -0.00002  -0.00014  -0.00024  -0.00001
 192        2S         -0.00028   0.00000   0.00065   0.00310   0.00005
                          11        12        13        14        15
                           O         O         O         O         O
     Eigenvalues --   -10.13994 -10.13922  -1.08592  -1.08169  -0.82448
   1 1   Mg 1S          0.00076   0.00068   0.02054   0.01394  -0.00390
   2        2S          0.00382   0.00341  -0.00843   0.01682  -0.00270
   3        3PX        -0.00033  -0.00056   0.01328   0.00497   0.00134
   4        3PY         0.00002  -0.00019  -0.00754   0.01185  -0.00183
   5        3PZ        -0.00133   0.00138  -0.00171  -0.00029   0.00341
   6        4PX        -0.00265  -0.00173  -0.01452  -0.01025   0.01347
   7        4PY         0.00074   0.00039   0.01710  -0.00721   0.00413
   8        4PZ        -0.00120   0.00080  -0.00202  -0.00217   0.00735
   9 2   C  1S          0.00419   0.99763  -0.00048  -0.00015   0.00021
  10        2S          0.00041   0.01582   0.00030   0.00095   0.00026
  11        3S         -0.00124  -0.01526  -0.00082  -0.00283  -0.00233
  12        4PX        -0.00002  -0.00002  -0.00026   0.00031   0.00032
  13        4PY         0.00005   0.00001   0.00042  -0.00031   0.00008
  14        4PZ         0.00003   0.00075  -0.00007  -0.00007   0.00055
  15        5PX         0.00058  -0.00049   0.00837  -0.00403  -0.00432
  16        5PY        -0.00063  -0.00010  -0.00612   0.00280   0.00090
  17        5PZ         0.00012  -0.00091  -0.00128  -0.00010  -0.00131
  18 3   C  1S          0.99763  -0.00415  -0.00051  -0.00025   0.00142
  19        2S          0.01577   0.00027   0.00162   0.00128  -0.00350
  20        3S         -0.01502  -0.00100  -0.00660  -0.00530   0.00349
  21        4PX         0.00005   0.00000  -0.00006   0.00033  -0.00042
  22        4PY         0.00001   0.00000   0.00016  -0.00013  -0.00085
  23        4PZ        -0.00078  -0.00003   0.00002   0.00000   0.00022
  24        5PX        -0.00069   0.00059   0.00622  -0.00549   0.00254
  25        5PY         0.00017  -0.00016  -0.00228   0.00285  -0.00487
  26        5PZ         0.00082  -0.00016   0.00201   0.00128  -0.00047
  27 4   C  1S          0.00000   0.00000  -0.00302  -0.01363  -0.11879
  28        2S         -0.00002  -0.00006   0.00724   0.02691   0.23401
  29        3S         -0.00024   0.00100  -0.01118   0.01276   0.19548
  30        4PX         0.00003  -0.00014  -0.00154  -0.00770  -0.00764
  31        4PY         0.00006  -0.00004   0.00244   0.00932   0.03387
  32        4PZ         0.00000   0.00001  -0.00285  -0.01577  -0.04704
  33        5PX        -0.00045   0.00112  -0.00508  -0.00138   0.00662
  34        5PY        -0.00018   0.00045   0.00230  -0.00839  -0.00247
  35        5PZ         0.00009   0.00028   0.00481   0.00331   0.00424
  36 5   O  1S          0.00000   0.00000  -0.21293   0.04239   0.00426
  37        2S          0.00009   0.00012   0.44496  -0.08828  -0.00910
  38        3S         -0.00028  -0.00031   0.43128  -0.08775  -0.01172
  39        4PX         0.00001  -0.00004   0.02938  -0.00601   0.01819
  40        4PY         0.00000  -0.00001  -0.07928   0.01710   0.01789
  41        4PZ        -0.00003   0.00005  -0.02650   0.00525  -0.03453
  42        5PX        -0.00002   0.00033  -0.00169   0.00064   0.00608
  43        5PY        -0.00011   0.00000  -0.01050   0.00032   0.00540
  44        5PZ         0.00034  -0.00046  -0.00387   0.00150  -0.00741
  45 6   Mg 1S          0.00064   0.00068   0.00060  -0.00003  -0.00050
  46        2S         -0.00249  -0.00178  -0.00126  -0.01681   0.00943
  47        3PX         0.00040   0.00040   0.00104  -0.00124   0.00049
  48        3PY        -0.00005  -0.00012   0.00106  -0.00084   0.00040
  49        3PZ        -0.00049   0.00053   0.00013   0.00000  -0.00092
  50        4PX        -0.00086  -0.00059   0.00118  -0.00667   0.00412
  51        4PY        -0.00029  -0.00018  -0.00500   0.00122  -0.00174
  52        4PZ         0.00039  -0.00043   0.00071   0.00069  -0.00109
  53 7   I  1S          0.00003   0.00002  -0.00002   0.00015  -0.00082
  54        2S         -0.00004  -0.00004   0.00009   0.00088  -0.00111
  55        3PX         0.00007   0.00004   0.00065   0.00046  -0.00009
  56        3PY         0.00001   0.00000   0.00020   0.00019   0.00021
  57        3PZ        -0.00001   0.00005   0.00005  -0.00015  -0.00002
  58        4PX        -0.00027  -0.00019  -0.00227  -0.00008  -0.00161
  59        4PY         0.00003   0.00005  -0.00021  -0.00077  -0.00046
  60        4PZ         0.00005  -0.00011  -0.00017   0.00019   0.00029
  61 8   I  1S          0.00001   0.00001  -0.00006   0.00003  -0.00013
  62        2S         -0.00012  -0.00012  -0.00111   0.00067  -0.00058
  63        3PX         0.00001   0.00001   0.00011   0.00015   0.00002
  64        3PY        -0.00005  -0.00005  -0.00029   0.00016  -0.00006
  65        3PZ         0.00000   0.00000   0.00000   0.00007   0.00002
  66        4PX        -0.00013  -0.00014  -0.00043  -0.00019  -0.00024
  67        4PY         0.00001   0.00000   0.00049  -0.00026   0.00018
  68        4PZ        -0.00001  -0.00003  -0.00011  -0.00020   0.00001
  69 9   C  1S          0.00000   0.00000  -0.06572   0.01316  -0.03125
  70        2S         -0.00008   0.00000   0.12934  -0.02586   0.06444
  71        3S          0.00074  -0.00051   0.07437  -0.01639   0.04967
  72        4PX        -0.00001   0.00002  -0.04672   0.00910   0.01244
  73        4PY         0.00004  -0.00006   0.01241  -0.00277   0.00389
  74        4PZ         0.00003  -0.00006   0.08199  -0.01659  -0.00021
  75        5PX        -0.00006   0.00024   0.01500   0.00086  -0.00385
  76        5PY        -0.00011   0.00041  -0.00288   0.00810  -0.00160
  77        5PZ         0.00006   0.00005  -0.01717   0.00503  -0.00279
  78 10  O  1S          0.00000   0.00000  -0.04190  -0.21273   0.01526
  79        2S          0.00005   0.00009   0.08815   0.44550  -0.03221
  80        3S          0.00004  -0.00025   0.08221   0.42719  -0.04032
  81        4PX        -0.00004  -0.00004   0.00875   0.04441   0.12810
  82        4PY        -0.00004  -0.00001   0.01388   0.07743  -0.06871
  83        4PZ        -0.00008   0.00004   0.00068   0.00364   0.08429
  84        5PX         0.00035   0.00024  -0.00009   0.00142   0.02836
  85        5PY         0.00031   0.00008   0.00507   0.01133  -0.01136
  86        5PZ         0.00044  -0.00015  -0.00013  -0.00297   0.01858
  87 11  C  1S          0.00000   0.00000  -0.01350   0.00274  -0.02874
  88        2S          0.00002   0.00004   0.02582  -0.00470   0.05738
  89        3S         -0.00033  -0.00014   0.00855  -0.00560   0.04296
  90        4PX         0.00003  -0.00002  -0.01880   0.00392  -0.01330
  91        4PY         0.00000  -0.00002   0.00171  -0.00066   0.00206
  92        4PZ        -0.00001   0.00000   0.00248  -0.00057  -0.00277
  93        5PX         0.00000   0.00000   0.00455  -0.00102   0.00105
  94        5PY         0.00006  -0.00014   0.00198  -0.00232   0.00017
  95        5PZ        -0.00006  -0.00010   0.01295  -0.00265  -0.00054
  96 12  C  1S          0.00000   0.00000  -0.06192   0.01254   0.02688
  97        2S          0.00006   0.00000   0.12133  -0.02483  -0.05548
  98        3S         -0.00031   0.00027   0.06970  -0.01524  -0.04263
  99        4PX        -0.00007  -0.00002   0.01058  -0.00217   0.00606
 100        4PY        -0.00001   0.00003   0.06764  -0.01372  -0.00254
 101        4PZ        -0.00002  -0.00002  -0.05887   0.01217   0.00389
 102        5PX         0.00075  -0.00001   0.00912  -0.00125  -0.00154
 103        5PY         0.00010   0.00022  -0.01907   0.00303   0.00059
 104        5PZ         0.00009  -0.00011   0.01001  -0.00336  -0.00161
 105 13  C  1S          0.00000   0.00000  -0.01213   0.00249   0.01831
 106        2S         -0.00012   0.00000   0.02252  -0.00459  -0.03621
 107        3S          0.00107   0.00035   0.01215  -0.00236  -0.02817
 108        4PX        -0.00002  -0.00005   0.01049  -0.00223  -0.00737
 109        4PY         0.00009   0.00004   0.01455  -0.00299  -0.00831
 110        4PZ        -0.00003   0.00002   0.00177  -0.00039  -0.00440
 111        5PX        -0.00007   0.00012  -0.00780   0.00134   0.00133
 112        5PY        -0.00011  -0.00034   0.00607  -0.00130   0.00200
 113        5PZ         0.00047  -0.00025  -0.00875   0.00212   0.00038
 114 14  C  1S          0.00001   0.00000  -0.01336  -0.06714  -0.12431
 115        2S         -0.00003  -0.00001   0.02567   0.13303   0.25672
 116        3S         -0.00030  -0.00019   0.01808   0.07601   0.19269
 117        4PX         0.00006  -0.00003  -0.01758  -0.08858   0.01095
 118        4PY         0.00002  -0.00002  -0.00178  -0.00882  -0.04364
 119        4PZ        -0.00002   0.00005  -0.00689  -0.03854   0.04643
 120        5PX         0.00039  -0.00037   0.00827   0.01472   0.00253
 121        5PY        -0.00037   0.00000  -0.01097   0.00511   0.01472
 122        5PZ         0.00020  -0.00027  -0.00137   0.01106  -0.01115
 123 15  C  1S         -0.00001  -0.00001  -0.01177  -0.06093   0.09967
 124        2S          0.00010   0.00003   0.02328   0.12018  -0.20334
 125        3S         -0.00006   0.00039   0.01094   0.06045  -0.16626
 126        4PX        -0.00005  -0.00005   0.00788   0.04273  -0.01376
 127        4PY        -0.00007  -0.00003  -0.01343  -0.06954   0.02108
 128        4PZ         0.00004   0.00006   0.00654   0.03428   0.01602
 129        5PX         0.00038  -0.00010   0.00347   0.00015  -0.00279
 130        5PY         0.00048   0.00020   0.00748   0.02598  -0.00567
 131        5PZ        -0.00042  -0.00069  -0.00048   0.00003  -0.00902
 132 16  C  1S          0.00000  -0.00001  -0.00236  -0.01253   0.07140
 133        2S         -0.00001   0.00015   0.00494   0.02358  -0.14062
 134        3S          0.00032  -0.00064   0.00025   0.01367  -0.10411
 135        4PX        -0.00003   0.00001  -0.00093  -0.00406   0.02034
 136        4PY        -0.00005   0.00001  -0.00174  -0.00900   0.01375
 137        4PZ        -0.00004  -0.00001   0.00282   0.01537  -0.03496
 138        5PX         0.00041   0.00021   0.00156   0.00485  -0.00440
 139        5PY        -0.00009   0.00016  -0.00236  -0.01023   0.00431
 140        5PZ        -0.00045  -0.00026  -0.00258  -0.00749   0.00547
 141 17  H  1S         -0.00004   0.00008   0.00104   0.00351   0.06423
 142        2S          0.00034  -0.00108   0.00275  -0.00476  -0.00205
 143 18  H  1S         -0.00006   0.00003   0.00137   0.00524   0.06380
 144        2S          0.00028   0.00000   0.01423  -0.00619   0.00150
 145 19  H  1S          0.00001   0.00015   0.00149   0.00515   0.06233
 146        2S         -0.00011  -0.00046  -0.00116  -0.00083   0.00141
 147 20  H  1S          0.00010  -0.00041   0.00002   0.00002  -0.00016
 148        2S         -0.00033   0.00310  -0.00071   0.00141  -0.00016
 149 21  H  1S         -0.00001  -0.00045  -0.00025   0.00024   0.00015
 150        2S          0.00076   0.00305   0.00634  -0.00211  -0.00233
 151 22  H  1S          0.00000  -0.00042   0.00026   0.00015   0.00060
 152        2S          0.00018   0.00316  -0.00163   0.00224   0.00237
 153 23  H  1S         -0.00044   0.00000   0.00001   0.00021  -0.00103
 154        2S          0.00275   0.00056   0.00532  -0.00166   0.00189
 155 24  H  1S         -0.00041   0.00010  -0.00017   0.00020  -0.00034
 156        2S          0.00315  -0.00020   0.00368   0.00194  -0.00347
 157 25  H  1S         -0.00041   0.00003   0.00045   0.00007  -0.00197
 158        2S          0.00292  -0.00006  -0.00049   0.00498  -0.00243
 159 26  H  1S          0.00002  -0.00003   0.02135  -0.00467   0.01623
 160        2S         -0.00027   0.00047  -0.00119   0.00629  -0.00248
 161 27  H  1S          0.00001  -0.00002   0.02150  -0.00432   0.01905
 162        2S         -0.00029   0.00010  -0.00171  -0.00118   0.00028
 163 28  H  1S          0.00000   0.00000   0.00314  -0.00061   0.01574
 164        2S          0.00005  -0.00004   0.00141   0.00031   0.00098
 165 29  H  1S         -0.00003  -0.00001   0.00518  -0.00104   0.01595
 166        2S          0.00023   0.00016  -0.00414   0.00261   0.00451
 167 30  H  1S          0.00000   0.00000   0.00492  -0.00099   0.01486
 168        2S          0.00013   0.00003  -0.00282   0.00078   0.00111
 169 31  H  1S          0.00001  -0.00008   0.01986  -0.00399  -0.01551
 170        2S          0.00016   0.00002   0.00270   0.00038  -0.00144
 171 32  H  1S          0.00006  -0.00002   0.02061  -0.00424  -0.01341
 172        2S         -0.00039   0.00003  -0.00996   0.00206   0.00090
 173 33  H  1S          0.00002   0.00000   0.00248  -0.00050  -0.00944
 174        2S         -0.00050  -0.00007   0.00175  -0.00072   0.00103
 175 34  H  1S         -0.00004   0.00004   0.00404  -0.00081  -0.00889
 176        2S          0.00011  -0.00040   0.00033  -0.00010   0.00098
 177 35  H  1S          0.00008   0.00011   0.00422  -0.00075  -0.00919
 178        2S         -0.00044  -0.00036  -0.00441  -0.00024   0.00117
 179 36  H  1S          0.00000   0.00000   0.00403   0.02295   0.06572
 180        2S          0.00028   0.00006   0.00607  -0.00535  -0.00428
 181 37  H  1S         -0.00001   0.00002   0.00403   0.02106   0.06892
 182        2S          0.00008   0.00003  -0.00421  -0.00089  -0.00184
 183 38  H  1S          0.00003   0.00000   0.00405   0.02021  -0.04969
 184        2S         -0.00004   0.00007  -0.00290  -0.00877   0.00665
 185 39  H  1S         -0.00002   0.00010   0.00383   0.01912  -0.05521
 186        2S         -0.00003  -0.00066   0.00055   0.00322  -0.00240
 187 40  H  1S          0.00002   0.00004   0.00061   0.00277  -0.03647
 188        2S         -0.00014  -0.00012  -0.00009  -0.00059  -0.00467
 189 41  H  1S          0.00021   0.00005   0.00109   0.00473  -0.03724
 190        2S         -0.00108  -0.00009  -0.00247  -0.00719   0.00129
 191 42  H  1S          0.00002   0.00004   0.00096   0.00480  -0.03439
 192        2S         -0.00038  -0.00009  -0.00037  -0.00163  -0.00328
                          16        17        18        19        20
                           O         O         O         O         O
     Eigenvalues --    -0.82395  -0.78522  -0.78178  -0.69797  -0.68905
   1 1   Mg 1S         -0.00276  -0.01556  -0.01145   0.00033   0.02572
   2        2S         -0.01198   0.00025  -0.01329  -0.01448  -0.00368
   3        3PX        -0.00358  -0.00828  -0.00477  -0.00360  -0.00187
   4        3PY         0.00300   0.00642  -0.00692  -0.00024   0.01099
   5        3PZ        -0.00225   0.00062   0.00049   0.00699  -0.00335
   6        4PX         0.02220   0.00139   0.01966   0.02237   0.00621
   7        4PY         0.00685   0.00085  -0.00884  -0.00392  -0.00628
   8        4PZ        -0.00567   0.00136  -0.00095   0.01707   0.01832
   9 2   C  1S          0.00190  -0.00115   0.00016  -0.00918  -0.01879
  10        2S         -0.00438   0.00223  -0.00074   0.01778   0.03753
  11        3S          0.00215  -0.00113   0.00010   0.01775   0.03274
  12        4PX        -0.00086  -0.00003  -0.00015   0.00150   0.00130
  13        4PY         0.00097  -0.00078  -0.00008  -0.00068   0.00119
  14        4PZ        -0.00028   0.00049  -0.00004   0.00438   0.00729
  15        5PX        -0.00248   0.00570   0.00099   0.00253  -0.00463
  16        5PY         0.00189  -0.00383   0.00303  -0.00407  -0.00205
  17        5PZ        -0.00014  -0.00172  -0.00052   0.00174   0.00281
  18 3   C  1S         -0.00154   0.00068  -0.00123   0.01541  -0.02229
  19        2S          0.00268  -0.00136   0.00154  -0.03043   0.04256
  20        3S          0.00415   0.00018   0.00268  -0.02483   0.04307
  21        4PX         0.00147  -0.00007   0.00012  -0.00235   0.00124
  22        4PY        -0.00039  -0.00009   0.00038   0.00148   0.00198
  23        4PZ        -0.00062  -0.00009  -0.00054   0.00701  -0.00747
  24        5PX        -0.00297  -0.00308   0.00014  -0.00704  -0.00008
  25        5PY         0.00037  -0.00009   0.00597   0.00475   0.00302
  26        5PZ         0.00017   0.00015   0.00230   0.00225  -0.00393
  27 4   C  1S          0.03049  -0.00714  -0.09920  -0.00870  -0.11778
  28        2S         -0.05908   0.01231   0.19497   0.01803   0.23729
  29        3S         -0.05381   0.02356   0.19083   0.01604   0.25075
  30        4PX         0.00219   0.00054   0.00804   0.00047   0.01685
  31        4PY        -0.00820   0.00118   0.01830  -0.00911  -0.05676
  32        4PZ         0.01184  -0.00141  -0.01658   0.00687   0.07691
  33        5PX         0.00097   0.00567   0.00225   0.00346   0.00515
  34        5PY         0.00158  -0.00286   0.00273   0.00103  -0.00123
  35        5PZ        -0.00131  -0.00191  -0.00127  -0.00115  -0.00173
  36 5   O  1S          0.01359   0.07153  -0.00492  -0.01309   0.00218
  37        2S         -0.02855  -0.15250   0.01052   0.02831  -0.00492
  38        3S         -0.03631  -0.19362   0.01251   0.03759  -0.00615
  39        4PX         0.07043   0.00550   0.00047  -0.03208   0.00206
  40        4PY         0.05911  -0.05275   0.00360  -0.05393   0.01207
  41        4PZ        -0.14532   0.03536  -0.00060   0.22494  -0.01739
  42        5PX         0.01650   0.00561  -0.00004  -0.00953   0.00144
  43        5PY         0.01296  -0.02019   0.00377  -0.01061   0.00222
  44        5PZ        -0.03197   0.00668   0.00024   0.05814  -0.00451
  45 6   Mg 1S         -0.00017  -0.00005   0.00047  -0.00130   0.00806
  46        2S          0.01663   0.00141   0.01777   0.01847   0.00238
  47        3PX         0.00055  -0.00025   0.00132   0.00000   0.00227
  48        3PY        -0.00074  -0.00020   0.00008  -0.00072   0.00000
  49        3PZ        -0.00012   0.00124   0.00062   0.00332  -0.00133
  50        4PX         0.00660   0.00017   0.00638   0.00893  -0.00019
[...]
                                                    121(r),117(r),162(g),69(r)
                                                    74(g),73(g),67(r),109(r)
                                                    91(v),158(r),56(g),135(v)
                                                    81(r),126(r),94(v),139(r)
                                                    130(r),149(r),143(r),170(g)
                                                    133(r),111(r),82(r),134(r)
                                                    68(r),51(r),103(r),90(v)
                                                    141(r),118(r),169(g),98(r)
                                                    119(r),123(r),151(r),93(v)
                                                    157(r),122(r),136(v),102(r)
                                                    161(g),77(r),132(r),131(r)
                                                    78(r),112(r),76(g),148(r)
                                                    120(r),65(r),106(r),165(r)
                                                    137(v),147(r),138(r),89(v)
                                                    101(r),129(r),116(r),156(r)
                                                    152(r),113(r),110(r),114(r)
                                                    173(r),142(r),125(r),166(r)
                                                    153(r),140(r),186(r),177(r)
                                                    70(r),79(r),66(r),124(r)
                                                    189(r),53(r),191(r),154(r)
                                                    144(r),181(r)
   160. BD*(   1) C   3 - H  23          0.01217     0.48210   
   161. BD*(   1) C   3 - H  24          0.00623     0.48695   
   162. BD*(   1) C   3 - H  25          0.00937     0.45969   
   169. BD*(   1)Mg   6 - I   7          0.04667     0.19620   
   170. BD*(   1)Mg   6 - I   8          0.03619     0.21575   
       -------------------------------
              Total Lewis  127.52034  ( 99.6736%)
        Valence non-Lewis    0.39910  (  0.3119%)
        Rydberg non-Lewis    0.01849  (  0.0145%)
       -------------------------------
            Total unit  2  127.93792  (100.0000%)
           Charge unit  2   -0.93792

 Molecular unit  3  (C4H10O)
     9. BD (   1) C   4 - C  14          1.99150    -0.66274  175(v),51(r),53(r),52(r)
                                                    87(r)
    10. BD (   1) C   4 - H  17          1.97764    -0.54359  174(v),51(r),53(r),52(r)
    11. BD (   1) C   4 - H  18          1.98271    -0.54688  185(v),51(r),52(r),87(r)
                                                    155(r),67(r),143(r),68(r)
                                                    88(r),137(r)
    12. BD (   1) C   4 - H  19          1.98420    -0.54176  186(v),51(r),52(r),53(r)
                                                    155(r),68(r)
    20. BD (   1) O  10 - C  14          1.99127    -0.82372  51(r),53(r),164(v),189(v)
                                                    67(r),75(r),71(r),68(r)
                                                    52(r),82(r),74(r),66(r)
                                                    159(r)
    21. BD (   1) O  10 - C  15          1.98834    -0.80254  51(r),53(r),163(v),190(v)
                                                    185(v),159(r),67(r),143(r)
                                                    169(r),71(r),69(r),56(r)
                                                    75(r),74(r)
    31. BD (   1) C  14 - H  36          1.98170    -0.56778  165(v),51(r),78(v),53(r)
                                                    52(r),87(r),159(r),88(r)
                                                    86(r),71(r),75(r)
    32. BD (   1) C  14 - H  37          1.98289    -0.56657  166(v),51(r),175(v),53(r)
                                                    77(v),155(r),52(r),139(r)
                                                    68(r),66(r),67(r)
    33. BD (   1) C  15 - C  16          1.99336    -0.65006  53(r),174(v),101(v),51(r)
                                                    155(r),139(r),97(r)
    34. BD (   1) C  15 - H  38          1.98197    -0.55120  191(v),51(r),53(r),175(g)
                                                    52(r),68(r),73(r)
    35. BD (   1) C  15 - H  39          1.97369    -0.54541  174(v),192(v),53(r),51(r)
                                                    159(r),125(v),169(r),87(r)
                                                    88(r),69(r),143(r),110(r)
                                                    86(r),56(r),85(r),52(r)
                                                    170(r),135(r),75(r),66(r)
                                                    65(r),161(r)
    36. BD (   1) C  16 - H  40          1.97566    -0.52580  175(v),53(r),51(r),159(r)
    37. BD (   1) C  16 - H  41          1.98531    -0.52900  188(v),52(r),53(r),51(r)
                                                    67(r),71(r),139(r),68(r)
    38. BD (   1) C  16 - H  42          1.98736    -0.53358  189(v),121(v),53(r),51(r)
                                                    52(r)
    41. CR (   1) C   4                  1.99939   -10.10424  129(v),131(v),130(v),51(r)
                                                    52(r),53(r)
    44. CR (   1) O  10                  1.99986   -19.04363  51(r),53(r),122(v),119(v)
                                                    155(r),159(r)
    48. CR (   1) C  14                  1.99916   -10.18704  174(g),51(r),175(v),79(v)
                                                    148(v),149(v),53(r),52(r)
    49. CR (   1) C  15                  1.99916   -10.16856  175(g),53(r),174(v),127(v)
                                                    51(r),151(v),150(v),52(r)
    50. CR (   1) C  16                  1.99937   -10.09033  152(v),123(v),153(v),154(v)
                                                    53(r),51(r)
    63. LP (   1) O  10                  1.95301    -0.37177  186(v),187(v),188(v),163(v)
                                                    185(v),52(r),53(r),155(r)
                                                    51(r),134(r)
    64. LP (   2) O  10                  1.92445    -0.65834  51(r),53(r),155(r),67(r)
                                                    189(v),68(r),185(v),122(v)
                                                    117(v),66(r),71(r),74(r)
                                                    52(r),73(r),70(r),82(r)
                                                    75(r),87(r),81(r),137(r)
                                                    88(r),139(r),162(r),173(r)
    77. RY*(   1) C   4                  0.00272     0.35339   
    78. RY*(   2) C   4                  0.00190     0.28633   
    79. RY*(   3) C   4                  0.00069     0.36945   
    80. RY*(   4) C   4                  0.00026     0.99259   
   101. RY*(   1) O  10                  0.00300     0.84155   
   102. RY*(   2) O  10                  0.00138     1.15220   
   103. RY*(   3) O  10                  0.00053     1.06976   
   104. RY*(   4) O  10                  0.00027     1.72957   
   117. RY*(   1) C  14                  0.00413     0.47295   
   118. RY*(   2) C  14                  0.00241     0.42317   
   119. RY*(   3) C  14                  0.00139     0.29960   
   120. RY*(   4) C  14                  0.00072     0.98883   
   121. RY*(   1) C  15                  0.00405     0.48287   
   122. RY*(   2) C  15                  0.00243     0.37774   
   123. RY*(   3) C  15                  0.00186     0.37421   
   124. RY*(   4) C  15                  0.00076     1.05639   
   125. RY*(   1) C  16                  0.00254     0.26121   
   126. RY*(   2) C  16                  0.00189     0.35850   
   127. RY*(   3) C  16                  0.00077     0.56069   
   128. RY*(   4) C  16                  0.00004     0.77521   
   129. RY*(   1) H  17                  0.00070     0.83424   
   130. RY*(   1) H  18                  0.00122     1.05757   
   131. RY*(   1) H  19                  0.00145     0.89988   
   148. RY*(   1) H  36                  0.00198     0.85742   
   149. RY*(   1) H  37                  0.00178     0.88246   
   150. RY*(   1) H  38                  0.00181     0.84940   
   151. RY*(   1) H  39                  0.00187     1.00718   
   152. RY*(   1) H  40                  0.00079     0.84362   
   153. RY*(   1) H  41                  0.00121     0.90817   
   154. RY*(   1) H  42                  0.00115     0.86617   
   163. BD*(   1) C   4 - C  14          0.00813     0.31725   
   164. BD*(   1) C   4 - H  17          0.00519     0.43669   
   165. BD*(   1) C   4 - H  18          0.00953     0.42633   
   166. BD*(   1) C   4 - H  19          0.00837     0.43200   
   174. BD*(   1) O  10 - C  14          0.03442     0.15405   
   175. BD*(   1) O  10 - C  15          0.03579     0.14815   
   185. BD*(   1) C  14 - H  36          0.01785     0.42330   
   186. BD*(   1) C  14 - H  37          0.02020     0.42125   
   187. BD*(   1) C  15 - C  16          0.01309     0.33076   
   188. BD*(   1) C  15 - H  38          0.01839     0.44502   
   189. BD*(   1) C  15 - H  39          0.01903     0.45786   
   190. BD*(   1) C  16 - H  40          0.00457     0.45094   
   191. BD*(   1) C  16 - H  41          0.00821     0.44094   
   192. BD*(   1) C  16 - H  42          0.00845     0.43301   
       -------------------------------
              Total Lewis   41.65198  ( 99.3823%)
        Valence non-Lewis    0.21121  (  0.5039%)
        Rydberg non-Lewis    0.04770  (  0.1138%)
       -------------------------------
            Total unit  3   41.91088  (100.0000%)
           Charge unit  3    0.08912

 Molecular unit  4  (C4H10O)
    13. BD (   1) O   5 - C   9          1.99056    -0.82348  53(r),51(r),176(v),110(v)
                                                    180(v),68(r),67(r),159(r)
                                                    71(r),69(r),75(r),134(r)
                                                    52(r)
    14. BD (   1) O   5 - C  12          1.99020    -0.81325  53(r),51(r),182(v),173(v)
                                                    52(r),159(r),68(r),67(r)
                                                    73(r),71(r),56(r),75(r)
                                                    137(r)
    17. BD (   1) C   9 - C  11          1.99316    -0.66439  53(r),168(v),81(v),51(r)
                                                    155(r),52(r)
    18. BD (   1) C   9 - H  26          1.98234    -0.56736  177(v),51(r),53(r),106(v)
                                                    159(r),87(r),88(r),65(r)
                                                    170(r),86(r),66(r),155(r)
    19. BD (   1) C   9 - H  27          1.97559    -0.56738  168(v),178(v),51(r),53(r)
                                                    105(v),52(r),67(r),68(r)
                                                    123(r),66(r),155(r),137(r)
                                                    56(r),126(r),65(r),71(r)
                                                    149(r),130(r)
    22. BD (   1) C  11 - H  28          1.97741    -0.54391  167(v),53(r),51(r)
    23. BD (   1) C  11 - H  29          1.98702    -0.54619  172(v),51(r),53(r)
    24. BD (   1) C  11 - H  30          1.98698    -0.54805  173(v),97(v),51(r),53(r)
    25. BD (   1) C  12 - C  13          1.99377    -0.65017  53(r),51(r),167(v),52(r)
                                                    159(r),87(r),88(r),75(r)
                                                    170(r),86(r),71(r),56(r)
                                                    66(r)
    26. BD (   1) C  12 - H  31          1.97571    -0.55905  167(v),183(v),53(r),113(v)
                                                    155(r),67(r),51(r),52(r)
                                                    134(r),68(r),151(r),169(r)
                                                    66(r),137(r),157(r),122(r)
    27. BD (   1) C  12 - H  32          1.98399    -0.56450  184(v),53(r),168(g),155(r)
                                                    51(r)
    28. BD (   1) C  13 - H  33          1.97379    -0.52039  168(v),53(r)
    29. BD (   1) C  13 - H  34          1.98631    -0.52681  180(v),109(v),53(r)
    30. BD (   1) C  13 - H  35          1.98269    -0.51560  181(v),53(r),159(r),170(r)
                                                    87(r),88(r),68(r),56(r)
                                                    66(r),67(r),169(r),136(r)
                                                    86(r)
    42. CR (   1) O   5                  1.99986   -19.04730  53(r),51(r),98(v),110(v)
                                                    155(r),52(r),159(r)
    43. CR (   1) C   9                  1.99919   -10.18703  167(g),53(r),168(v),107(v)
                                                    51(r),138(v)
    45. CR (   1) C  11                  1.99936   -10.10691  140(v),142(v),141(v),99(v)
                                                    100(v),53(r),51(r)
    46. CR (   1) C  12                  1.99917   -10.17945  53(r),168(g),167(v),115(v)
                                                    144(v),143(v),51(r),52(r)
                                                    155(r)
    47. CR (   1) C  13                  1.99936   -10.08233  147(v),145(v),146(v),112(v)
                                                    53(r)
    54. LP (   1) O   5                  1.95293    -0.37691  179(v),171(v),172(v),181(v)
                                                    52(r),51(r),155(r),165(r)
                                                    68(r),71(r),53(r),67(r)
                                                    75(r),160(r),86(r),169(r)
                                                    102(r),136(r),161(r)
    55. LP (   2) O   5                  1.92750    -0.65862  51(r),53(r),155(r),173(v)
                                                    180(v),67(r),98(v),68(r)
                                                    110(v),171(v),109(v),181(v)
                                                    66(r),74(r),87(r),70(r)
                                                    71(r),102(r),73(r),75(r)
                                                    88(r),103(r),130(r),159(r)
                                                    161(r)
    81. RY*(   1) O   5                  0.00276     0.89169   
    82. RY*(   2) O   5                  0.00137     1.20035   
    83. RY*(   3) O   5                  0.00052     0.99385   
    84. RY*(   4) O   5                  0.00029     1.74237   
    97. RY*(   1) C   9                  0.00470     0.50005   
    98. RY*(   2) C   9                  0.00254     0.37612   
    99. RY*(   3) C   9                  0.00132     0.38107   
   100. RY*(   4) C   9                  0.00074     0.99662   
   105. RY*(   1) C  11                  0.00215     0.26591   
   106. RY*(   2) C  11                  0.00191     0.28856   
   107. RY*(   3) C  11                  0.00081     0.54529   
   108. RY*(   4) C  11                  0.00006     0.77438   
   109. RY*(   1) C  12                  0.00448     0.52331   
   110. RY*(   2) C  12                  0.00215     0.42821   
   111. RY*(   3) C  12                  0.00119     0.33624   
   112. RY*(   4) C  12                  0.00066     0.98714   
   113. RY*(   1) C  13                  0.00264     0.28060   
   114. RY*(   2) C  13                  0.00188     0.34283   
   115. RY*(   3) C  13                  0.00086     0.55006   
   116. RY*(   4) C  13                  0.00009     0.83387   
   138. RY*(   1) H  26                  0.00186     0.88145   
   139. RY*(   1) H  27                  0.00157     0.99449   
   140. RY*(   1) H  28                  0.00072     0.81749   
   141. RY*(   1) H  29                  0.00115     0.90056   
   142. RY*(   1) H  30                  0.00104     0.85133   
   143. RY*(   1) H  31                  0.00159     0.98912   
   144. RY*(   1) H  32                  0.00193     0.86243   
   145. RY*(   1) H  33                  0.00076     0.85169   
   146. RY*(   1) H  34                  0.00105     0.87789   
   147. RY*(   1) H  35                  0.00145     0.97231   
   167. BD*(   1) O   5 - C   9          0.03606     0.14856   
   168. BD*(   1) O   5 - C  12          0.04000     0.14224   
   171. BD*(   1) C   9 - C  11          0.01356     0.31359   
   172. BD*(   1) C   9 - H  26          0.01901     0.43438   
   173. BD*(   1) C   9 - H  27          0.01412     0.42683   
   176. BD*(   1) C  11 - H  28          0.00451     0.43022   
   177. BD*(   1) C  11 - H  29          0.00786     0.42104   
   178. BD*(   1) C  11 - H  30          0.00834     0.42393   
   179. BD*(   1) C  12 - C  13          0.01269     0.32796   
   180. BD*(   1) C  12 - H  31          0.01397     0.44090   
   181. BD*(   1) C  12 - H  32          0.01908     0.43677   
   182. BD*(   1) C  13 - H  33          0.00444     0.45237   
   183. BD*(   1) C  13 - H  34          0.00821     0.44093   
   184. BD*(   1) C  13 - H  35          0.01092     0.46699   
       -------------------------------
              Total Lewis   41.65690  ( 99.3821%)
        Valence non-Lewis    0.21276  (  0.5076%)
        Rydberg non-Lewis    0.04624  (  0.1103%)
       -------------------------------
            Total unit  4   41.91589  (100.0000%)
           Charge unit  4    0.08411
 1\1\GINC-CX1-12-6-7\SP\RB3LYP\LANL2DZ\C10H26I2Mg2O2\SCAN-USER-1\15-Mar
 -2010\0\\# rb3lyp/lanl2dz pop=(nbo,full) geom=connectivity\\[No Title]
 \\0,1\Mg,0,1.393315,0.024395,0.133355\C,0,0.136752,-0.216701,1.901207\
 C,0,0.239313,-0.0142,-1.724682\C,0,4.099239,1.02989,1.940108\O,0,2.679
 917,-1.542575,-0.014221\Mg,0,-1.313256,-0.009429,0.041454\I,0,-2.27428
 9,2.56223,0.107348\I,0,-2.5972,-2.399947,-0.127291\C,0,3.405373,-1.808
 643,-1.285335\O,0,2.516703,1.721112,0.171499\C,0,4.917627,-1.924178,-1
 .082067\C,0,2.559752,-2.706267,0.922809\C,0,1.583923,-3.771682,0.42074
 1\C,0,3.867322,1.947336,0.740365\C,0,1.864224,2.954609,-0.384907\C,0,2
 .52015,3.415944,-1.684894\H,0,5.096308,1.221994,2.35661\H,0,4.053506,-
 0.026544,1.654442\H,0,3.359828,1.220969,2.725776\H,0,0.000157,-1.26589
 2,2.210485\H,0,-0.731399,0.33169,2.310854\H,0,0.959284,0.187456,2.5286
 45\H,0,-0.683524,0.394928,-2.173794\H,0,0.316841,-1.043257,-2.11618\H,
 0,1.017516,0.581689,-2.246026\H,0,2.98341,-2.711953,-1.73884\H,0,3.158
 927,-0.960221,-1.93125\H,0,5.404814,-2.036812,-2.059262\H,0,5.320135,-
 1.024943,-0.601618\H,0,5.190355,-2.795244,-0.476067\H,0,2.20691,-2.261
 298,1.857\H,0,3.567651,-3.106036,1.082564\H,0,1.488046,-4.551911,1.187
 389\H,0,1.931241,-4.257139,-0.498654\H,0,0.585857,-3.355394,0.245183\H
 ,0,3.92189,2.999284,1.046399\H,0,4.605152,1.774229,-0.053169\H,0,1.912
 812,3.719802,0.399739\H,0,0.813135,2.688463,-0.531876\H,0,1.977136,4.2
 90835,-2.06409\H,0,2.468983,2.633293,-2.450414\H,0,3.568247,3.706447,-
 1.542885\\Version=EM64L-G09RevA.02\State=1-A\HF=-571.7490723\RMSD=7.28
 9e-09\Dipole=7.8292339,-0.1229614,0.0048658\Quadrupole=5.2583653,-3.48
 03718,-1.7779935,-0.9720392,-0.1546256,-1.4410974\PG=C01 [X(C10H26I2Mg
 2O2)]\\@


 WE MIGHT AS WELL ATTEMPT TO INTRODUCE A NEW PLANET 
 INTO THE SOLAR SYSTEM, OR TO ANNIHILATE ONE ALREADYIN EXISTENCE, 
 AS TO CREATE OR DESTROY A PARTICLE OF HYDROGEN.
 ALL THE CHANGES WE CAN PRODUCE CONSIST IN SEPARATING PARTICLES
 THAT ARE IN A STATE OF ... COMBINATION, AND JOINING 
 THOSE THAT WERE PREVIOUSLY AT A DISTANCE.

                                    -- JOHN DALTON, 1810
 Job cpu time:  0 days  0 hours  5 minutes 17.9 seconds.
 File lengths (MBytes):  RWF=     22 Int=      0 D2E=      0 Chk=      2 Scr=      1
 Normal termination of Gaussian 09 at Mon Mar 15 16:21:01 2010.
