 Entering Gaussian System, Link 0=g03
 Initial command:
 /apps/gaussian/g09/g09/l1.exe /home/scan-user-1/run/26202/Gau-17192.inp -scrdir=/home/scan-user-1/run/26202/
 Entering Link 1 = /apps/gaussian/g09/g09/l1.exe PID=     17193.
  
 Copyright (c) 1988,1990,1992,1993,1995,1998,2003,2009, Gaussian, Inc.
                  All Rights Reserved.
  
 This is part of the Gaussian(R) 09 program.  It is based on
 the Gaussian(R) 03 system (copyright 2003, Gaussian, Inc.),
 the Gaussian(R) 98 system (copyright 1998, Gaussian, Inc.),
 the Gaussian(R) 94 system (copyright 1995, Gaussian, Inc.),
 the Gaussian 92(TM) system (copyright 1992, Gaussian, Inc.),
 the Gaussian 90(TM) system (copyright 1990, Gaussian, Inc.),
 the Gaussian 88(TM) system (copyright 1988, Gaussian, Inc.),
 the Gaussian 86(TM) system (copyright 1986, Carnegie Mellon
 University), and the Gaussian 82(TM) system (copyright 1983,
 Carnegie Mellon University). Gaussian is a federally registered
 trademark of Gaussian, Inc.
  
 This software contains proprietary and confidential information,
 including trade secrets, belonging to Gaussian, Inc.
  
 This software is provided under written license and may be
 used, copied, transmitted, or stored only in accord with that
 written license.
  
 The following legend is applicable only to US Government
 contracts under FAR:
  
                    RESTRICTED RIGHTS LEGEND
  
 Use, reproduction and disclosure by the US Government is
 subject to restrictions as set forth in subparagraphs (a)
 and (c) of the Commercial Computer Software - Restricted
 Rights clause in FAR 52.227-19.
  
 Gaussian, Inc.
 340 Quinnipiac St., Bldg. 40, Wallingford CT 06492
  
  
 ---------------------------------------------------------------
 Warning -- This program may not be used in any manner that
 competes with the business of Gaussian, Inc. or will provide
 assistance to any competitor of Gaussian, Inc.  The licensee
 of this program is prohibited from giving any competitor of
 Gaussian, Inc. access to this program.  By using this program,
 the user acknowledges that Gaussian, Inc. is engaged in the
 business of creating and licensing software in the field of
 computational chemistry and represents and warrants to the
 licensee that it is not a competitor of Gaussian, Inc. and that
 it will not use this program in any manner prohibited above.
 ---------------------------------------------------------------
  

 Cite this work as:
 Gaussian 09, Revision A.02,
 M. J. Frisch, G. W. Trucks, H. B. Schlegel, G. E. Scuseria, 
 M. A. Robb, J. R. Cheeseman, G. Scalmani, V. Barone, B. Mennucci, 
 G. A. Petersson, H. Nakatsuji, M. Caricato, X. Li, H. P. Hratchian, 
 A. F. Izmaylov, J. Bloino, G. Zheng, J. L. Sonnenberg, M. Hada, 
 M. Ehara, K. Toyota, R. Fukuda, J. Hasegawa, M. Ishida, T. Nakajima, 
 Y. Honda, O. Kitao, H. Nakai, T. Vreven, J. A. Montgomery, Jr., 
 J. E. Peralta, F. Ogliaro, M. Bearpark, J. J. Heyd, E. Brothers, 
 K. N. Kudin, V. N. Staroverov, R. Kobayashi, J. Normand, 
 K. Raghavachari, A. Rendell, J. C. Burant, S. S. Iyengar, J. Tomasi, 
 M. Cossi, N. Rega, J. M. Millam, M. Klene, J. E. Knox, J. B. Cross, 
 V. Bakken, C. Adamo, J. Jaramillo, R. Gomperts, R. E. Stratmann, 
 O. Yazyev, A. J. Austin, R. Cammi, C. Pomelli, J. W. Ochterski, 
 R. L. Martin, K. Morokuma, V. G. Zakrzewski, G. A. Voth, 
 P. Salvador, J. J. Dannenberg, S. Dapprich, A. D. Daniels, 
 O. Farkas, J. B. Foresman, J. V. Ortiz, J. Cioslowski, 
 and D. J. Fox, Gaussian, Inc., Wallingford CT, 2009.
 
 ******************************************
 Gaussian 09:  EM64L-G09RevA.02 11-Jun-2009
                15-Mar-2010 
 ******************************************
 %nprocshared=4
 Will use up to    4 processors via shared memory.
 %mem=7000MB
 %NoSave
 %Chk=chk.chk
 %rwf=/tmp/pbs.3646415.cx1/rwf
 ------------------------------------------
 # opt=qst2 freq hf/3-21g geom=connectivity
 ------------------------------------------
 1/5=1,18=20,27=202,38=1,57=2/1,3;
 2/9=110,12=2,17=6,18=5,40=1/2;
 3/5=5,11=9,16=1,25=1,30=1,71=1/1,2,3;
 4//1;
 5/5=2,38=5/2;
 6/7=2,8=2,9=2,10=2,28=1/1;
 7//1,2,3,16;
 1/5=1,18=20,27=202/3(2);
 2/9=110/2;
 99//99;
 2/9=110/2;
 3/5=5,11=9,16=1,25=1,30=1,71=1/1,2,3;
 4/5=5,16=3/1;
 5/5=2,38=5/2;
 7//1,2,3,16;
 1/5=1,18=20,27=202/3(-5);
 2/9=110/2;
 6/7=2,8=2,9=2,10=2,19=2,28=1/1;
 99/9=1/99;
 ----------------------
 Boat Ts Optimisation 1
 ----------------------
 Symbolic Z-matrix:
 Charge =  0 Multiplicity = 1
 C
 H                    1    B1
 H                    1    B2       2    A1
 C                    1    B3       3    A2       2    D1       0
 H                    4    B4       1    A3       3    D2       0
 C                    4    B5       1    A4       3    D3       0
 H                    6    B6       4    A5       1    D4       0
 C                    6    B7       4    A6       1    D5       0
 H                    8    B8       6    A7       4    D6       0
 H                    8    B9       6    A8       4    D7       0
 C                    4    B10      1    A9       6    D8       0
 H                    11   B11      4    A10      1    D9       0
 H                    11   B12      4    A11      1    D10      0
 C                    6    B13      4    A12      1    D11      0
 H                    14   B14      6    A13      4    D12      0
 H                    14   B15      6    A14      4    D13      0
       Variables:
  B1                    1.0885                   
  B2                    1.08683                  
  B3                    1.33349                  
  B4                    1.09188                  
  B5                    3.87753                  
  B6                    1.09188                  
  B7                    1.33349                  
  B8                    1.0885                   
  B9                    1.08683                  
  B10                   1.50413                  
  B11                   1.09799                  
  B12                   1.09972                  
  B13                   1.50413                  
  B14                   1.09799                  
  B15                   1.09972                  
  A1                  116.47788                  
  A2                  121.86025                  
  A3                  118.96489                  
  A4                  132.90698                  
  A5                  103.94487                  
  A6                  132.90698                  
  A7                  121.66129                  
  A8                  121.86025                  
  A9                  125.31457                  
  A10                 109.75747                  
  A11                 109.77197                  
  A12                  21.61771                  
  A13                 109.75747                  
  A14                 109.77197                  
  D1                 -179.72613                  
  D2                   -0.39056                  
  D3                 -153.3301                   
  D4                  -24.21194                  
  D5                  180.                       
  D6                  -26.95791                  
  D7                  153.3301                   
  D8                  -26.23554                  
  D9                   -3.96449                  
  D10                -120.86589                  
  D11                 101.72969                  
  D12                 122.45596                  
  D13                -120.64264                  
 
 -------------------
 Title Card Required
 -------------------
 Symbolic Z-matrix:
 Charge =  0 Multiplicity = 1
 C
 H                    1    B1
 H                    1    B2       2    A1
 C                    1    B3       2    A2       3    D1       0
 H                    4    B4       1    A3       2    D2       0
 C                    1    B5       2    A4       3    D3       0
 H                    6    B6       1    A5       2    D4       0
 C                    6    B7       4    A6       5    D5       0
 H                    6    B8       1    A7       4    D6       0
 H                    6    B9       1    A8       4    D7       0
 C                    4    B10      6    A9       8    D8       0
 H                    4    B11      6    A10      7    D9       0
 H                    4    B12      6    A11      7    D10      0
 C                    6    B13      8    A12      1    D11      0
 H                    14   B14      6    A13      8    D12      0
 H                    14   B15      6    A14      8    D13      0
       Variables:
  B1                    1.09799                  
  B2                    1.09972                  
  B3                    1.50413                  
  B4                    1.09188                  
  B5                    2.54037                  
  B6                    1.09188                  
  B7                    1.50413                  
  B8                    2.14116                  
  B9                    2.14264                  
  B10                   1.33349                  
  B11                   2.11821                  
  B12                   2.11882                  
  B13                   1.33349                  
  B14                   1.0885                   
  B15                   1.08683                  
  A1                  106.64055                  
  A2                  109.75747                  
  A3                  115.71583                  
  A4                   90.25678                  
  A5                   96.36849                  
  A6                   21.61771                  
  A7                   54.64808                  
  A8                   54.15236                  
  A9                  132.90698                  
  A10                 109.06681                  
  A11                 153.89094                  
  A12                 125.31457                  
  A13                 121.66129                  
  A14                 121.86025                  
  D1                  118.84895                  
  D2                 -176.8366                   
  D3                  -89.47798                  
  D4                    0.32928                  
  D5                   54.05837                  
  D6                  -29.95328                  
  D7                   30.84126                  
  D8                 -101.72969                  
  D9                   12.10154                  
  D10                  50.59307                  
  D11                 118.49147                  
  D12                   0.72237                  
  D13                -179.56563                  
 
 Iteration  1 RMS(Cart)=  0.14972477 RMS(Int)=  0.66508792
 Iteration  2 RMS(Cart)=  0.13991756 RMS(Int)=  0.58862489
 Iteration  3 RMS(Cart)=  0.12305064 RMS(Int)=  0.51755203
 Iteration  4 RMS(Cart)=  0.09571706 RMS(Int)=  0.45314233
 Iteration  5 RMS(Cart)=  0.08228780 RMS(Int)=  0.39379900
 Iteration  6 RMS(Cart)=  0.07590944 RMS(Int)=  0.33859645
 Iteration  7 RMS(Cart)=  0.07173253 RMS(Int)=  0.28745095
 Iteration  8 RMS(Cart)=  0.06800062 RMS(Int)=  0.24093143
 Iteration  9 RMS(Cart)=  0.06373011 RMS(Int)=  0.20054233
 Iteration 10 RMS(Cart)=  0.05740915 RMS(Int)=  0.16762944
 Iteration 11 RMS(Cart)=  0.05163054 RMS(Int)=  0.14282480
 Iteration 12 RMS(Cart)=  0.04115817 RMS(Int)=  0.12689439
 Iteration 13 RMS(Cart)=  0.02789663 RMS(Int)=  0.11623740
 Iteration 14 RMS(Cart)=  0.02755079 RMS(Int)=  0.10861395
 Iteration 15 RMS(Cart)=  0.02658923 RMS(Int)=  0.10394019
 Iteration 16 RMS(Cart)=  0.02495567 RMS(Int)=  0.10205655
 Iteration 17 RMS(Cart)=  0.00726018 RMS(Int)=  0.10199014
 Iteration 18 RMS(Cart)=  0.00041208 RMS(Int)=  0.10199277
 Iteration 19 RMS(Cart)=  0.00012816 RMS(Int)=  0.10199259
 Iteration 20 RMS(Cart)=  0.00004278 RMS(Int)=  0.10199218
 Iteration 21 RMS(Cart)=  0.00001532 RMS(Int)=  0.10199193
 Iteration 22 RMS(Cart)=  0.00000566 RMS(Int)=  0.10199182
 Iteration 23 RMS(Cart)=  0.00000212 RMS(Int)=  0.10199177
 Iteration 24 RMS(Cart)=  0.00000080 RMS(Int)=  0.10199175

 GradGradGradGradGradGradGradGradGradGradGradGradGradGradGradGradGradGrad
 Berny optimization.
 Initialization pass.
                           ----------------------------
                           !    Initial Parameters    !
                           ! (Angstroms and Degrees)  !
 --------------------------                            --------------------------
 ! Name  Definition        TS        Reactant  Product Derivative Info.         !
 --------------------------------------------------------------------------------
 ! R1    R(1,2)             1.0932    1.0885    1.098  estimate D2E/DX2         !
 ! R2    R(1,3)             1.0933    1.0868    1.0997 estimate D2E/DX2         !
 ! R3    R(1,4)             1.3801    1.3335    1.5041 estimate D2E/DX2         !
 ! R4    R(4,5)             1.0919    1.0919    1.0919 estimate D2E/DX2         !
 ! R5    R(4,11)            1.3801    1.5041    1.3335 estimate D2E/DX2         !
 ! R6    R(6,7)             1.0919    1.0919    1.0919 estimate D2E/DX2         !
 ! R7    R(6,8)             1.3801    1.3335    1.5041 estimate D2E/DX2         !
 ! R8    R(6,14)            1.3801    1.5041    1.3335 estimate D2E/DX2         !
 ! R9    R(8,9)             1.0932    1.0885    1.098  estimate D2E/DX2         !
 ! R10   R(8,10)            1.0933    1.0868    1.0997 estimate D2E/DX2         !
 ! R11   R(11,12)           1.0932    1.098     1.0885 estimate D2E/DX2         !
 ! R12   R(11,13)           1.0933    1.0997    1.0868 estimate D2E/DX2         !
 ! R13   R(11,14)           3.8116    1.5481    6.0191 estimate D2E/DX2         !
 ! R14   R(14,15)           1.0932    1.098     1.0885 estimate D2E/DX2         !
 ! R15   R(14,16)           1.0933    1.0997    1.0868 estimate D2E/DX2         !
 ! R16   R(1,8)             3.8116    6.0191    1.5481 estimate D2E/DX2         !
 ! A1    A(2,1,3)         112.8264  116.4779  106.6405 estimate D2E/DX2         !
 ! A2    A(2,1,4)         130.534   121.6613  109.7575 estimate D2E/DX2         !
 ! A3    A(3,1,4)         112.219   121.8603  109.772  estimate D2E/DX2         !
 ! A4    A(1,4,5)         119.1193  118.9649  115.7158 estimate D2E/DX2         !
 ! A5    A(1,4,11)        121.6942  125.3146  125.3146 estimate D2E/DX2         !
 ! A6    A(5,4,11)        119.1193  115.7158  118.9649 estimate D2E/DX2         !
 ! A7    A(7,6,8)         119.1193  118.9649  115.7158 estimate D2E/DX2         !
 ! A8    A(7,6,14)        119.1193  115.7158  118.9649 estimate D2E/DX2         !
 ! A9    A(8,6,14)        121.6942  125.3146  125.3146 estimate D2E/DX2         !
 ! A10   A(6,8,9)         130.534   121.6613  109.7575 estimate D2E/DX2         !
 ! A11   A(6,8,10)        112.219   121.8603  109.772  estimate D2E/DX2         !
 ! A12   A(9,8,10)        112.8264  116.4779  106.6405 estimate D2E/DX2         !
 ! A13   A(4,11,12)       130.5341  109.7575  121.6613 estimate D2E/DX2         !
 ! A14   A(4,11,13)       112.2189  109.772   121.8603 estimate D2E/DX2         !
 ! A15   A(4,11,14)        55.1086  112.6646   28.155  estimate D2E/DX2         !
 ! A16   A(12,11,13)      112.8263  106.6405  116.4779 estimate D2E/DX2         !
 ! A17   A(12,11,14)      100.5213  109.6211   96.0156 estimate D2E/DX2         !
 ! A18   A(13,11,14)      137.5786  108.1945  145.4387 estimate D2E/DX2         !
 ! A19   A(6,14,11)        55.1086  112.6646   28.155  estimate D2E/DX2         !
 ! A20   A(6,14,15)       130.5341  109.7575  121.6613 estimate D2E/DX2         !
 ! A21   A(6,14,16)       112.2189  109.772   121.8603 estimate D2E/DX2         !
 ! A22   A(11,14,15)      100.5213  109.6211   96.0156 estimate D2E/DX2         !
 ! A23   A(11,14,16)      137.5786  108.1945  145.4387 estimate D2E/DX2         !
 ! A24   A(15,14,16)      112.8263  106.6405  116.4779 estimate D2E/DX2         !
 ! A25   A(2,1,8)         100.5212   96.0156  109.6211 estimate D2E/DX2         !
 ! A26   A(3,1,8)         137.5786  145.4387  108.1945 estimate D2E/DX2         !
 ! A27   A(4,1,8)          55.1086   28.155   112.6646 estimate D2E/DX2         !
 ! A28   A(1,8,6)          55.1086   28.155   112.6646 estimate D2E/DX2         !
 ! A29   A(1,8,9)         100.5212   96.0156  109.6211 estimate D2E/DX2         !
 ! A30   A(1,8,10)        137.5786  145.4387  108.1945 estimate D2E/DX2         !
 ! D1    D(2,1,4,5)       178.7471  179.8974 -176.8366 estimate D2E/DX2         !
 ! D2    D(2,1,4,11)        1.7577    0.7224    3.9645 estimate D2E/DX2         !
 ! D3    D(3,1,4,5)       -27.0066   -0.3906  -59.9352 estimate D2E/DX2         !
 ! D4    D(3,1,4,11)      156.0041 -179.5656  120.8659 estimate D2E/DX2         !
 ! D5    D(1,4,11,12)      -1.7577   -3.9645   -0.7224 estimate D2E/DX2         !
 ! D6    D(1,4,11,13)    -156.0041 -120.8659  179.5656 estimate D2E/DX2         !
 ! D7    D(1,4,11,14)      70.5785  118.4915   26.2355 estimate D2E/DX2         !
 ! D8    D(5,4,11,12)    -178.7471  176.8366 -179.8974 estimate D2E/DX2         !
 ! D9    D(5,4,11,13)      27.0066   59.9352    0.3906 estimate D2E/DX2         !
 ! D10   D(5,4,11,14)    -106.4108  -60.7074 -152.9395 estimate D2E/DX2         !
 ! D11   D(7,6,8,9)      -178.7471 -179.8974  176.8366 estimate D2E/DX2         !
 ! D12   D(7,6,8,10)       27.0066    0.3906   59.9352 estimate D2E/DX2         !
 ! D13   D(14,6,8,9)       -1.7577   -0.7224   -3.9645 estimate D2E/DX2         !
 ! D14   D(14,6,8,10)    -156.0041  179.5656 -120.8659 estimate D2E/DX2         !
 ! D15   D(7,6,14,11)     106.4108   60.7074  152.9395 estimate D2E/DX2         !
 ! D16   D(7,6,14,15)     178.7471 -176.8366  179.8974 estimate D2E/DX2         !
 ! D17   D(7,6,14,16)     -27.0066  -59.9352   -0.3906 estimate D2E/DX2         !
 ! D18   D(8,6,14,11)     -70.5785 -118.4915  -26.2355 estimate D2E/DX2         !
 ! D19   D(8,6,14,15)       1.7577    3.9645    0.7224 estimate D2E/DX2         !
 ! D20   D(8,6,14,16)     156.0041  120.8659 -179.5656 estimate D2E/DX2         !
 ! D21   D(4,11,14,6)    -180.0     180.0     180.0    estimate D2E/DX2         !
 ! D22   D(4,11,14,15)     47.4401   57.4674   22.8302 estimate D2E/DX2         !
 ! D23   D(4,11,14,16)    -94.5737  -58.4575 -137.7774 estimate D2E/DX2         !
 ! D24   D(12,11,14,6)    -47.4401  -57.4674  -22.8302 estimate D2E/DX2         !
 ! D25   D(12,11,14,15)   180.0     180.0     180.0    estimate D2E/DX2         !
 ! D26   D(12,11,14,16)    37.9861   64.0751   19.3925 estimate D2E/DX2         !
 ! D27   D(13,11,14,6)     94.5737   58.4575  137.7774 estimate D2E/DX2         !
 ! D28   D(13,11,14,15)   -37.9861  -64.0751  -19.3925 estimate D2E/DX2         !
 ! D29   D(13,11,14,16)   180.0     180.0     180.0    estimate D2E/DX2         !
 ! D30   D(8,1,4,5)       106.4108  152.9395   60.7074 estimate D2E/DX2         !
 ! D31   D(8,1,4,11)      -70.5785  -26.2355 -118.4915 estimate D2E/DX2         !
 ! D32   D(2,1,8,6)        47.4402   22.8302   57.4674 estimate D2E/DX2         !
 ! D33   D(2,1,8,9)       180.0     180.0     180.0    estimate D2E/DX2         !
 ! D34   D(2,1,8,10)      -37.9861  -19.3925  -64.0751 estimate D2E/DX2         !
 ! D35   D(3,1,8,6)       -94.5737 -137.7774  -58.4575 estimate D2E/DX2         !
 ! D36   D(3,1,8,9)        37.9861   19.3925   64.0751 estimate D2E/DX2         !
 ! D37   D(3,1,8,10)      180.0     180.0     180.0    estimate D2E/DX2         !
 ! D38   D(4,1,8,6)       180.0     180.0     180.0    estimate D2E/DX2         !
 ! D39   D(4,1,8,9)       -47.4402  -22.8302  -57.4674 estimate D2E/DX2         !
 ! D40   D(4,1,8,10)       94.5737  137.7774   58.4575 estimate D2E/DX2         !
 ! D41   D(7,6,8,1)      -106.4108 -152.9395  -60.7074 estimate D2E/DX2         !
 ! D42   D(14,6,8,1)       70.5785   26.2355  118.4915 estimate D2E/DX2         !
 --------------------------------------------------------------------------------
 Trust Radius=3.00D-01 FncErr=1.00D-07 GrdErr=1.00D-07
 Number of steps in this run=  98 maximum allowed number of steps= 100.
 Search for a saddle point of order  1.
 GradGradGradGradGradGradGradGradGradGradGradGradGradGradGradGradGradGrad

                          Input orientation:                          
 ---------------------------------------------------------------------
 Center     Atomic      Atomic             Coordinates (Angstroms)
 Number     Number       Type             X           Y           Z
 ---------------------------------------------------------------------
      1          6           0       -1.060265    0.337775   -0.058393
      2          1           0       -0.968893    0.557750    1.008583
      3          1           0       -0.132358    0.514488   -0.608853
      4          6           0       -1.908823   -0.520437   -0.727797
      5          1           0       -1.852974   -0.580871   -1.816575
      6          6           0       -3.943051    1.780077    0.097001
      7          1           0       -3.998900    1.840511    1.185778
      8          6           0       -4.791609    0.921864   -0.572403
      9          1           0       -4.882981    0.701890   -1.639379
     10          1           0       -5.719516    0.745151   -0.021943
     11          6           0       -2.866810   -1.258197   -0.062474
     12          1           0       -3.099080   -1.324141    1.003770
     13          1           0       -3.155186   -2.155996   -0.615682
     14          6           0       -2.985065    2.517836   -0.568322
     15          1           0       -2.752794    2.583781   -1.634566
     16          1           0       -2.696688    3.415636   -0.015114
 ---------------------------------------------------------------------
                    Distance matrix (angstroms):
                    1          2          3          4          5
     1  C    0.000000
     2  H    1.093240   0.000000
     3  H    1.093273   1.821472   0.000000
     4  C    1.380102   2.249660   2.059380   0.000000
     5  H    2.136235   3.171683   2.370427   1.091883   0.000000
     6  C    3.227203   3.342257   4.076926   3.179739   3.688396
     7  H    3.527287   3.295120   4.464211   3.688396   4.413866
     8  C    3.811600   4.152741   4.677168   3.227203   3.527287
     9  H    4.152741   4.727850   4.864722   3.342257   3.295120
    10  H    4.677168   4.864722   5.622633   4.076926   4.464211
    11  C    2.410549   2.836708   3.304265   1.380102   2.136235
    12  H    2.836710   2.842399   3.844808   2.249661   3.171683
    13  H    3.304264   3.844806   4.033488   2.059379   2.370426
    14  C    2.952549   3.223898   3.486112   3.227203   3.527286
    15  H    3.223898   3.778008   3.492956   3.342258   3.295121
    16  H    3.486112   3.492957   3.917266   4.076926   4.464211
                    6          7          8          9         10
     6  C    0.000000
     7  H    1.091883   0.000000
     8  C    1.380102   2.136235   0.000000
     9  H    2.249660   3.171683   1.093240   0.000000
    10  H    2.059380   2.370427   1.093272   1.821472   0.000000
    11  C    3.227203   3.527286   2.952549   3.223898   3.486112
    12  H    3.342258   3.295121   3.223898   3.778008   3.492956
    13  H    4.076926   4.464211   3.486112   3.492957   3.917266
    14  C    1.380102   2.136235   2.410549   2.836708   3.304265
    15  H    2.249661   3.171683   2.836710   2.842399   3.844808
    16  H    2.059379   2.370426   3.304264   3.844806   4.033488
                   11         12         13         14         15
    11  C    0.000000
    12  H    1.093240   0.000000
    13  H    1.093272   1.821471   0.000000
    14  C    3.811600   4.152742   4.677168   0.000000
    15  H    4.152742   4.727853   4.864723   1.093240   0.000000
    16  H    4.677168   4.864723   5.622632   1.093273   1.821471
                   16
    16  H    0.000000
 Stoichiometry    C6H10
 Framework group  CI[X(C6H10)]
 Deg. of freedom    21
 Full point group                 CI      NOp   2
 Largest Abelian subgroup         CI      NOp   2
 Largest concise Abelian subgroup CI      NOp   2
                         Standard orientation:                         
 ---------------------------------------------------------------------
 Center     Atomic      Atomic             Coordinates (Angstroms)
 Number     Number       Type             X           Y           Z
 ---------------------------------------------------------------------
      1          6           0        1.865672   -0.292044    0.257005
      2          1           0        1.957044   -0.072070    1.323981
      3          1           0        2.793579   -0.115331   -0.293455
      4          6           0        1.017114   -1.150257   -0.412399
      5          1           0        1.072963   -1.210691   -1.501176
      6          6           0       -1.017114    1.150257    0.412399
      7          1           0       -1.072963    1.210691    1.501176
      8          6           0       -1.865672    0.292044   -0.257005
      9          1           0       -1.957044    0.072070   -1.323981
     10          1           0       -2.793579    0.115331    0.293455
     11          6           0        0.059128   -1.888017    0.252924
     12          1           0       -0.173143   -1.953961    1.319168
     13          1           0       -0.229249   -2.785816   -0.300284
     14          6           0       -0.059128    1.888017   -0.252924
     15          1           0        0.173143    1.953961   -1.319168
     16          1           0        0.229249    2.785816    0.300284
 ---------------------------------------------------------------------
 Rotational constants (GHZ):      4.4578414      2.4659559      1.8042203
 Standard basis: 3-21G (6D, 7F)
 There are    37 symmetry adapted basis functions of AG  symmetry.
 There are    37 symmetry adapted basis functions of AU  symmetry.
 Integral buffers will be    131072 words long.
 Raffenetti 1 integral format.
 Two-electron integral symmetry is turned on.
    74 basis functions,   120 primitive gaussians,    74 cartesian basis functions
    23 alpha electrons       23 beta electrons
       nuclear repulsion energy       211.3929678692 Hartrees.
 NAtoms=   16 NActive=   16 NUniq=    8 SFac= 3.00D+00 NAtFMM=   80 NAOKFM=F Big=F
 One-electron integrals computed using PRISM.
 NBasis=    74 RedAO= T  NBF=    37    37
 NBsUse=    74 1.00D-06 NBFU=    37    37
 Harris functional with IExCor=  205 diagonalized for initial guess.
 ExpMin= 1.83D-01 ExpMax= 1.72D+02 ExpMxC= 1.72D+02 IAcc=1 IRadAn=         1 AccDes= 0.00D+00
 HarFok:  IExCor=  205 AccDes= 0.00D+00 IRadAn=         1 IDoV= 1
 ScaDFX=  1.000000  1.000000  1.000000  1.000000
 FoFCou: FMM=F IPFlag=           0 FMFlag=      100000 FMFlg1=           0
         NFxFlg=           0 DoJE=T BraDBF=F KetDBF=T FulRan=T
         Omega=  0.000000  0.000000  1.000000  0.000000  0.000000 ICntrl=     500 IOpCl=  0
         NMat0=    1 NMatS0=    1 NMatT0=    0 NMatD0=    1 NMtDS0=    0 NMtDT0=    0
         I1Cent=           4 NGrid=           0.
 Petite list used in FoFCou.
 Initial guess orbital symmetries:
       Occupied  (AU) (AG) (AG) (AU) (AU) (AG) (AG) (AU) (AU) (AG)
                 (AU) (AG) (AG) (AU) (AG) (AU) (AG) (AU) (AU) (AG)
                 (AG) (AU) (AU)
       Virtual   (AG) (AG) (AU) (AU) (AG) (AU) (AU) (AG) (AG) (AG)
                 (AU) (AG) (AU) (AU) (AG) (AG) (AU) (AG) (AU) (AG)
                 (AU) (AG) (AU) (AU) (AG) (AU) (AG) (AG) (AU) (AU)
                 (AG) (AG) (AU) (AG) (AG) (AU) (AU) (AU) (AU) (AG)
                 (AG) (AG) (AU) (AG) (AU) (AG) (AU) (AU) (AG) (AG)
                 (AU)
 The electronic state of the initial guess is 1-AG.
 Requested convergence on RMS density matrix=1.00D-08 within 128 cycles.
 Requested convergence on MAX density matrix=1.00D-06.
 Requested convergence on             energy=1.00D-06.
 No special actions if energy rises.
 Keep R1 ints in memory in canonical form, NReq=4687432.
 SCF Done:  E(RHF) =  -231.515179684     A.U. after   11 cycles
             Convg  =    0.2007D-08             -V/T =  2.0040

 **********************************************************************

            Population analysis using the SCF density.

 **********************************************************************

 Orbital symmetries:
       Occupied  (AG) (AU) (AU) (AG) (AU) (AG) (AG) (AU) (AU) (AG)
                 (AU) (AG) (AG) (AU) (AG) (AU) (AG) (AU) (AU) (AG)
                 (AG) (AU) (AU)
       Virtual   (AG) (AG) (AU) (AU) (AG) (AU) (AU) (AG) (AG) (AG)
                 (AU) (AG) (AU) (AG) (AU) (AG) (AU) (AU) (AG) (AG)
                 (AU) (AG) (AU) (AU) (AG) (AU) (AG) (AG) (AU) (AU)
                 (AG) (AG) (AU) (AG) (AG) (AU) (AU) (AU) (AU) (AG)
                 (AG) (AU) (AG) (AG) (AU) (AG) (AU) (AU) (AG) (AG)
                 (AU)
 The electronic state is 1-AG.
 Alpha  occ. eigenvalues --  -11.17728 -11.17688 -11.17673 -11.17648 -11.17198
 Alpha  occ. eigenvalues --  -11.17169  -1.06881  -1.05463  -0.90930  -0.89505
 Alpha  occ. eigenvalues --   -0.74691  -0.74470  -0.63581  -0.63335  -0.60669
 Alpha  occ. eigenvalues --   -0.60134  -0.51612  -0.50728  -0.50100  -0.49562
 Alpha  occ. eigenvalues --   -0.43771  -0.34982  -0.21557
 Alpha virt. eigenvalues --    0.04939   0.19949   0.24927   0.28413   0.29075
 Alpha virt. eigenvalues --    0.31370   0.31565   0.32266   0.33739   0.37435
 Alpha virt. eigenvalues --    0.37771   0.39563   0.41656   0.52256   0.52655
 Alpha virt. eigenvalues --    0.58799   0.60201   0.86234   0.87576   0.92406
 Alpha virt. eigenvalues --    0.92453   0.96311   0.99022   1.03745   1.04135
 Alpha virt. eigenvalues --    1.05105   1.10482   1.10705   1.13834   1.14050
 Alpha virt. eigenvalues --    1.18230   1.23768   1.26765   1.29183   1.33035
 Alpha virt. eigenvalues --    1.33126   1.33225   1.37757   1.39035   1.39116
 Alpha virt. eigenvalues --    1.39817   1.48213   1.48258   1.57160   1.63124
 Alpha virt. eigenvalues --    1.67306   1.80676   1.80867   1.99655   2.08856
 Alpha virt. eigenvalues --    2.15231
          Condensed to atoms (all electrons):
              1          2          3          4          5          6
     1  C    5.282787   0.389671   0.384615   0.431714  -0.038205  -0.005320
     2  H    0.389671   0.454709  -0.027874  -0.033562   0.001374   0.000056
     3  H    0.384615  -0.027874   0.509031  -0.062459  -0.003153   0.000022
     4  C    0.431714  -0.033562  -0.062459   5.207898   0.408533  -0.015691
     5  H   -0.038205   0.001374  -0.003153   0.408533   0.440360   0.000097
     6  C   -0.005320   0.000056   0.000022  -0.015691   0.000097   5.207898
     7  H    0.000095   0.000088   0.000000   0.000097   0.000003   0.408533
     8  C   -0.003865   0.000054  -0.000006  -0.005320   0.000095   0.431714
     9  H    0.000054   0.000001   0.000000   0.000056   0.000088  -0.033562
    10  H   -0.000006   0.000000   0.000000   0.000022   0.000000  -0.062459
    11  C   -0.111839  -0.000371   0.004033   0.431714  -0.038205  -0.005320
    12  H   -0.000371   0.000817   0.000013  -0.033562   0.001374   0.000056
    13  H    0.004033   0.000013  -0.000137  -0.062459  -0.003153   0.000022
    14  C    0.063153  -0.000946   0.000360  -0.005320   0.000095   0.431714
    15  H   -0.000946   0.000010   0.000014   0.000056   0.000088  -0.033562
    16  H    0.000360   0.000014  -0.000001   0.000022   0.000000  -0.062459
              7          8          9         10         11         12
     1  C    0.000095  -0.003865   0.000054  -0.000006  -0.111839  -0.000371
     2  H    0.000088   0.000054   0.000001   0.000000  -0.000371   0.000817
     3  H    0.000000  -0.000006   0.000000   0.000000   0.004033   0.000013
     4  C    0.000097  -0.005320   0.000056   0.000022   0.431714  -0.033562
     5  H    0.000003   0.000095   0.000088   0.000000  -0.038205   0.001374
     6  C    0.408533   0.431714  -0.033562  -0.062459  -0.005320   0.000056
     7  H    0.440360  -0.038205   0.001374  -0.003153   0.000095   0.000088
     8  C   -0.038205   5.282787   0.389671   0.384615   0.063153  -0.000946
     9  H    0.001374   0.389671   0.454709  -0.027874  -0.000946   0.000010
    10  H   -0.003153   0.384615  -0.027874   0.509031   0.000360   0.000014
    11  C    0.000095   0.063153  -0.000946   0.000360   5.282787   0.389671
    12  H    0.000088  -0.000946   0.000010   0.000014   0.389671   0.454709
    13  H    0.000000   0.000360   0.000014  -0.000001   0.384615  -0.027874
    14  C   -0.038205  -0.111839  -0.000371   0.004033  -0.003865   0.000054
    15  H    0.001374  -0.000371   0.000817   0.000013   0.000054   0.000001
    16  H   -0.003153   0.004033   0.000013  -0.000137  -0.000006   0.000000
             13         14         15         16
     1  C    0.004033   0.063153  -0.000946   0.000360
     2  H    0.000013  -0.000946   0.000010   0.000014
     3  H   -0.000137   0.000360   0.000014  -0.000001
     4  C   -0.062459  -0.005320   0.000056   0.000022
     5  H   -0.003153   0.000095   0.000088   0.000000
     6  C    0.000022   0.431714  -0.033562  -0.062459
     7  H    0.000000  -0.038205   0.001374  -0.003153
     8  C    0.000360  -0.111839  -0.000371   0.004033
     9  H    0.000014  -0.000371   0.000817   0.000013
    10  H   -0.000001   0.004033   0.000013  -0.000137
    11  C    0.384615  -0.003865   0.000054  -0.000006
    12  H   -0.027874   0.000054   0.000001   0.000000
    13  H    0.509032  -0.000006   0.000000   0.000000
    14  C   -0.000006   5.282787   0.389671   0.384615
    15  H    0.000000   0.389671   0.454709  -0.027874
    16  H    0.000000   0.384615  -0.027874   0.509032
 Mulliken atomic charges:
              1
     1  C   -0.395928
     2  H    0.215949
     3  H    0.195542
     4  C   -0.261737
     5  H    0.230611
     6  C   -0.261737
     7  H    0.230611
     8  C   -0.395928
     9  H    0.215949
    10  H    0.195542
    11  C   -0.395928
    12  H    0.215949
    13  H    0.195542
    14  C   -0.395928
    15  H    0.215949
    16  H    0.195542
 Sum of Mulliken atomic charges =   0.00000
 Mulliken charges with hydrogens summed into heavy atoms:
              1
     1  C    0.015563
     4  C   -0.031126
     6  C   -0.031126
     8  C    0.015563
    11  C    0.015563
    14  C    0.015563
 Sum of Mulliken charges with hydrogens summed into heavy atoms =   0.00000
 Electronic spatial extent (au):  <R**2>=            731.5921
 Charge=              0.0000 electrons
 Dipole moment (field-independent basis, Debye):
    X=              0.0000    Y=              0.0000    Z=              0.0000  Tot=              0.0000
 Quadrupole moment (field-independent basis, Debye-Ang):
   XX=            -39.1881   YY=            -39.5012   ZZ=            -34.9399
   XY=              1.2476   XZ=             -0.6027   YZ=              0.6742
 Traceless Quadrupole moment (field-independent basis, Debye-Ang):
   XX=             -1.3117   YY=             -1.6248   ZZ=              2.9365
   XY=              1.2476   XZ=             -0.6027   YZ=              0.6742
 Octapole moment (field-independent basis, Debye-Ang**2):
  XXX=              0.0000  YYY=              0.0000  ZZZ=              0.0000  XYY=              0.0000
  XXY=              0.0000  XXZ=              0.0000  XZZ=              0.0000  YZZ=              0.0000
  YYZ=              0.0000  XYZ=              0.0000
 Hexadecapole moment (field-independent basis, Debye-Ang**3):
 XXXX=           -425.7072 YYYY=           -463.3139 ZZZZ=            -91.1522 XXXY=             70.6482
 XXXZ=             -5.2011 YYYX=             80.4549 YYYZ=              6.7869 ZZZX=             -2.6012
 ZZZY=              2.6698 XXYY=           -174.0144 XXZZ=            -84.4538 YYZZ=            -89.6034
 XXYZ=              4.6277 YYXZ=             -5.2442 ZZXY=             20.6909
 N-N= 2.113929678692D+02 E-N=-9.604650548643D+02  KE= 2.305903368807D+02
 Symmetry AG   KE= 1.140814158522D+02
 Symmetry AU   KE= 1.165089210284D+02
 Calling FoFJK, ICntrl=      2127 FMM=F ISym2X=1 I1Cent= 0 IOpClX= 0 NMat=1 NMatS=1 NMatT=0.
 ***** Axes restored to original set *****
 -------------------------------------------------------------------
 Center     Atomic                   Forces (Hartrees/Bohr)
 Number     Number              X              Y              Z
 -------------------------------------------------------------------
      1        6           0.021289484    0.018579075   -0.024006370
      2        1          -0.013784684   -0.013043498   -0.014303639
      3        1          -0.011027701    0.017017711    0.006031682
      4        6          -0.006191251    0.006902611    0.041319685
      5        1           0.006427680   -0.007314688    0.015216174
      6        6           0.006191251   -0.006902611   -0.041319685
      7        1          -0.006427680    0.007314688   -0.015216174
      8        6          -0.021289484   -0.018579075    0.024006370
      9        1           0.013784684    0.013043498    0.014303639
     10        1           0.011027701   -0.017017711   -0.006031682
     11        6          -0.021001452   -0.018782486   -0.024102116
     12        1           0.014680023    0.012103385   -0.014239258
     13        1          -0.015543451    0.013028320    0.006021441
     14        6           0.021001452    0.018782486    0.024102116
     15        1          -0.014680023   -0.012103385    0.014239258
     16        1           0.015543451   -0.013028320   -0.006021441
 -------------------------------------------------------------------
 Cartesian Forces:  Max     0.041319685 RMS     0.016948222

 GradGradGradGradGradGradGradGradGradGradGradGradGradGradGradGradGradGrad
 Berny optimization.
 Internal  Forces:  Max     0.034035278 RMS     0.011670604
 Search for a saddle point.
 Step number   1 out of a maximum of   98
 All quantities printed in internal units (Hartrees-Bohrs-Radians)
 Second derivative matrix not updated -- first step.
 LST/QST climbing along tangent vector
     Eigenvalues ---    0.00487   0.00988   0.01050   0.01882   0.02060
     Eigenvalues ---    0.02062   0.02149   0.02170   0.02354   0.02354
     Eigenvalues ---    0.02911   0.03324   0.03351   0.03476   0.06830
     Eigenvalues ---    0.06998   0.10186   0.10312   0.10612   0.10796
     Eigenvalues ---    0.11313   0.12127   0.13365   0.13525   0.15969
     Eigenvalues ---    0.15977   0.16727   0.21573   0.34437   0.34437
     Eigenvalues ---    0.34437   0.34437   0.34441   0.34441   0.34441
     Eigenvalues ---    0.34441   0.34596   0.34596   0.43884   0.46073
     Eigenvalues ---    0.49084   0.490841000.000001000.000001000.00000
     Eigenvalues --- 1000.000001000.000001000.000001000.000001000.00000
     Eigenvalues --- 1000.000001000.000001000.000001000.000001000.00000
     Eigenvalues --- 1000.000001000.000001000.000001000.000001000.00000
     Eigenvalues --- 1000.000001000.000001000.000001000.000001000.00000
     Eigenvalues --- 1000.000001000.000001000.000001000.000001000.00000
     Eigenvalues --- 1000.000001000.000001000.000001000.000001000.00000
     Eigenvalues --- 1000.000001000.000001000.000001000.000001000.00000
     Eigenvalues --- 1000.000001000.000001000.000001000.000001000.00000
     Eigenvalues --- 1000.000001000.000001000.00000
 Eigenvectors required to have negative eigenvalues:
                          D37       D29       D35       D40       D27
   1                    0.25940   0.25940   0.23466   0.23466   0.23466
                          D23       D36       D34       D28       D26
   1                    0.23466   0.22925   0.22925   0.22925   0.22925
 QST in optimization variable space.
 Eigenvectors 1 and   4 swapped, overlap=  1.0000
                        Tangent   TS vect  // Eig F  Eigenval
   1         R1         0.00130   0.00130   0.00000   0.01882
   2         R2         0.00176   0.00176  -0.01842   0.00988
   3         R3         0.03747   0.03747   0.00000   0.01050
   4         R4         0.00000   0.00000   0.00000   0.00487
   5         R5        -0.03747  -0.03747   0.00000   0.02060
   6         R6         0.00000   0.00000  -0.01151   0.02062
   7         R7         0.03747   0.03747   0.00000   0.02149
   8         R8        -0.03747  -0.03747   0.00000   0.02170
   9         R9         0.00130   0.00130   0.00585   0.02354
  10         R10        0.00176   0.00176   0.00000   0.02354
  11         R11       -0.00130  -0.00130   0.00994   0.02911
  12         R12       -0.00176  -0.00176   0.00000   0.03324
  13         R13        0.64203   0.64203   0.00000   0.03351
  14         R14       -0.00130  -0.00130   0.00000   0.03476
  15         R15       -0.00176  -0.00176   0.00000   0.06830
  16         R16       -0.64203  -0.64203   0.01469   0.06998
  17         A1        -0.00867  -0.00867   0.00000   0.10186
  18         A2        -0.00426  -0.00426   0.00000   0.10312
  19         A3        -0.01243  -0.01243  -0.00499   0.10612
  20         A4        -0.00251  -0.00251   0.00000   0.10796
  21         A5         0.00000   0.00000   0.00000   0.11313
  22         A6         0.00251   0.00251   0.00000   0.12127
  23         A7        -0.00251  -0.00251  -0.02074   0.13365
  24         A8         0.00251   0.00251   0.00000   0.13525
  25         A9         0.00000   0.00000   0.00000   0.15969
  26         A10       -0.00426  -0.00426   0.00000   0.15977
  27         A11       -0.01243  -0.01243   0.00000   0.16727
  28         A12       -0.00867  -0.00867   0.03310   0.21573
  29         A13        0.00426   0.00426   0.00000   0.34437
  30         A14        0.01243   0.01243   0.00000   0.34437
  31         A15       -0.08524  -0.08524  -0.00965   0.34437
  32         A16        0.00867   0.00867   0.00000   0.34437
  33         A17        0.00222   0.00222   0.00000   0.34441
  34         A18        0.01813   0.01813  -0.00001   0.34441
  35         A19       -0.08524  -0.08524  -0.01774   0.34441
  36         A20        0.00426   0.00426  -0.00002   0.34441
  37         A21        0.01243   0.01243  -0.00838   0.34596
  38         A22        0.00222   0.00222  -0.00583   0.34596
  39         A23        0.01813   0.01813   0.01065   0.43884
  40         A24        0.00867   0.00867   0.00000   0.46073
  41         A25       -0.00222  -0.00222   0.00000   0.49084
  42         A26       -0.01813  -0.01813   0.00000   0.49084
  43         A27        0.08524   0.08524   0.000001000.00000
  44         A28        0.08524   0.08524   0.000001000.00000
  45         A29       -0.00222  -0.00222   0.000001000.00000
  46         A30       -0.01813  -0.01813   0.000001000.00000
  47         D1         0.01189   0.01189   0.000001000.00000
  48         D2         0.01182   0.01182   0.000001000.00000
  49         D3        -0.06078  -0.06078   0.000001000.00000
  50         D4        -0.06085  -0.06085   0.000001000.00000
  51         D5         0.01182   0.01182   0.000001000.00000
  52         D6        -0.06085  -0.06085   0.000001000.00000
  53         D7        -0.08421  -0.08421   0.000001000.00000
  54         D8         0.01189   0.01189   0.000001000.00000
  55         D9        -0.06078  -0.06078   0.000001000.00000
  56         D10       -0.08414  -0.08414   0.000001000.00000
  57         D11       -0.01189  -0.01189   0.000001000.00000
  58         D12        0.06078   0.06078   0.000001000.00000
  59         D13       -0.01182  -0.01182   0.000001000.00000
  60         D14        0.06085   0.06085   0.000001000.00000
  61         D15        0.08414   0.08414   0.000001000.00000
  62         D16       -0.01189  -0.01189   0.000001000.00000
  63         D17        0.06078   0.06078   0.000001000.00000
  64         D18        0.08421   0.08421   0.000001000.00000
  65         D19       -0.01182  -0.01182   0.000001000.00000
  66         D20        0.06085   0.06085   0.000001000.00000
  67         D21        0.00000   0.00000   0.000001000.00000
  68         D22       -0.03683  -0.03683   0.000001000.00000
  69         D23       -0.09174  -0.09174   0.000001000.00000
  70         D24        0.03683   0.03683   0.000001000.00000
  71         D25        0.00000   0.00000   0.000001000.00000
  72         D26       -0.05492  -0.05492   0.000001000.00000
  73         D27        0.09174   0.09174   0.000001000.00000
  74         D28        0.05492   0.05492   0.000001000.00000
  75         D29        0.00000   0.00000   0.000001000.00000
  76         D30       -0.08414  -0.08414   0.000001000.00000
  77         D31       -0.08421  -0.08421   0.000001000.00000
  78         D32        0.03683   0.03683   0.000001000.00000
  79         D33        0.00000   0.00000   0.000001000.00000
  80         D34       -0.05492  -0.05492   0.000001000.00000
  81         D35        0.09174   0.09174   0.000001000.00000
  82         D36        0.05492   0.05492   0.000001000.00000
  83         D37        0.00000   0.00000   0.000001000.00000
  84         D38        0.00000   0.00000   0.000001000.00000
  85         D39       -0.03683  -0.03683   0.000001000.00000
  86         D40       -0.09174  -0.09174   0.000001000.00000
  87         D41        0.08414   0.08414   0.000001000.00000
  88         D42        0.08421   0.08421   0.000001000.00000
 RFO step:  Lambda0=1.882011294D-02 Lambda=-2.60484224D-02.
 Linear search not attempted -- option 19 set.
 Maximum step size (   0.300) exceeded in Quadratic search.
    -- Step size scaled by   0.387
 Iteration  1 RMS(Cart)=  0.05082702 RMS(Int)=  0.00390486
 Iteration  2 RMS(Cart)=  0.00593766 RMS(Int)=  0.00027079
 Iteration  3 RMS(Cart)=  0.00000709 RMS(Int)=  0.00027076
 Iteration  4 RMS(Cart)=  0.00000000 RMS(Int)=  0.00027076
 ClnCor:  largest displacement from symmetrization is 1.26D-08 for atom    15.
 Variable       Old X    -DE/DX   Delta X   Delta X   Delta X     New X
                                 (Linear)    (Quad)   (Total)
    R1        2.06593  -0.01774   0.00000  -0.00947  -0.00947   2.05646
    R2        2.06599  -0.00965   0.00000  -0.00532  -0.00532   2.06067
    R3        2.60801   0.01031   0.00000  -0.00267  -0.00309   2.60492
    R4        2.06336  -0.01444   0.00000  -0.00751  -0.00751   2.05585
    R5        2.60801   0.01031   0.00000   0.00916   0.00881   2.61682
    R6        2.06336  -0.01444   0.00000  -0.00751  -0.00751   2.05585
    R7        2.60801   0.01031   0.00000  -0.00267  -0.00309   2.60492
    R8        2.60801   0.01031   0.00000   0.00916   0.00881   2.61682
    R9        2.06593  -0.01774   0.00000  -0.00947  -0.00947   2.05646
   R10        2.06599  -0.00965   0.00000  -0.00532  -0.00532   2.06067
   R11        2.06593  -0.01774   0.00000  -0.00906  -0.00906   2.05687
   R12        2.06599  -0.00965   0.00000  -0.00476  -0.00476   2.06123
   R13        7.20288  -0.02465   0.00000  -0.23633  -0.23641   6.96647
   R14        2.06593  -0.01774   0.00000  -0.00906  -0.00906   2.05687
   R15        2.06599  -0.00965   0.00000  -0.00476  -0.00476   2.06123
   R16        7.20288  -0.02465   0.00000  -0.03364  -0.03300   7.16988
    A1        1.96919   0.00439   0.00000   0.00765   0.00758   1.97677
    A2        2.27825  -0.01558   0.00000  -0.02165  -0.02188   2.25636
    A3        1.95859   0.01476   0.00000   0.02566   0.02563   1.98422
    A4        2.07902  -0.01708   0.00000  -0.01270  -0.01258   2.06644
    A5        2.12396   0.03404   0.00000   0.02550   0.02512   2.14909
    A6        2.07902  -0.01708   0.00000  -0.01350  -0.01335   2.06567
    A7        2.07902  -0.01708   0.00000  -0.01270  -0.01258   2.06644
    A8        2.07902  -0.01708   0.00000  -0.01350  -0.01335   2.06567
    A9        2.12396   0.03404   0.00000   0.02550   0.02512   2.14909
   A10        2.27825  -0.01558   0.00000  -0.02165  -0.02188   2.25636
   A11        1.95859   0.01476   0.00000   0.02566   0.02563   1.98422
   A12        1.96919   0.00439   0.00000   0.00765   0.00758   1.97677
   A13        2.27825  -0.01558   0.00000  -0.02300  -0.02312   2.25513
   A14        1.95859   0.01476   0.00000   0.02174   0.02242   1.98101
   A15        0.96183  -0.01196   0.00000   0.00172   0.00100   0.96282
   A16        1.96919   0.00439   0.00000   0.00491   0.00458   1.97378
   A17        1.75443  -0.00525   0.00000  -0.00948  -0.00936   1.74507
   A18        2.40120   0.00099   0.00000  -0.00841  -0.00835   2.39285
   A19        0.96183  -0.01196   0.00000   0.00172   0.00100   0.96282
   A20        2.27825  -0.01558   0.00000  -0.02300  -0.02312   2.25513
   A21        1.95859   0.01476   0.00000   0.02174   0.02242   1.98101
   A22        1.75443  -0.00525   0.00000  -0.00948  -0.00936   1.74507
   A23        2.40120   0.00099   0.00000  -0.00841  -0.00835   2.39285
   A24        1.96919   0.00439   0.00000   0.00491   0.00458   1.97378
   A25        1.75443  -0.00525   0.00000  -0.00878  -0.00890   1.74553
   A26        2.40120   0.00099   0.00000  -0.00269  -0.00256   2.39864
   A27        0.96183  -0.01196   0.00000  -0.02519  -0.02543   0.93639
   A28        0.96183  -0.01196   0.00000  -0.02519  -0.02543   0.93639
   A29        1.75443  -0.00525   0.00000  -0.00878  -0.00890   1.74553
   A30        2.40120   0.00099   0.00000  -0.00269  -0.00256   2.39864
    D1        3.11972  -0.00292   0.00000   0.00092   0.00092   3.12065
    D2        0.03068   0.00027   0.00000   0.01697   0.01716   0.04784
    D3       -0.47135   0.00959   0.00000   0.03747   0.03746  -0.43389
    D4        2.72278   0.01278   0.00000   0.05352   0.05370   2.77648
    D5       -0.03068  -0.00027   0.00000  -0.02070  -0.02063  -0.05130
    D6       -2.72278  -0.01278   0.00000  -0.03431  -0.03471  -2.75749
    D7        1.23183  -0.00669   0.00000  -0.01138  -0.01192   1.21991
    D8       -3.11972   0.00292   0.00000  -0.00467  -0.00442  -3.12414
    D9        0.47135  -0.00959   0.00000  -0.01828  -0.01850   0.45285
   D10       -1.85722  -0.00350   0.00000   0.00465   0.00429  -1.85293
   D11       -3.11972   0.00292   0.00000  -0.00092  -0.00092  -3.12065
   D12        0.47135  -0.00959   0.00000  -0.03747  -0.03746   0.43389
   D13       -0.03068  -0.00027   0.00000  -0.01697  -0.01716  -0.04784
   D14       -2.72278  -0.01278   0.00000  -0.05352  -0.05370  -2.77648
   D15        1.85722   0.00350   0.00000  -0.00465  -0.00429   1.85293
   D16        3.11972  -0.00292   0.00000   0.00467   0.00442   3.12414
   D17       -0.47135   0.00959   0.00000   0.01828   0.01850  -0.45285
   D18       -1.23183   0.00669   0.00000   0.01138   0.01192  -1.21991
   D19        0.03068   0.00027   0.00000   0.02070   0.02063   0.05130
   D20        2.72278   0.01278   0.00000   0.03431   0.03471   2.75749
   D21        3.14159   0.00000   0.00000   0.00000   0.00000   3.14159
   D22        0.82799   0.01122   0.00000   0.02273   0.02268   0.85066
   D23       -1.65062   0.01020   0.00000   0.04509   0.04468  -1.60594
   D24       -0.82799  -0.01122   0.00000  -0.02273  -0.02268  -0.85066
   D25        3.14159   0.00000   0.00000   0.00000   0.00000   3.14159
   D26        0.66298  -0.00102   0.00000   0.02236   0.02201   0.68499
   D27        1.65062  -0.01020   0.00000  -0.04509  -0.04468   1.60594
   D28       -0.66298   0.00102   0.00000  -0.02236  -0.02201  -0.68499
   D29        3.14159   0.00000   0.00000   0.00000   0.00000   3.14159
   D30        1.85722   0.00350   0.00000   0.02192   0.02158   1.87880
   D31       -1.23183   0.00669   0.00000   0.03797   0.03782  -1.19401
   D32        0.82799   0.01122   0.00000   0.01110   0.01088   0.83886
   D33        3.14159   0.00000   0.00000   0.00000   0.00000   3.14159
   D34       -0.66298   0.00102   0.00000  -0.00502  -0.00510  -0.66809
   D35       -1.65062   0.01020   0.00000   0.01613   0.01598  -1.63464
   D36        0.66298  -0.00102   0.00000   0.00502   0.00510   0.66809
   D37        3.14159   0.00000   0.00000   0.00000   0.00000   3.14159
   D38        3.14159   0.00000   0.00000   0.00000   0.00000   3.14159
   D39       -0.82799  -0.01122   0.00000  -0.01110  -0.01088  -0.83886
   D40        1.65062  -0.01020   0.00000  -0.01613  -0.01598   1.63464
   D41       -1.85722  -0.00350   0.00000  -0.02192  -0.02158  -1.87880
   D42        1.23183  -0.00669   0.00000  -0.03797  -0.03782   1.19401
         Item               Value     Threshold  Converged?
 Maximum Force            0.034035     0.000450     NO 
 RMS     Force            0.011671     0.000300     NO 
 Maximum Displacement     0.155175     0.001800     NO 
 RMS     Displacement     0.055969     0.001200     NO 
 Predicted change in Energy=-1.881299D-02
 GradGradGradGradGradGradGradGradGradGradGradGradGradGradGradGradGradGrad

                          Input orientation:                          
 ---------------------------------------------------------------------
 Center     Atomic      Atomic             Coordinates (Angstroms)
 Number     Number       Type             X           Y           Z
 ---------------------------------------------------------------------
      1          6           0       -1.061851    0.380449   -0.066675
      2          1           0       -0.982277    0.596852    0.996849
      3          1           0       -0.143556    0.585674   -0.617781
      4          6           0       -1.920654   -0.476542   -0.721040
      5          1           0       -1.859129   -0.542628   -1.805195
      6          6           0       -3.931220    1.736181    0.090243
      7          1           0       -3.992745    1.802268    1.174399
      8          6           0       -4.790023    0.879191   -0.564121
      9          1           0       -4.869597    0.662788   -1.627645
     10          1           0       -5.708319    0.673965   -0.013015
     11          6           0       -2.909784   -1.197389   -0.073296
     12          1           0       -3.139548   -1.249003    0.989372
     13          1           0       -3.237301   -2.079438   -0.625080
     14          6           0       -2.942090    2.457028   -0.557501
     15          1           0       -2.712326    2.508643   -1.620168
     16          1           0       -2.614573    3.339077   -0.005717
 ---------------------------------------------------------------------
                    Distance matrix (angstroms):
                    1          2          3          4          5
     1  C    0.000000
     2  H    1.088231   0.000000
     3  H    1.090459   1.819508   0.000000
     4  C    1.378466   2.232457   2.072931   0.000000
     5  H    2.123717   3.149403   2.371964   1.087909   0.000000
     6  C    3.177407   3.288810   4.021364   3.097854   3.616521
     7  H    3.485969   3.247687   4.416817   3.616521   4.350728
     8  C    3.794136   4.124958   4.656039   3.177407   3.485969
     9  H    4.124958   4.690797   4.833347   3.288810   3.247687
    10  H    4.656039   4.833347   5.598225   4.021364   4.416817
    11  C    2.429912   2.842497   3.335835   1.384764   2.128864
    12  H    2.843796   2.839200   3.863283   2.237835   3.154052
    13  H    3.330982   3.857241   4.083398   2.076546   2.377775
    14  C    2.844010   3.117231   3.367105   3.110612   3.424542
    15  H    3.109119   3.673798   3.361721   3.216598   3.173710
    16  H    3.341878   3.345046   3.749904   3.943623   4.344705
                    6          7          8          9         10
     6  C    0.000000
     7  H    1.087909   0.000000
     8  C    1.378466   2.123717   0.000000
     9  H    2.232457   3.149403   1.088231   0.000000
    10  H    2.072931   2.371964   1.090459   1.819508   0.000000
    11  C    3.110612   3.424542   2.844010   3.117231   3.367105
    12  H    3.216598   3.173710   3.109119   3.673798   3.361721
    13  H    3.943623   4.344705   3.341878   3.345046   3.749904
    14  C    1.384764   2.128864   2.429912   2.842497   3.335835
    15  H    2.237835   3.154052   2.843796   2.839200   3.863283
    16  H    2.076546   2.377775   3.330982   3.857241   4.083398
                   11         12         13         14         15
    11  C    0.000000
    12  H    1.088447   0.000000
    13  H    1.090754   1.818139   0.000000
    14  C    3.686497   4.020755   4.546564   0.000000
    15  H    4.020755   4.594793   4.724012   1.088447   0.000000
    16  H    4.546564   4.724012   5.489236   1.090754   1.818139
                   16
    16  H    0.000000
 Stoichiometry    C6H10
 Framework group  CI[X(C6H10)]
 Deg. of freedom    21
 Full point group                 CI      NOp   2
 Largest Abelian subgroup         CI      NOp   2
 Largest concise Abelian subgroup CI      NOp   2
                         Standard orientation:                         
 ---------------------------------------------------------------------
 Center     Atomic      Atomic             Coordinates (Angstroms)
 Number     Number       Type             X           Y           Z
 ---------------------------------------------------------------------
      1          6           0        1.864086   -0.249371    0.248723
      2          1           0        1.943660   -0.032968    1.312247
      3          1           0        2.782382   -0.044146   -0.302383
      4          6           0        1.005283   -1.106362   -0.405641
      5          1           0        1.066808   -1.172448   -1.489797
      6          6           0       -1.005283    1.106362    0.405641
      7          1           0       -1.066808    1.172448    1.489797
      8          6           0       -1.864086    0.249371   -0.248723
      9          1           0       -1.943660    0.032968   -1.312247
     10          1           0       -2.782382    0.044146    0.302383
     11          6           0        0.016153   -1.827208    0.242102
     12          1           0       -0.213611   -1.878823    1.304770
     13          1           0       -0.311364   -2.709258   -0.309682
     14          6           0       -0.016153    1.827208   -0.242102
     15          1           0        0.213611    1.878823   -1.304770
     16          1           0        0.311364    2.709258    0.309682
 ---------------------------------------------------------------------
 Rotational constants (GHZ):      4.4260109      2.6304416      1.8776080
 Standard basis: 3-21G (6D, 7F)
 There are    37 symmetry adapted basis functions of AG  symmetry.
 There are    37 symmetry adapted basis functions of AU  symmetry.
 Integral buffers will be    131072 words long.
 Raffenetti 1 integral format.
 Two-electron integral symmetry is turned on.
    74 basis functions,   120 primitive gaussians,    74 cartesian basis functions
    23 alpha electrons       23 beta electrons
       nuclear repulsion energy       213.5194975764 Hartrees.
 NAtoms=   16 NActive=   16 NUniq=    8 SFac= 3.00D+00 NAtFMM=   80 NAOKFM=F Big=F
 One-electron integrals computed using PRISM.
 NBasis=    74 RedAO= T  NBF=    37    37
 NBsUse=    74 1.00D-06 NBFU=    37    37
 Initial guess read from the read-write file.
 B after Tr=     0.000000    0.000000    0.000000
         Rot=    1.000000    0.000000    0.000000    0.000000 Ang=   0.00 deg.
 Initial guess orbital symmetries:
       Occupied  (AG) (AU) (AU) (AG) (AU) (AG) (AG) (AU) (AU) (AG)
                 (AU) (AG) (AG) (AU) (AG) (AU) (AG) (AU) (AU) (AG)
                 (AG) (AU) (AU)
       Virtual   (AG) (AG) (AU) (AU) (AG) (AU) (AU) (AG) (AG) (AG)
                 (AU) (AG) (AU) (AG) (AU) (AG) (AU) (AU) (AG) (AG)
                 (AU) (AG) (AU) (AU) (AG) (AU) (AG) (AG) (AU) (AU)
                 (AG) (AG) (AU) (AG) (AG) (AU) (AU) (AU) (AU) (AG)
                 (AG) (AU) (AG) (AG) (AU) (AG) (AU) (AU) (AG) (AG)
                 (AU)
 Harris functional with IExCor=  205 diagonalized for initial guess.
 ExpMin= 1.83D-01 ExpMax= 1.72D+02 ExpMxC= 1.72D+02 IAcc=1 IRadAn=         1 AccDes= 0.00D+00
 HarFok:  IExCor=  205 AccDes= 0.00D+00 IRadAn=         1 IDoV= 1
 ScaDFX=  1.000000  1.000000  1.000000  1.000000
 FoFCou: FMM=F IPFlag=           0 FMFlag=      100000 FMFlg1=           0
         NFxFlg=           0 DoJE=T BraDBF=F KetDBF=T FulRan=T
         Omega=  0.000000  0.000000  1.000000  0.000000  0.000000 ICntrl=     500 IOpCl=  0
         NMat0=    1 NMatS0=    1 NMatT0=    0 NMatD0=    1 NMtDS0=    0 NMtDT0=    0
         I1Cent=           4 NGrid=           0.
 Petite list used in FoFCou.
 Requested convergence on RMS density matrix=1.00D-08 within 128 cycles.
 Requested convergence on MAX density matrix=1.00D-06.
 Requested convergence on             energy=1.00D-06.
 No special actions if energy rises.
 Keep R1 ints in memory in canonical form, NReq=4687432.
 SCF Done:  E(RHF) =  -231.534183762     A.U. after   11 cycles
             Convg  =    0.1858D-08             -V/T =  2.0039
 Calling FoFJK, ICntrl=      2127 FMM=F ISym2X=1 I1Cent= 0 IOpClX= 0 NMat=1 NMatS=1 NMatT=0.
 ***** Axes restored to original set *****
 -------------------------------------------------------------------
 Center     Atomic                   Forces (Hartrees/Bohr)
 Number     Number              X              Y              Z
 -------------------------------------------------------------------
      1        6           0.012033989    0.018379015   -0.021152264
      2        1          -0.011491867   -0.011704915   -0.011050164
      3        1          -0.010693551    0.014365810    0.004887430
      4        6          -0.006777515    0.000369635    0.036280569
      5        1           0.005973688   -0.007258002    0.011763915
      6        6           0.006777515   -0.000369635   -0.036280569
      7        1          -0.005973688    0.007258002   -0.011763915
      8        6          -0.012033989   -0.018379015    0.021152264
      9        1           0.011491867    0.011704915    0.011050164
     10        1           0.010693551   -0.014365810   -0.004887430
     11        6          -0.016918245   -0.010460142   -0.023209874
     12        1           0.013396908    0.009900382   -0.011028597
     13        1          -0.012461630    0.012771882    0.004673131
     14        6           0.016918245    0.010460142    0.023209874
     15        1          -0.013396908   -0.009900382    0.011028597
     16        1           0.012461630   -0.012771882   -0.004673131
 -------------------------------------------------------------------
 Cartesian Forces:  Max     0.036280569 RMS     0.014330377

 GradGradGradGradGradGradGradGradGradGradGradGradGradGradGradGradGradGrad
 Berny optimization.
 Internal  Forces:  Max     0.026636863 RMS     0.009858430
 Search for a saddle point.
 Step number   2 out of a maximum of   98
 All quantities printed in internal units (Hartrees-Bohrs-Radians)
 Update second derivatives using D2CorX and points    1    2
 LST/QST climbing along tangent vector
     Eigenvalues ---   -0.00062   0.00497   0.01039   0.01966   0.02077
     Eigenvalues ---    0.02165   0.02183   0.02319   0.02355   0.02364
     Eigenvalues ---    0.02891   0.03313   0.03323   0.03431   0.06789
     Eigenvalues ---    0.06920   0.10155   0.10188   0.10520   0.10748
     Eigenvalues ---    0.11463   0.12258   0.13301   0.13588   0.15953
     Eigenvalues ---    0.15963   0.16884   0.21878   0.34389   0.34437
     Eigenvalues ---    0.34437   0.34437   0.34441   0.34441   0.34441
     Eigenvalues ---    0.34482   0.34596   0.34638   0.43676   0.46118
     Eigenvalues ---    0.49084   0.490841000.000001000.000001000.00000
     Eigenvalues --- 1000.000001000.000001000.000001000.000001000.00000
     Eigenvalues --- 1000.000001000.000001000.000001000.000001000.00000
     Eigenvalues --- 1000.000001000.000001000.000001000.000001000.00000
     Eigenvalues --- 1000.000001000.000001000.000001000.000001000.00000
     Eigenvalues --- 1000.000001000.000001000.000001000.000001000.00000
     Eigenvalues --- 1000.000001000.000001000.000001000.000001000.00000
     Eigenvalues --- 1000.000001000.000001000.000001000.000001000.00000
     Eigenvalues --- 1000.000001000.000001000.000001000.000001000.00000
     Eigenvalues --- 1000.000001000.000001000.00000
 Eigenvectors required to have negative eigenvalues:
                          R13       R16       D31       D42       D7
   1                    0.65252   0.64673  -0.11504   0.11504   0.11426
                          D18       D4        D14       D19       D5
   1                   -0.11426  -0.09750   0.09750  -0.09316   0.09316
 QST in optimization variable space.
 Eigenvectors 1 and   4 swapped, overlap=  1.0000
                        Tangent   TS vect  // Eig F  Eigenval
   1         R1         0.00124  -0.00124  -0.00327   0.01966
   2         R2         0.00173  -0.00173   0.00000   0.00497
   3         R3         0.03729  -0.03729   0.00000   0.01039
   4         R4        -0.00005   0.00005  -0.01970  -0.00062
   5         R5        -0.03751   0.03751   0.00000   0.02077
   6         R6        -0.00005   0.00005  -0.00300   0.02165
   7         R7         0.03729  -0.03729   0.00000   0.02183
   8         R8        -0.03751   0.03751  -0.00242   0.02319
   9         R9         0.00124  -0.00124   0.00000   0.02355
  10         R10        0.00173  -0.00173   0.00825   0.02364
  11         R11       -0.00136   0.00136   0.00849   0.02891
  12         R12       -0.00180   0.00180   0.00000   0.03313
  13         R13        0.64399  -0.64399  -0.00117   0.03323
  14         R14       -0.00136   0.00136   0.00000   0.03431
  15         R15       -0.00180   0.00180   0.00000   0.06789
  16         R16       -0.64456   0.64456   0.01194   0.06920
  17         A1        -0.00961   0.00961   0.00000   0.10155
  18         A2        -0.00292   0.00292  -0.00149   0.10188
  19         A3        -0.01008   0.01008  -0.00389   0.10520
  20         A4        -0.00287   0.00287   0.00000   0.10748
  21         A5         0.00170  -0.00170   0.00000   0.11463
  22         A6         0.00113  -0.00113   0.00104   0.12258
  23         A7        -0.00287   0.00287  -0.01706   0.13301
  24         A8         0.00113  -0.00113   0.00000   0.13588
  25         A9         0.00170  -0.00170   0.00000   0.15953
  26         A10       -0.00292   0.00292   0.00003   0.15963
  27         A11       -0.01008   0.01008   0.00000   0.16884
  28         A12       -0.00961   0.00961   0.02692   0.21878
  29         A13        0.00477  -0.00477  -0.01169   0.34389
  30         A14        0.01023  -0.01023  -0.00010   0.34437
  31         A15       -0.08515   0.08515   0.00000   0.34437
  32         A16        0.00964  -0.00964   0.00000   0.34437
  33         A17        0.00122  -0.00122   0.00005   0.34441
  34         A18        0.01920  -0.01920   0.00000   0.34441
  35         A19       -0.08515   0.08515   0.00000   0.34441
  36         A20        0.00477  -0.00477  -0.00902   0.34482
  37         A21        0.01023  -0.01023   0.00000   0.34596
  38         A22        0.00122  -0.00122  -0.01122   0.34638
  39         A23        0.01920  -0.01920   0.00803   0.43676
  40         A24        0.00964  -0.00964   0.00246   0.46118
  41         A25       -0.00151   0.00151   0.00000   0.49084
  42         A26       -0.01737   0.01737   0.00000   0.49084
  43         A27        0.08237  -0.08237   0.000001000.00000
  44         A28        0.08237  -0.08237   0.000001000.00000
  45         A29       -0.00151   0.00151   0.000001000.00000
  46         A30       -0.01737   0.01737   0.000001000.00000
  47         D1         0.01066  -0.01066   0.000001000.00000
  48         D2         0.01133  -0.01133   0.000001000.00000
  49         D3        -0.05964   0.05964   0.000001000.00000
  50         D4        -0.05898   0.05898   0.000001000.00000
  51         D5         0.01074  -0.01074   0.000001000.00000
  52         D6        -0.06149   0.06149   0.000001000.00000
  53         D7        -0.08297   0.08297   0.000001000.00000
  54         D8         0.01155  -0.01155   0.000001000.00000
  55         D9        -0.06068   0.06068   0.000001000.00000
  56         D10       -0.08216   0.08216   0.000001000.00000
  57         D11       -0.01066   0.01066   0.000001000.00000
  58         D12        0.05964  -0.05964   0.000001000.00000
  59         D13       -0.01133   0.01133   0.000001000.00000
  60         D14        0.05898  -0.05898   0.000001000.00000
  61         D15        0.08216  -0.08216   0.000001000.00000
  62         D16       -0.01155   0.01155   0.000001000.00000
  63         D17        0.06068  -0.06068   0.000001000.00000
  64         D18        0.08297  -0.08297   0.000001000.00000
  65         D19       -0.01074   0.01074   0.000001000.00000
  66         D20        0.06149  -0.06149   0.000001000.00000
  67         D21        0.00000   0.00000   0.000001000.00000
  68         D22       -0.03718   0.03718   0.000001000.00000
  69         D23       -0.09107   0.09107   0.000001000.00000
  70         D24        0.03718  -0.03718   0.000001000.00000
  71         D25        0.00000   0.00000   0.000001000.00000
  72         D26       -0.05389   0.05389   0.000001000.00000
  73         D27        0.09107  -0.09107   0.000001000.00000
  74         D28        0.05389  -0.05389   0.000001000.00000
  75         D29        0.00000   0.00000   0.000001000.00000
  76         D30       -0.08178   0.08178   0.000001000.00000
  77         D31       -0.08112   0.08112   0.000001000.00000
  78         D32        0.03748  -0.03748   0.000001000.00000
  79         D33        0.00000   0.00000   0.000001000.00000
  80         D34       -0.05330   0.05330   0.000001000.00000
  81         D35        0.09078  -0.09078   0.000001000.00000
  82         D36        0.05330  -0.05330   0.000001000.00000
  83         D37        0.00000   0.00000   0.000001000.00000
  84         D38        0.00000   0.00000   0.000001000.00000
  85         D39       -0.03748   0.03748   0.000001000.00000
  86         D40       -0.09078   0.09078   0.000001000.00000
  87         D41        0.08178  -0.08178   0.000001000.00000
  88         D42        0.08112  -0.08112   0.000001000.00000
 RFO step:  Lambda0=2.019309093D-02 Lambda=-2.58904710D-02.
 Linear search not attempted -- option 19 set.
 Maximum step size (   0.300) exceeded in Quadratic search.
    -- Step size scaled by   0.048
 Iteration  1 RMS(Cart)=  0.03874307 RMS(Int)=  0.00208164
 Iteration  2 RMS(Cart)=  0.00297674 RMS(Int)=  0.00011547
 Iteration  3 RMS(Cart)=  0.00000131 RMS(Int)=  0.00011546
 Iteration  4 RMS(Cart)=  0.00000000 RMS(Int)=  0.00011546
 ClnCor:  largest displacement from symmetrization is 1.87D-08 for atom    16.
 Variable       Old X    -DE/DX   Delta X   Delta X   Delta X     New X
                                 (Linear)    (Quad)   (Total)
    R1        2.05646  -0.01397   0.00000  -0.00111  -0.00111   2.05535
    R2        2.06067  -0.00877   0.00000  -0.00143  -0.00143   2.05924
    R3        2.60492   0.00942   0.00000  -0.01111  -0.01097   2.59395
    R4        2.05585  -0.01094   0.00000  -0.00039  -0.00039   2.05546
    R5        2.61682   0.00460   0.00000   0.01084   0.01093   2.62776
    R6        2.05585  -0.01094   0.00000  -0.00039  -0.00039   2.05546
    R7        2.60492   0.00942   0.00000  -0.01111  -0.01097   2.59395
    R8        2.61682   0.00460   0.00000   0.01084   0.01093   2.62776
    R9        2.05646  -0.01397   0.00000  -0.00111  -0.00111   2.05535
   R10        2.06067  -0.00877   0.00000  -0.00143  -0.00143   2.05924
   R11        2.05687  -0.01406   0.00000  -0.00033  -0.00033   2.05654
   R12        2.06123  -0.00895   0.00000  -0.00040  -0.00040   2.06083
   R13        6.96647  -0.02346   0.00000  -0.22009  -0.22022   6.74625
   R14        2.05687  -0.01406   0.00000  -0.00033  -0.00033   2.05654
   R15        2.06123  -0.00895   0.00000  -0.00040  -0.00040   2.06083
   R16        7.16988  -0.02608   0.00000   0.16185   0.16180   7.33168
    A1        1.97677   0.00438   0.00000   0.00425   0.00426   1.98102
    A2        2.25636  -0.01351   0.00000  -0.00195  -0.00218   2.25419
    A3        1.98422   0.01193   0.00000   0.00510   0.00505   1.98926
    A4        2.06644  -0.01331   0.00000   0.00007   0.00001   2.06646
    A5        2.14909   0.02664   0.00000   0.00116   0.00127   2.15036
    A6        2.06567  -0.01348   0.00000  -0.00140  -0.00146   2.06422
    A7        2.06644  -0.01331   0.00000   0.00007   0.00001   2.06646
    A8        2.06567  -0.01348   0.00000  -0.00140  -0.00146   2.06422
    A9        2.14909   0.02664   0.00000   0.00116   0.00127   2.15036
   A10        2.25636  -0.01351   0.00000  -0.00195  -0.00218   2.25419
   A11        1.98422   0.01193   0.00000   0.00510   0.00505   1.98926
   A12        1.97677   0.00438   0.00000   0.00425   0.00426   1.98102
   A13        2.25513  -0.01351   0.00000  -0.00424  -0.00446   2.25067
   A14        1.98101   0.01223   0.00000  -0.00110  -0.00102   1.97999
   A15        0.96282  -0.00996   0.00000   0.02369   0.02389   0.98671
   A16        1.97378   0.00437   0.00000  -0.00134  -0.00141   1.97237
   A17        1.74507  -0.00538   0.00000  -0.00165  -0.00153   1.74354
   A18        2.39285   0.00123   0.00000  -0.00598  -0.00624   2.38661
   A19        0.96282  -0.00996   0.00000   0.02369   0.02389   0.98671
   A20        2.25513  -0.01351   0.00000  -0.00424  -0.00446   2.25067
   A21        1.98101   0.01223   0.00000  -0.00110  -0.00102   1.97999
   A22        1.74507  -0.00538   0.00000  -0.00165  -0.00153   1.74354
   A23        2.39285   0.00123   0.00000  -0.00598  -0.00624   2.38661
   A24        1.97378   0.00437   0.00000  -0.00134  -0.00141   1.97237
   A25        1.74553  -0.00480   0.00000  -0.00097  -0.00099   1.74454
   A26        2.39864   0.00037   0.00000   0.00478   0.00457   2.40322
   A27        0.93639  -0.00969   0.00000  -0.02588  -0.02554   0.91085
   A28        0.93639  -0.00969   0.00000  -0.02588  -0.02554   0.91085
   A29        1.74553  -0.00480   0.00000  -0.00097  -0.00099   1.74454
   A30        2.39864   0.00037   0.00000   0.00478   0.00457   2.40322
    D1        3.12065  -0.00216   0.00000  -0.00204  -0.00193   3.11872
    D2        0.04784   0.00108   0.00000   0.00105   0.00111   0.04895
    D3       -0.43389   0.00826   0.00000   0.02143   0.02133  -0.41256
    D4        2.77648   0.01151   0.00000   0.02452   0.02437   2.80085
    D5       -0.05130  -0.00124   0.00000  -0.00775  -0.00769  -0.05899
    D6       -2.75749  -0.01210   0.00000   0.01134   0.01146  -2.74603
    D7        1.21991  -0.00736   0.00000   0.01905   0.01908   1.23899
    D8       -3.12414   0.00199   0.00000  -0.00471  -0.00471  -3.12885
    D9        0.45285  -0.00886   0.00000   0.01438   0.01444   0.46729
   D10       -1.85293  -0.00413   0.00000   0.02209   0.02205  -1.83087
   D11       -3.12065   0.00216   0.00000   0.00204   0.00193  -3.11872
   D12        0.43389  -0.00826   0.00000  -0.02143  -0.02133   0.41256
   D13       -0.04784  -0.00108   0.00000  -0.00105  -0.00111  -0.04895
   D14       -2.77648  -0.01151   0.00000  -0.02452  -0.02437  -2.80085
   D15        1.85293   0.00413   0.00000  -0.02209  -0.02205   1.83087
   D16        3.12414  -0.00199   0.00000   0.00471   0.00471   3.12885
   D17       -0.45285   0.00886   0.00000  -0.01438  -0.01444  -0.46729
   D18       -1.21991   0.00736   0.00000  -0.01905  -0.01908  -1.23899
   D19        0.05130   0.00124   0.00000   0.00775   0.00769   0.05899
   D20        2.75749   0.01210   0.00000  -0.01134  -0.01146   2.74603
   D21        3.14159   0.00000   0.00000   0.00000   0.00000   3.14159
   D22        0.85066   0.00933   0.00000   0.01305   0.01297   0.86363
   D23       -1.60594   0.00820   0.00000   0.02867   0.02862  -1.57733
   D24       -0.85066  -0.00933   0.00000  -0.01305  -0.01297  -0.86363
   D25        3.14159   0.00000   0.00000   0.00000   0.00000   3.14159
   D26        0.68499  -0.00112   0.00000   0.01562   0.01565   0.70064
   D27        1.60594  -0.00820   0.00000  -0.02867  -0.02862   1.57733
   D28       -0.68499   0.00112   0.00000  -0.01562  -0.01565  -0.70064
   D29        3.14159   0.00000   0.00000   0.00000   0.00000   3.14159
   D30        1.87880   0.00239   0.00000   0.02639   0.02639   1.90519
   D31       -1.19401   0.00563   0.00000   0.02948   0.02943  -1.16458
   D32        0.83886   0.00963   0.00000  -0.00922  -0.00939   0.82947
   D33        3.14159   0.00000   0.00000   0.00000   0.00000   3.14159
   D34       -0.66809   0.00086   0.00000   0.01550   0.01535  -0.65274
   D35       -1.63464   0.00877   0.00000  -0.02472  -0.02474  -1.65938
   D36        0.66809  -0.00086   0.00000  -0.01550  -0.01535   0.65274
   D37        3.14159   0.00000   0.00000   0.00000   0.00000   3.14159
   D38        3.14159   0.00000   0.00000   0.00000   0.00000  -3.14159
   D39       -0.83886  -0.00963   0.00000   0.00922   0.00939  -0.82947
   D40        1.63464  -0.00877   0.00000   0.02472   0.02474   1.65938
   D41       -1.87880  -0.00239   0.00000  -0.02639  -0.02639  -1.90519
   D42        1.19401  -0.00563   0.00000  -0.02948  -0.02943   1.16458
         Item               Value     Threshold  Converged?
 Maximum Force            0.026637     0.000450     NO 
 RMS     Force            0.009858     0.000300     NO 
 Maximum Displacement     0.119044     0.001800     NO 
 RMS     Displacement     0.040886     0.001200     NO 
 Predicted change in Energy=-1.001346D-03
 GradGradGradGradGradGradGradGradGradGradGradGradGradGradGradGradGradGrad

                          Input orientation:                          
 ---------------------------------------------------------------------
 Center     Atomic      Atomic             Coordinates (Angstroms)
 Number     Number       Type             X           Y           Z
 ---------------------------------------------------------------------
      1          6           0       -1.018405    0.380686   -0.065629
      2          1           0       -0.938769    0.592886    0.998136
      3          1           0       -0.100522    0.579351   -0.618322
      4          6           0       -1.896371   -0.446149   -0.721156
      5          1           0       -1.833376   -0.512583   -1.805000
      6          6           0       -3.955503    1.705789    0.090359
      7          1           0       -4.018498    1.772223    1.174203
      8          6           0       -4.833469    0.878953   -0.565167
      9          1           0       -4.913105    0.666753   -1.628933
     10          1           0       -5.751353    0.680289   -0.012474
     11          6           0       -2.915385   -1.139131   -0.076941
     12          1           0       -3.145345   -1.186008    0.985724
     13          1           0       -3.258032   -2.016656   -0.626329
     14          6           0       -2.936489    2.398770   -0.553856
     15          1           0       -2.706530    2.445648   -1.616521
     16          1           0       -2.593842    3.276295   -0.004467
 ---------------------------------------------------------------------
                    Distance matrix (angstroms):
                    1          2          3          4          5
     1  C    0.000000
     2  H    1.087643   0.000000
     3  H    1.089700   1.820928   0.000000
     4  C    1.372660   2.225435   2.070580   0.000000
     5  H    2.118376   3.143240   2.367131   1.087704   0.000000
     6  C    3.225953   3.341152   4.078232   3.086976   3.607906
     7  H    3.531872   3.302509   4.470641   3.607906   4.344047
     8  C    3.879758   4.206476   4.742718   3.225953   3.531872
     9  H    4.206476   4.764693   4.918326   3.341152   3.302509
    10  H    4.742718   4.918326   5.684112   4.078232   4.470641
    11  C    2.430741   2.839487   3.342114   1.390549   2.132954
    12  H    2.843193   2.834360   3.867868   2.240706   3.156407
    13  H    3.328297   3.850660   4.087687   2.080770   2.383515
    14  C    2.826672   3.108180   3.370038   3.033711   3.355324
    15  H    3.085303   3.659800   3.357193   3.133772   3.090154
    16  H    3.297013   3.308348   3.723839   3.854439   4.263312
[...]
 ! A15   A(4,11,14)        62.1179  112.6646   28.155  -DE/DX =   -0.0039       !
 ! A16   A(12,11,13)      115.3471  106.6405  116.4779 -DE/DX =    0.0017       !
 ! A17   A(12,11,14)       94.0977  109.6211   96.0156 -DE/DX =   -0.0015       !
 ! A18   A(13,11,14)      127.7758  108.1945  145.4387 -DE/DX =    0.0011       !
 ! A19   A(6,14,11)        62.1179  112.6646   28.155  -DE/DX =   -0.0039       !
 ! A20   A(6,14,15)       122.6109  109.7575  121.6613 -DE/DX =   -0.0029       !
 ! A21   A(6,14,16)       120.3491  109.772   121.8603 -DE/DX =    0.0019       !
 ! A22   A(11,14,15)       94.0977  109.6211   96.0156 -DE/DX =   -0.0015       !
 ! A23   A(11,14,16)      127.7758  108.1945  145.4387 -DE/DX =    0.0011       !
 ! A24   A(15,14,16)      115.3471  106.6405  116.4779 -DE/DX =    0.0017       !
 ! A25   A(2,1,8)          97.71     96.0156  109.6211 -DE/DX =   -0.0011       !
 ! A26   A(3,1,8)         133.3401  145.4387  108.1945 -DE/DX =   -0.001        !
 ! A27   A(4,1,8)          46.042    28.155   112.6646 -DE/DX =    0.0003       !
 ! A28   A(1,8,6)          46.042    28.155   112.6646 -DE/DX =    0.0003       !
 ! A29   A(1,8,9)          97.71     96.0156  109.6211 -DE/DX =   -0.0011       !
 ! A30   A(1,8,10)        133.3401  145.4387  108.1945 -DE/DX =   -0.001        !
 ! D1    D(2,1,4,5)       179.4014  179.8974 -176.8366 -DE/DX =    0.0004       !
 ! D2    D(2,1,4,11)       -3.149     0.7224    3.9645 -DE/DX =    0.0032       !
 ! D3    D(3,1,4,5)       -10.9607   -0.3906  -59.9352 -DE/DX =    0.0018       !
 ! D4    D(3,1,4,11)      166.4889 -179.5656  120.8659 -DE/DX =    0.0047       !
 ! D5    D(1,4,11,12)       6.3488   -3.9645   -0.7224 -DE/DX =   -0.0036       !
 ! D6    D(1,4,11,13)    -158.1291 -120.8659  179.5656 -DE/DX =   -0.0075       !
 ! D7    D(1,4,11,14)      82.3131  118.4915   26.2355 -DE/DX =   -0.0068       !
 ! D8    D(5,4,11,12)    -176.2075  176.8366 -179.8974 -DE/DX =   -0.0008       !
 ! D9    D(5,4,11,13)      19.3147   59.9352    0.3906 -DE/DX =   -0.0047       !
 ! D10   D(5,4,11,14)    -100.2432  -60.7074 -152.9395 -DE/DX =   -0.004        !
 ! D11   D(7,6,8,9)      -179.4014 -179.8974  176.8366 -DE/DX =   -0.0004       !
 ! D12   D(7,6,8,10)       10.9607    0.3906   59.9352 -DE/DX =   -0.0018       !
 ! D13   D(14,6,8,9)        3.149    -0.7224   -3.9645 -DE/DX =   -0.0032       !
 ! D14   D(14,6,8,10)    -166.4889  179.5656 -120.8659 -DE/DX =   -0.0047       !
 ! D15   D(7,6,14,11)     100.2432   60.7074  152.9395 -DE/DX =    0.004        !
 ! D16   D(7,6,14,15)     176.2075 -176.8366  179.8974 -DE/DX =    0.0008       !
 ! D17   D(7,6,14,16)     -19.3147  -59.9352   -0.3906 -DE/DX =    0.0047       !
 ! D18   D(8,6,14,11)     -82.3131 -118.4915  -26.2355 -DE/DX =    0.0068       !
 ! D19   D(8,6,14,15)      -6.3488    3.9645    0.7224 -DE/DX =    0.0036       !
 ! D20   D(8,6,14,16)     158.1291  120.8659 -179.5656 -DE/DX =    0.0075       !
 ! D21   D(4,11,14,6)     180.0     180.0     180.0    -DE/DX =    0.0          !
 ! D22   D(4,11,14,15)     55.0144   57.4674   22.8302 -DE/DX =    0.0013       !
 ! D23   D(4,11,14,16)    -71.7499  -58.4575 -137.7774 -DE/DX =   -0.0003       !
 ! D24   D(12,11,14,6)    -55.0144  -57.4674  -22.8302 -DE/DX =   -0.0013       !
 ! D25   D(12,11,14,15)   180.0     180.0     180.0    -DE/DX =    0.0          !
 ! D26   D(12,11,14,16)    53.2357   64.0751   19.3925 -DE/DX =   -0.0016       !
 ! D27   D(13,11,14,6)     71.7499   58.4575  137.7774 -DE/DX =    0.0003       !
 ! D28   D(13,11,14,15)   -53.2357  -64.0751  -19.3925 -DE/DX =    0.0016       !
 ! D29   D(13,11,14,16)   180.0     180.0     180.0    -DE/DX =    0.0          !
 ! D30   D(8,1,4,5)       113.5267  152.9395   60.7074 -DE/DX =   -0.0015       !
 ! D31   D(8,1,4,11)      -69.0236  -26.2355 -118.4915 -DE/DX =    0.0013       !
 ! D32   D(2,1,8,6)        50.3947   22.8302   57.4674 -DE/DX =    0.0029       !
 ! D33   D(2,1,8,9)      -180.0     180.0     180.0    -DE/DX =    0.0          !
 ! D34   D(2,1,8,10)      -38.9768  -19.3925  -64.0751 -DE/DX =   -0.0023       !
 ! D35   D(3,1,8,6)       -90.6285 -137.7774  -58.4575 -DE/DX =    0.0052       !
 ! D36   D(3,1,8,9)        38.9768   19.3925   64.0751 -DE/DX =    0.0023       !
 ! D37   D(3,1,8,10)      180.0     180.0     180.0    -DE/DX =    0.0          !
 ! D38   D(4,1,8,6)       180.0     180.0     180.0    -DE/DX =    0.0          !
 ! D39   D(4,1,8,9)       -50.3947  -22.8302  -57.4674 -DE/DX =   -0.0029       !
 ! D40   D(4,1,8,10)       90.6285  137.7774   58.4575 -DE/DX =   -0.0052       !
 ! D41   D(7,6,8,1)      -113.5267 -152.9395  -60.7074 -DE/DX =    0.0015       !
 ! D42   D(14,6,8,1)       69.0236   26.2355  118.4915 -DE/DX =   -0.0013       !
 --------------------------------------------------------------------------------
 GradGradGradGradGradGradGradGradGradGradGradGradGradGradGradGradGradGrad

                          Input orientation:                          
 ---------------------------------------------------------------------
 Center     Atomic      Atomic             Coordinates (Angstroms)
 Number     Number       Type             X           Y           Z
 ---------------------------------------------------------------------
      1          6           0       -0.718927    0.268596   -0.038164
      2          1           0       -0.681846    0.412596    1.025797
      3          1           0        0.149215    0.533920   -0.612064
      4          6           0       -1.729201   -0.422220   -0.671889
      5          1           0       -1.658351   -0.489444   -1.746638
      6          6           0       -4.122674    1.681860    0.041092
      7          1           0       -4.193523    1.749084    1.115842
      8          6           0       -5.132948    0.991043   -0.592632
      9          1           0       -5.170029    0.847044   -1.656594
     10          1           0       -6.001089    0.725719   -0.018733
     11          6           0       -2.794642   -1.078561   -0.082767
     12          1           0       -2.994621   -1.027975    0.972896
     13          1           0       -3.312562   -1.856217   -0.612010
     14          6           0       -3.057232    2.338201   -0.548029
     15          1           0       -2.857253    2.287615   -1.603692
     16          1           0       -2.539313    3.115856   -0.018786
 ---------------------------------------------------------------------
                    Distance matrix (angstroms):
                    1          2          3          4          5
     1  C    0.000000
     2  H    1.074302   0.000000
     3  H    1.073978   1.840644   0.000000
     4  C    1.378219   2.162408   2.108608   0.000000
     5  H    2.091896   3.074677   2.366819   1.079178   0.000000
     6  C    3.686338   3.797364   4.471399   3.265610   3.739442
     7  H    3.949227   3.758482   4.829250   3.739442   4.430789
     8  C    4.506989   4.771397   5.301941   3.686338   3.949227
     9  H    4.771397   5.246690   5.429866   3.797364   3.758482
    10  H    5.301941   5.429866   6.181834   4.471399   4.829250
    11  C    2.474959   2.813605   3.398021   1.383118   2.099210
    12  H    2.807512   2.725247   3.851664   2.161838   3.077579
    13  H    3.401628   3.840650   4.206739   2.137045   2.427315
    14  C    3.164000   3.439091   3.679787   3.065768   3.374775
    15  H    3.331629   3.893881   3.619064   3.079605   3.028177
    16  H    3.379508   3.442232   3.774461   3.687928   4.093869
                    6          7          8          9         10
     6  C    0.000000
     7  H    1.079178   0.000000
     8  C    1.378219   2.091896   0.000000
     9  H    2.162408   3.074677   1.074302   0.000000
    10  H    2.108608   2.366819   1.073978   1.840644   0.000000
    11  C    3.065768   3.374775   3.164000   3.439091   3.679787
    12  H    3.079605   3.028177   3.331629   3.893881   3.619064
    13  H    3.687928   4.093869   3.379508   3.442232   3.774461
    14  C    1.383118   2.099210   2.474959   2.813605   3.398021
    15  H    2.161838   3.077579   2.807512   2.725247   3.851664
    16  H    2.137045   2.427315   3.401628   3.840650   4.206739
                   11         12         13         14         15
    11  C    0.000000
    12  H    1.075627   0.000000
    13  H    1.073819   1.816314   0.000000
    14  C    3.458278   3.694357   4.202669   0.000000
    15  H    3.694357   4.201286   4.285100   1.075627   0.000000
    16  H    4.202669   4.285100   5.066689   1.073819   1.816314
                   16
    16  H    0.000000
 Stoichiometry    C6H10
 Framework group  CI[X(C6H10)]
 Deg. of freedom    21
 Full point group                 CI      NOp   2
 Largest Abelian subgroup         CI      NOp   2
 Largest concise Abelian subgroup CI      NOp   2
                         Standard orientation:                         
 ---------------------------------------------------------------------
 Center     Atomic      Atomic             Coordinates (Angstroms)
 Number     Number       Type             X           Y           Z
 ---------------------------------------------------------------------
      1          6           0        2.207011   -0.361223    0.277234
      2          1           0        2.244091   -0.217224    1.341196
      3          1           0        3.075152   -0.095899   -0.296666
      4          6           0        1.196736   -1.052040   -0.356490
      5          1           0        1.267586   -1.119264   -1.431240
      6          6           0       -1.196736    1.052040    0.356490
      7          1           0       -1.267586    1.119264    1.431240
      8          6           0       -2.207011    0.361223   -0.277234
      9          1           0       -2.244091    0.217224   -1.341196
     10          1           0       -3.075152    0.095899    0.296666
     11          6           0        0.131295   -1.708381    0.232631
     12          1           0       -0.068684   -1.657795    1.288294
     13          1           0       -0.386624   -2.486037   -0.296612
     14          6           0       -0.131295    1.708381   -0.232631
     15          1           0        0.068684    1.657795   -1.288294
     16          1           0        0.386624    2.486037    0.296612
 ---------------------------------------------------------------------
 Rotational constants (GHZ):      4.8381155      2.1464574      1.6567616

 **********************************************************************

            Population analysis using the SCF density.

 **********************************************************************

 Orbital symmetries:
       Occupied  (AU) (AG) (AU) (AG) (AG) (AU) (AG) (AU) (AU) (AG)
                 (AU) (AG) (AU) (AG) (AG) (AU) (AG) (AU) (AG) (AU)
                 (AG) (AU) (AU)
       Virtual   (AG) (AG) (AU) (AG) (AU) (AU) (AG) (AU) (AG) (AG)
                 (AU) (AG) (AU) (AU) (AG) (AG) (AU) (AU) (AG) (AG)
                 (AG) (AU) (AU) (AU) (AU) (AG) (AG) (AU) (AG) (AG)
                 (AU) (AG) (AU) (AG) (AU) (AG) (AU) (AU) (AG) (AU)
                 (AG) (AG) (AU) (AG) (AU) (AG) (AU) (AU) (AG) (AU)
                 (AG)
 The electronic state is 1-AG.
 Alpha  occ. eigenvalues --  -11.18764 -11.18764 -11.16920 -11.16910 -11.16048
 Alpha  occ. eigenvalues --  -11.16045  -1.06581  -1.05441  -0.91264  -0.90343
 Alpha  occ. eigenvalues --   -0.75127  -0.74786  -0.64684  -0.64624  -0.60179
 Alpha  occ. eigenvalues --   -0.59901  -0.53186  -0.53141  -0.50270  -0.49474
 Alpha  occ. eigenvalues --   -0.43464  -0.35916  -0.19834
 Alpha virt. eigenvalues --    0.01937   0.23127   0.24381   0.28585   0.29108
 Alpha virt. eigenvalues --    0.31503   0.32792   0.33223   0.34887   0.37993
 Alpha virt. eigenvalues --    0.38234   0.39662   0.41344   0.53747   0.53787
 Alpha virt. eigenvalues --    0.60052   0.60102   0.85706   0.86826   0.89781
 Alpha virt. eigenvalues --    0.93225   0.93709   0.97142   1.03610   1.04686
 Alpha virt. eigenvalues --    1.04878   1.08268   1.10499   1.10621   1.12763
 Alpha virt. eigenvalues --    1.13229   1.25000   1.28947   1.30644   1.31991
 Alpha virt. eigenvalues --    1.34618   1.35467   1.37438   1.39083   1.41635
 Alpha virt. eigenvalues --    1.42751   1.52197   1.55600   1.59764   1.70607
 Alpha virt. eigenvalues --    1.71712   1.79017   1.83858   1.94104   2.10990
 Alpha virt. eigenvalues --    2.21870
          Condensed to atoms (all electrons):
              1          2          3          4          5          6
     1  C    5.268716   0.389648   0.389359   0.436226  -0.044579  -0.000465
     2  H    0.389648   0.446200  -0.020342  -0.044870   0.001910   0.000036
     3  H    0.389359  -0.020342   0.460542  -0.051909  -0.001783   0.000003
     4  C    0.436226  -0.044870  -0.051909   5.199436   0.402976  -0.008768
     5  H   -0.044579   0.001910  -0.001783   0.402976   0.459324   0.000092
     6  C   -0.000465   0.000036   0.000003  -0.008768   0.000092   5.199436
     7  H   -0.000028   0.000018   0.000000   0.000092   0.000003   0.402976
     8  C   -0.000644   0.000003  -0.000002  -0.000465  -0.000028   0.436226
     9  H    0.000003   0.000000   0.000000   0.000036   0.000018  -0.044870
    10  H   -0.000002   0.000000   0.000000   0.000003   0.000000  -0.051909
    11  C   -0.087102   0.001260   0.002410   0.435278  -0.038971  -0.010299
    12  H    0.000880   0.001311   0.000009  -0.050998   0.002033   0.000138
    13  H    0.002159  -0.000003  -0.000056  -0.049193  -0.001919  -0.000080
    14  C    0.045384  -0.000019   0.000464  -0.010299   0.000342   0.435278
    15  H   -0.000293   0.000005  -0.000003   0.000138   0.000173  -0.050998
    16  H   -0.000105   0.000037  -0.000003  -0.000080  -0.000002  -0.049193
              7          8          9         10         11         12
     1  C   -0.000028  -0.000644   0.000003  -0.000002  -0.087102   0.000880
     2  H    0.000018   0.000003   0.000000   0.000000   0.001260   0.001311
     3  H    0.000000  -0.000002   0.000000   0.000000   0.002410   0.000009
     4  C    0.000092  -0.000465   0.000036   0.000003   0.435278  -0.050998
     5  H    0.000003  -0.000028   0.000018   0.000000  -0.038971   0.002033
     6  C    0.402976   0.436226  -0.044870  -0.051909  -0.010299   0.000138
     7  H    0.459324  -0.044579   0.001910  -0.001783   0.000342   0.000173
     8  C   -0.044579   5.268716   0.389648   0.389359   0.045384  -0.000293
     9  H    0.001910   0.389648   0.446200  -0.020342  -0.000019   0.000005
    10  H   -0.001783   0.389359  -0.020342   0.460542   0.000464  -0.000003
    11  C    0.000342   0.045384  -0.000019   0.000464   5.301642   0.395413
    12  H    0.000173  -0.000293   0.000005  -0.000003   0.395413   0.472329
    13  H   -0.000002  -0.000105   0.000037  -0.000003   0.393410  -0.023787
    14  C   -0.038971  -0.087102   0.001260   0.002410  -0.019090   0.000201
    15  H    0.002033   0.000880   0.001311   0.000009   0.000201   0.000003
    16  H   -0.001919   0.002159  -0.000003  -0.000056   0.000028   0.000000
             13         14         15         16
     1  C    0.002159   0.045384  -0.000293  -0.000105
     2  H   -0.000003  -0.000019   0.000005   0.000037
     3  H   -0.000056   0.000464  -0.000003  -0.000003
     4  C   -0.049193  -0.010299   0.000138  -0.000080
     5  H   -0.001919   0.000342   0.000173  -0.000002
     6  C   -0.000080   0.435278  -0.050998  -0.049193
     7  H   -0.000002  -0.038971   0.002033  -0.001919
     8  C   -0.000105  -0.087102   0.000880   0.002159
     9  H    0.000037   0.001260   0.001311  -0.000003
    10  H   -0.000003   0.002410   0.000009  -0.000056
    11  C    0.393410  -0.019090   0.000201   0.000028
    12  H   -0.023787   0.000201   0.000003   0.000000
    13  H    0.471515   0.000028   0.000000   0.000000
    14  C    0.000028   5.301642   0.395413   0.393410
    15  H    0.000000   0.395413   0.472329  -0.023787
    16  H    0.000000   0.393410  -0.023787   0.471515
 Mulliken atomic charges:
              1
     1  C   -0.399157
     2  H    0.224805
     3  H    0.221312
     4  C   -0.257604
     5  H    0.220411
     6  C   -0.257604
     7  H    0.220411
     8  C   -0.399157
     9  H    0.224805
    10  H    0.221312
    11  C   -0.420353
    12  H    0.202587
    13  H    0.207999
    14  C   -0.420353
    15  H    0.202587
    16  H    0.207999
 Sum of Mulliken atomic charges =   0.00000
 Mulliken charges with hydrogens summed into heavy atoms:
              1
     1  C    0.046960
     4  C   -0.037193
     6  C   -0.037193
     8  C    0.046960
    11  C   -0.009767
    14  C   -0.009767
 Sum of Mulliken charges with hydrogens summed into heavy atoms =   0.00000
 Electronic spatial extent (au):  <R**2>=            773.9713
 Charge=              0.0000 electrons
 Dipole moment (field-independent basis, Debye):
    X=              0.0000    Y=              0.0000    Z=              0.0000  Tot=              0.0000
 Quadrupole moment (field-independent basis, Debye-Ang):
   XX=            -35.6222   YY=            -42.0309   ZZ=            -35.5828
   XY=              2.5615   XZ=             -0.3499   YZ=              0.9918
 Traceless Quadrupole moment (field-independent basis, Debye-Ang):
   XX=              2.1231   YY=             -4.2856   ZZ=              2.1625
   XY=              2.5615   XZ=             -0.3499   YZ=              0.9918
 Octapole moment (field-independent basis, Debye-Ang**2):
  XXX=              0.0000  YYY=              0.0000  ZZZ=              0.0000  XYY=              0.0000
  XXY=              0.0000  XXZ=              0.0000  XZZ=              0.0000  YZZ=              0.0000
  YYZ=              0.0000  XYZ=              0.0000
 Hexadecapole moment (field-independent basis, Debye-Ang**3):
 XXXX=           -533.3947 YYYY=           -409.1075 ZZZZ=            -89.3127 XXXY=             92.4068
 XXXZ=            -14.3692 YYYX=            105.0458 YYYZ=             13.1962 ZZZX=             -6.4089
 ZZZY=              4.6669 XXYY=           -184.4458 XXZZ=           -104.4848 YYZZ=            -80.7807
 XXYZ=              4.3266 YYXZ=             -5.3887 ZZXY=             25.2057
 N-N= 2.089958768434D+02 E-N=-9.558148014399D+02  KE= 2.308172747994D+02
 Symmetry AG   KE= 1.141929018029D+02
 Symmetry AU   KE= 1.166243729965D+02
 B after Tr=    -0.623496    1.228638   -0.491179
         Rot=    0.952879    0.035286    0.016081    0.300862 Ang=  35.32 deg.
 Final structure in terms of initial Z-matrix:
 C
 H,1,B1
 H,1,B2,2,A1
 C,1,B3,2,A2,3,D1,0
 H,4,B4,1,A3,2,D2,0
 C,1,B5,2,A4,3,D3,0
 H,6,B6,1,A5,2,D4,0
 C,6,B7,4,A6,5,D5,0
 H,6,B8,1,A7,4,D6,0
 H,6,B9,1,A8,4,D7,0
 C,4,B10,6,A9,8,D8,0
 H,4,B11,6,A10,7,D9,0
 H,4,B12,6,A11,7,D10,0
 C,6,B13,8,A12,1,D11,0
 H,14,B14,6,A13,8,D12,0
 H,14,B15,6,A14,8,D13,0
      Variables:
 B1=1.07430178
 B2=1.07397753
 B3=1.37821927
 B4=1.07917785
 B5=3.68633812
 B6=1.07917785
 B7=1.37821927
 B8=2.16240785
 B9=2.10860837
 B10=1.38311751
 B11=2.16183764
 B12=2.13704546
 B13=1.38311751
 B14=1.07562728
 B15=1.07381851
 A1=117.91816021
 A2=123.22139593
 A3=116.16938211
 A4=87.6610694
 A5=96.07969142
 A6=96.54100197
 A7=106.39938267
 A8=130.39774855
 A9=69.40037003
 A10=65.50646995
 A11=83.29203945
 A12=127.34913262
 A13=122.6108561
 A14=120.34909118
 D1=169.653315
 D2=179.4013733
 D3=-136.84276936
 D4=-6.01794338
 D5=59.79826027
 D6=-23.29050864
 D7=29.10294794
 D8=-52.46409532
 D9=41.19845168
 D10=90.05817777
 D11=69.02363639
 D12=-6.34879733
 D13=158.12905818


 WE STILL HAVE JUDGEMENT HERE,
 THAT WE TEACH BUT BLOODY INSTRUCTIONS,
 WHICH, BEING TAUGHT,
 RETURN TO PLAGUE THE INVENTOR.
           MACBETH ACT I, SCENE VII
 Error termination request processed by link 9999.
 Error termination via Lnk1e in /apps/gaussian/g09/g09/l9999.exe at Mon Mar 15 15:59:14 2010.
 Job cpu time:  0 days  0 hours  0 minutes 56.0 seconds.
 File lengths (MBytes):  RWF=      5 Int=      0 D2E=      0 Chk=      2 Scr=      1
