<?xml version="1.0" encoding="UTF-8"?>
<module cmlx:templateRef="gaussian.log" xmlns="http://www.xml-cml.org/schema" xmlns:cmlx="http://www.xml-cml.org/schema/cmlx"> Entering Gaussian System, Link 0=g03 Initial command: /apps/gaussian/g09/g09/l1.exe /home/scan-user-1/run/25628/Gau-507.inp -scrdir=/home/scan-user-1/run/25628/ Entering Link 1 = /apps/gaussian/g09/g09/l1.exe PID=       508.  <module cmlx:lineCount="48" cmlx:templateRef="l1.legal"><scalar dataType="xsd:string" dictRef="g:l1.legal">Copyright (c) 1988,1990,1992,1993,1995,1998,2003,2009, Gaussian, Inc.</scalar></module>  <module cmlx:lineCount="18" cmlx:templateRef="l1.citation"><list cmlx:templateRef="citation"><scalar dataType="xsd:string" dictRef="g:l1.citation">Cite this work as:</scalar></list></module> <module cmlx:lineCount="28" cmlx:templateRef="l1.end"><scalar dataType="xsd:string" dictRef="cc:run.date">11-Mar-2010</scalar><scalar dataType="xsd:string" dictRef="cc:program">Gaussian 09</scalar><scalar dataType="xsd:string" dictRef="cc:version">EM64L-G09RevA.02</scalar><scalar dataType="xsd:string" dictRef="cc:program.date">11-Jun-2009</scalar> Will use up to    4 processors via shared memory. %mem=7000MB %NoSave %Chk=chk.chk %rwf=/tmp/pbs.3633633.cx1/rwf %nproc=1 Will use up to    1 processors via shared memory.<scalar dataType="xsd:string" dictRef="cc:keywords">cf=conver=9</scalar><list cmlx:templateRef="control"><scalar dataType="xsd:string" dictRef="g:control">1/10=4,30=1,38=1,57=2/1,3</scalar></list><list cmlx:templateRef="control"><scalar dataType="xsd:string" dictRef="g:control">2/12=2,17=6,18=5,40=1/2</scalar></list><list cmlx:templateRef="control"><scalar dataType="xsd:string" dictRef="g:control">3/5=6,6=3,11=2,16=1,25=1,30=1,71=2,74=-5,75=-5,116=1/1,2,3</scalar></list><list cmlx:templateRef="control"><scalar dataType="xsd:string" dictRef="g:control">4//1</scalar></list><list cmlx:templateRef="control"><scalar dataType="xsd:string" dictRef="g:control">5/5=2,6=9,38=5,98=1/2</scalar></list><list cmlx:templateRef="control"><scalar dataType="xsd:string" dictRef="g:control">8/6=4,10=90,11=11/1</scalar></list><list cmlx:templateRef="control"><scalar dataType="xsd:string" dictRef="g:control">11/6=1,8=1,9=11,15=111,16=1/1,2,10</scalar></list><list cmlx:templateRef="control"><scalar dataType="xsd:string" dictRef="g:control">10/6=1/2</scalar></list><list cmlx:templateRef="control"><scalar dataType="xsd:string" dictRef="g:control">6/7=3,18=1,28=1/1,7</scalar></list><list cmlx:templateRef="control"><scalar dataType="xsd:string" dictRef="g:control">7/8=1,10=1,25=1/1,2,3,16</scalar></list><list cmlx:templateRef="control"><scalar dataType="xsd:string" dictRef="g:control">1/10=4,30=1/3</scalar></list><list cmlx:templateRef="control"><scalar dataType="xsd:string" dictRef="g:control">99//99</scalar></list></module><module cmlx:lineCount="3" cmlx:templateRef="l101.title"><scalar dataType="xsd:string" dictRef="cc:title" cmlx:templateRef="title">IF5a Frequency</scalar></module><module cmlx:lineCount="22" cmlx:templateRef="l101"><list cmlx:templateRef="rest"><scalar dataType="xsd:string" dictRef="x:l101"/></list></module><module cmlx:lineCount="25" cmlx:templateRef="l103"><list cmlx:templateRef="berny"><scalar dataType="xsd:string" dictRef="g:optimization">Initialization pass.</scalar></list><module cmlx:lineCount="18" cmlx:templateRef="l103.init"> !       B1          1.9844   calculate D2E/DX2 analytically            ! !       B2          1.9844   calculate D2E/DX2 analytically            ! !       B3          1.9844   calculate D2E/DX2 analytically            ! !       B4          1.9448   calculate D2E/DX2 analytically            ! !       B5          1.9844   calculate D2E/DX2 analytically            ! !       A1         88.9067   calculate D2E/DX2 analytically            ! !       A2         88.9067   calculate D2E/DX2 analytically            ! !       A3         82.0601   calculate D2E/DX2 analytically            ! !       A4         82.0601   calculate D2E/DX2 analytically            ! !       D1        164.2705   calculate D2E/DX2 analytically            ! !       D2        -82.1353   calculate D2E/DX2 analytically            ! !       D3         90.0      calculate D2E/DX2 analytically            !</module> ------------------------------------------------------------------------<module cmlx:lineCount="2" cmlx:templateRef="l103.trust"><scalar dataType="xsd:double" dictRef="g:trustrad">0.3</scalar><scalar dataType="xsd:double" dictRef="g:fncerr">1.0E-7</scalar><scalar dataType="xsd:double" dictRef="g:grderr">1.0E-7</scalar><scalar dataType="xsd:integer" dictRef="g:nstep">2</scalar><scalar dataType="xsd:integer" dictRef="g:allowedstep">2</scalar></module> GradGradGradGradGradGradGradGradGradGradGradGradGradGradGradGradGradGrad</module><module cmlx:lineCount="12" cmlx:templateRef="l202.orient"><molecule id="mol.l202.orient" cmlx:templateRef="atom"><atomArray><atom id="a1" elementType="I" x3="0.0" y3="0.0" z3="0.0"><scalar dataType="xsd:integer" dictRef="cc:serial">1</scalar><scalar dataType="xsd:integer" dictRef="g:atomicType">0</scalar><scalar dataType="xsd:integer" dictRef="compchem:atomicNumber">53</scalar></atom><atom id="a2" elementType="F" x3="0.0" y3="0.0" z3="1.984367"><scalar dataType="xsd:integer" dictRef="cc:serial">2</scalar><scalar dataType="xsd:integer" dictRef="g:atomicType">0</scalar><scalar dataType="xsd:integer" dictRef="compchem:atomicNumber">9</scalar></atom><atom id="a3" elementType="F" x3="1.984005" y3="0.0" z3="0.037864"><scalar dataType="xsd:integer" dictRef="cc:serial">3</scalar><scalar dataType="xsd:integer" dictRef="g:atomicType">0</scalar><scalar dataType="xsd:integer" dictRef="compchem:atomicNumber">9</scalar></atom><atom id="a4" elementType="F" x3="-1.909709" y3="-0.537856" z3="0.037864"><scalar dataType="xsd:integer" dictRef="cc:serial">4</scalar><scalar dataType="xsd:integer" dictRef="g:atomicType">0</scalar><scalar dataType="xsd:integer" dictRef="compchem:atomicNumber">9</scalar></atom><atom id="a5" elementType="F" x3="0.263567" y3="-1.908046" z3="0.268645"><scalar dataType="xsd:integer" dictRef="cc:serial">5</scalar><scalar dataType="xsd:integer" dictRef="g:atomicType">0</scalar><scalar dataType="xsd:integer" dictRef="compchem:atomicNumber">9</scalar></atom><atom id="a6" elementType="F" x3="0.074296" y3="-0.537856" z3="-1.908639"><scalar dataType="xsd:integer" dictRef="cc:serial">6</scalar><scalar dataType="xsd:integer" dictRef="g:atomicType">0</scalar><scalar dataType="xsd:integer" dictRef="compchem:atomicNumber">9</scalar></atom></atomArray><formula formalCharge="0" concise="F 5 I 1"><atomArray elementType="F I" count="5.0 1.0"/></formula><bondArray><bond atomRefs2="a1 a2" id="a1_a2" order="S"/><bond atomRefs2="a1 a3" id="a1_a3" order="S"/><bond atomRefs2="a1 a4" id="a1_a4" order="S"/><bond atomRefs2="a1 a5" id="a1_a5" order="S"/><bond atomRefs2="a1 a6" id="a1_a6" order="S"/></bondArray><property dictRef="cml:molmass"><scalar dataType="xsd:double" units="unit:dalton" xmlns:unit="http://www.xml-cml.org/unit/si/">221.89648599999998</scalar></property></molecule></module><module cmlx:lineCount="10" cmlx:templateRef="l202.distmat"><array dataType="xsd:double" size="20" dictRef="cc:distance">0.0 1.984367 0.0 1.984367 2.779415 0.0 1.984367 2.779415 3.930687 0.0 1.944807 2.579497 2.579497 2.579497 0.0 1.984367 3.930687 2.779415 2.779415 2.579497</array></module><module cmlx:lineCount="6" cmlx:templateRef="l202.stoich"><scalar dataType="xsd:string" dictRef="cc:formula" cmlx:templateRef="stoich">F5I</scalar><scalar dataType="xsd:string" dictRef="cc:frameworkgroup" cmlx:templateRef="framework">C4V[C4(FI),2SGV(F2)]</scalar><scalar dataType="xsd:integer" dictRef="cc:degfreedom" cmlx:templateRef="degfreedom">3</scalar><scalar dataType="xsd:string" dictRef="cc:pointgroup">C4V</scalar><scalar dataType="xsd:integer" dictRef="cc:operatorcount">8</scalar><scalar dataType="xsd:string" dictRef="cc:largestabelian">C2V</scalar><scalar dataType="xsd:integer" dictRef="cc:operatorcount">4</scalar><scalar dataType="xsd:string" dictRef="cc:largestconciseabelian">C2V</scalar><scalar dataType="xsd:integer" dictRef="cc:operatorcount">4</scalar></module><module cmlx:lineCount="12" cmlx:templateRef="l202.orient"><molecule id="a6" cmlx:templateRef="atom"><atomArray><atom id="a1" elementType="I" x3="0.0" y3="0.0" z3="0.279298"><scalar dataType="xsd:integer" dictRef="cc:serial">1</scalar><scalar dataType="xsd:integer" dictRef="g:atomicType">0</scalar><scalar dataType="xsd:integer" dictRef="compchem:atomicNumber">53</scalar></atom><atom id="a2" elementType="F" x3="0.0" y3="1.965343" z3="0.005189"><scalar dataType="xsd:integer" dictRef="cc:serial">2</scalar><scalar dataType="xsd:integer" dictRef="g:atomicType">0</scalar><scalar dataType="xsd:integer" dictRef="compchem:atomicNumber">9</scalar></atom><atom id="a3" elementType="F" x3="-1.965343" y3="0.0" z3="0.005189"><scalar dataType="xsd:integer" dictRef="cc:serial">3</scalar><scalar dataType="xsd:integer" dictRef="g:atomicType">0</scalar><scalar dataType="xsd:integer" dictRef="compchem:atomicNumber">9</scalar></atom><atom id="a4" elementType="F" x3="1.965343" y3="0.0" z3="0.005189"><scalar dataType="xsd:integer" dictRef="cc:serial">4</scalar><scalar dataType="xsd:integer" dictRef="g:atomicType">0</scalar><scalar dataType="xsd:integer" dictRef="compchem:atomicNumber">9</scalar></atom><atom id="a5" elementType="F" x3="0.0" y3="0.0" z3="-1.665509"><scalar dataType="xsd:integer" dictRef="cc:serial">5</scalar><scalar dataType="xsd:integer" dictRef="g:atomicType">0</scalar><scalar dataType="xsd:integer" dictRef="compchem:atomicNumber">9</scalar></atom><atom id="a6" elementType="F" x3="0.0" y3="-1.965343" z3="0.005189"><scalar dataType="xsd:integer" dictRef="cc:serial">6</scalar><scalar dataType="xsd:integer" dictRef="g:atomicType">0</scalar><scalar dataType="xsd:integer" dictRef="compchem:atomicNumber">9</scalar></atom></atomArray><formula formalCharge="0" concise="F 5 I 1"><atomArray elementType="F I" count="5.0 1.0"/></formula><bondArray><bond atomRefs2="a1 a2" id="a1_a2" order="S"/><bond atomRefs2="a1 a3" id="a1_a3" order="S"/><bond atomRefs2="a1 a4" id="a1_a4" order="S"/><bond atomRefs2="a1 a5" id="a1_a5" order="S"/><bond atomRefs2="a1 a6" id="a1_a6" order="S"/></bondArray><property dictRef="cml:molmass"><scalar dataType="xsd:double" units="unit:dalton" xmlns:unit="http://www.xml-cml.org/unit/si/">221.89648599999998</scalar></property></molecule></module><module cmlx:lineCount="1" cmlx:templateRef="l202.rotconst"><array dataType="xsd:double" size="3" dictRef="cc:rotconst" cmlx:templateRef="rotconst">2.41476 2.41476 1.7217228</array></module><scalar dataType="xsd:integer" dictRef="g:buffer" cmlx:templateRef="buffer">131072</scalar><scalar dataType="xsd:string" dictRef="g:raffenetti" cmlx:templateRef="raff">Raffenetti</scalar><scalar dataType="xsd:string" dictRef="g:twoe" cmlx:templateRef="twoe">Two-electron</scalar><module cmlx:lineCount="19" cmlx:templateRef="l301.basis"><scalar dataType="xsd:string" dictRef="cc:basis">LANL2DZ</scalar><scalar dataType="xsd:string" dictRef="cc:diffuse">(5D, 7F)</scalar><list cmlx:lineCount="4" cmlx:templateRef="symmadapt"><array dataType="xsd:integer" dictRef="cc:adapted" size="4">23 4 13 13</array><array dataType="xsd:string" dictRef="cc:symm" size="4">A1 A2 B1 B2</array></list><scalar dataType="xsd:integer" dictRef="cc:basiscount">53</scalar><scalar dataType="xsd:integer" dictRef="g:primbasis">137</scalar><scalar dataType="xsd:integer" dictRef="cc:cartesianbasis">53</scalar><scalar dataType="xsd:integer" dictRef="cc:alphae">26</scalar><scalar dataType="xsd:integer" dictRef="cc:betae">26</scalar> Warning!  I  atom    1 may be hypervalent but has no d functions. NAtoms=    6 NActive=    6 NUniq=    3 SFac= 3.00D+00 NAtFMM=   80 NAOKFM=F Big=F</module><module cmlx:lineCount="1" cmlx:templateRef="l302.basis"><list cmlx:templateRef="onee"><scalar dataType="xsd:string" dictRef="g:onee">One-electron integrals</scalar></list></module>   8 Symmetry operations used in ECPInt. ECPInt:  NShTT=     435 NPrTT=    3463 LenC2=     430 LenP2D=    2253. LDataN:  DoStor=T MaxTD1= 4 Len=   56 NBasis=    53 RedAO= T  NBF=    23     4    13    13 NBsUse=    53 1.00D-06 NBFU=    23     4    13    13 Defaulting to unpruned grid for atomic number  53. Harris functional with IExCor=  402 diagonalized for initial guess. ExpMin= 1.05D-01 ExpMax= 1.00D+04 ExpMxC= 3.50D+02 IAcc=3 IRadAn=         5 AccDes= 0.00D+00 HarFok:  IExCor=  402 AccDes= 0.00D+00 IRadAn=         5 IDoV= 1 ScaDFX=  1.000000  1.000000  1.000000  1.000000 Defaulting to unpruned grid for atomic number  53. FoFCou: FMM=F IPFlag=           0 FMFlag=      100000 FMFlg1=           0         NFxFlg=           0 DoJE=T BraDBF=F KetDBF=T FulRan=T         Omega=  0.000000  0.000000  1.000000  0.000000  0.000000 ICntrl=     500 IOpCl=  0         NMat0=    1 NMatS0=    1 NMatT0=    0 NMatD0=    1 NMtDS0=    0 NMtDT0=    0         I1Cent=           4 NGrid=           0. Petite list used in FoFCou. Initial guess orbital symmetries:       Occupied  (A1) (E) (E) (A1) (B2) (A1) (E) (E) (A1) (B2)                 (A1) (E) (E) (A1) (E) (E) (B1) (B2) (A1) (E) (E)                 (B2) (A2) (E) (E) (A1)       Virtual   (A1) (E) (E) (E) (E) (A1) (B1) (E) (E) (A1) (B2)                 (E) (E) (A1) (B2) (E) (E) (A1) (A2) (E) (E) (B2)                 (A1) (A1) (E) (E) (A1) The electronic state of the initial guess is 1-A1. Requested convergence on RMS density matrix=1.00D-09 within 128 cycles. Requested convergence on MAX density matrix=1.00D-07. Requested convergence on             energy=1.00D-07. No special actions if energy rises. Keep R1 ints in memory in canonical form, NReq=2087911. Integral accuracy reduced to 1.0D-05 until final iterations. Defaulting to unpruned grid for atomic number  53. Initial convergence to 1.0D-05 achieved.  Increase integral accuracy. SCF Done:  E(RB3LYP) =  -510.433809797     A.U. after   16 cycles             Convg  =    0.1387D-09             -V/T =  2.0206<module cmlx:lineCount="1" cmlx:templateRef="l801"/> NBasis=    53 NAE=    26 NBE=    26 NFC=     0 NFV=     0 NROrb=     53 NOA=    26 NOB=    26 NVA=    27 NVB=    27   8 Symmetry operations used in ECPInt. ECPInt:  NShTT=     435 NPrTT=    3463 LenC2=     430 LenP2D=    2253. LDataN:  DoStor=T MaxTD1= 5 Len=  102 Symmetrizing basis deriv contribution to polar: IMax=3 JMax=2 DiffMx= 0.00D+00 G2DrvN: will do     7 centers at a time, making    1 passes doing MaxLOS=1. Calling FoFCou, ICntrl=  3107 FMM=F I1Cent=   0 AccDes= 0.00D+00. Defaulting to unpruned grid for atomic number  53. FoFDir/FoFCou used for L=0 through L=1. End of G2Drv Frequency-dependent properties file   721 does not exist. End of G2Drv Frequency-dependent properties file   722 does not exist.          IDoAtm=111111          Differentiating once with respect to electric field.                with respect to dipole field.          Differentiating once with respect to nuclear coordinates. Defaulting to unpruned grid for atomic number  53.          Keep R1 ints in memory in canonical form, NReq=1827492. Defaulting to unpruned grid for atomic number  53.          There are    12 degrees of freedom in the 1st order CPHF.  IDoFFX=4.     12 vectors produced by pass  0 Test12= 5.85D-15 8.33D-09 XBig12= 7.97D+01 5.85D+00. AX will form    12 AO Fock derivatives at one time.     12 vectors produced by pass  1 Test12= 5.85D-15 8.33D-09 XBig12= 2.30D+01 1.70D+00.     12 vectors produced by pass  2 Test12= 5.85D-15 8.33D-09 XBig12= 1.99D-01 1.70D-01.     12 vectors produced by pass  3 Test12= 5.85D-15 8.33D-09 XBig12= 6.99D-03 2.67D-02.     12 vectors produced by pass  4 Test12= 5.85D-15 8.33D-09 XBig12= 1.93D-05 1.36D-03.     12 vectors produced by pass  5 Test12= 5.85D-15 8.33D-09 XBig12= 5.52D-08 7.37D-05.      7 vectors produced by pass  6 Test12= 5.85D-15 8.33D-09 XBig12= 9.83D-11 2.23D-06.      3 vectors produced by pass  7 Test12= 5.85D-15 8.33D-09 XBig12= 1.23D-13 1.04D-07. Inverted reduced A of dimension    82 with in-core refinement. Isotropic polarizability for W=    0.000000       37.62 Bohr**3. End of Minotr Frequency-dependent properties file   721 does not exist. End of Minotr Frequency-dependent properties file   722 does not exist.<module cmlx:lineCount="1402" cmlx:templateRef="l601.popanal"> Orbital symmetries:<module cmlx:lineCount="3" cmlx:templateRef="l4601.occupied"><list cmlx:templateRef="occ"><scalar dataType="xsd:string" dictRef="g:occorbs">(A1) (E) (E) (B2) (A1) (A1) (E) (E) (A1) (B2)</scalar></list><list cmlx:templateRef="occ"><scalar dataType="xsd:string" dictRef="g:occorbs">(A1) (E) (E) (A1) (E) (E) (B1) (B2) (A1) (E) (E)</scalar><scalar dataType="xsd:string" dictRef="g:occorbs">(B2) (E) (E) (A2) (A1)</scalar></list></module><module cmlx:lineCount="3" cmlx:templateRef="l4601.virtual"><list cmlx:templateRef="virt"><scalar dataType="xsd:string" dictRef="g:virtorbs">(A1) (E) (E) (A1) (E) (E) (B1) (E) (E) (A1) (B2)</scalar></list><list cmlx:templateRef="virt"><scalar dataType="xsd:string" dictRef="g:virtorbs">(E) (E) (A1) (B2) (E) (E) (A1) (A2) (E) (E) (B2)</scalar><scalar dataType="xsd:string" dictRef="g:virtorbs">(A1) (A1) (E) (E) (A1)</scalar></list></module><module cmlx:lineCount="1" cmlx:templateRef="l601.state"><scalar dataType="xsd:string" dictRef="g:l601.state">1-A1.</scalar></module><array dataType="xsd:double" size="26" dictRef="g:alphaocc">-24.77684 -24.75063 -24.75063 -24.75063 -24.75062 -1.28634 -1.22505 -1.22505 -1.22394 -1.20485 -0.8642 -0.60745 -0.60745 -0.59791 -0.49225 -0.49225 -0.4813 -0.47563 -0.4663 -0.45731 -0.45731 -0.45563 -0.44651 -0.44651 -0.44003 -0.41027</array><array dataType="xsd:double" size="27" dictRef="g:alphavirt">-0.20015 -0.15795 -0.15795 0.26563 0.29125 0.29125 0.58403 0.602 0.602 0.76497 0.78422 0.80925 0.80925 0.82417 0.84156 0.90888 0.90888 0.93614 0.94993 1.06978 1.06978 1.26538 1.35488 1.46157 1.70897 1.70897 11.29095</array><module cmlx:lineCount="12" cmlx:templateRef="l601.alphabetaeigen"/><list cmlx:templateRef="popanal"><scalar dataType="xsd:string" dictRef="x:popanal">Molecular Orbital Coefficients:</scalar><scalar dataType="xsd:string" dictRef="x:popanal">1         2         3         4         5</scalar><scalar dataType="xsd:string" dictRef="x:popanal">(A1)--O   (E)--O    (E)--O    (B2)--O   (A1)--O</scalar><scalar dataType="xsd:string" dictRef="x:popanal">Eigenvalues --   -24.77684 -24.75063 -24.75063 -24.75063 -24.75062</scalar><scalar dataType="xsd:string" dictRef="x:popanal">1 1   I  1S         -0.00001   0.00000   0.00000   0.00000   0.00000</scalar><scalar dataType="xsd:string" dictRef="x:popanal">2        2S          0.00060   0.00000   0.00000   0.00000   0.00083</scalar><scalar dataType="xsd:string" dictRef="x:popanal">3        3PX         0.00000  -0.00016   0.00000   0.00000   0.00000</scalar><scalar dataType="xsd:string" dictRef="x:popanal">4        3PY         0.00000   0.00000   0.00016   0.00000   0.00000</scalar><scalar dataType="xsd:string" dictRef="x:popanal">5        3PZ        -0.00018   0.00000   0.00000   0.00000  -0.00003</scalar><scalar dataType="xsd:string" dictRef="x:popanal">6        4PX         0.00000  -0.00094   0.00000   0.00000   0.00000</scalar><scalar dataType="xsd:string" dictRef="x:popanal">7        4PY         0.00000   0.00000   0.00094   0.00000   0.00000</scalar><scalar dataType="xsd:string" dictRef="x:popanal">8        4PZ        -0.00042   0.00000   0.00000   0.00000  -0.00031</scalar><scalar dataType="xsd:string" dictRef="x:popanal">9 2   F  1S         -0.00004   0.00000   0.70646   0.49954   0.49954</scalar><scalar dataType="xsd:string" dictRef="x:popanal">10        2S          0.00005   0.00000   0.00324   0.00211   0.00218</scalar><scalar dataType="xsd:string" dictRef="x:popanal">11        3S         -0.00013   0.00000  -0.00163  -0.00071  -0.00091</scalar><scalar dataType="xsd:string" dictRef="x:popanal">12        4PX         0.00000  -0.00002   0.00000   0.00000   0.00000</scalar><scalar dataType="xsd:string" dictRef="x:popanal">13        4PY         0.00001   0.00000  -0.00060  -0.00041  -0.00041</scalar><scalar dataType="xsd:string" dictRef="x:popanal">14        4PZ         0.00001   0.00000   0.00012   0.00007   0.00006</scalar><scalar dataType="xsd:string" dictRef="x:popanal">15        5PX         0.00000   0.00013   0.00000   0.00000   0.00000</scalar><scalar dataType="xsd:string" dictRef="x:popanal">16        5PY         0.00006   0.00000   0.00054   0.00022   0.00033</scalar><scalar dataType="xsd:string" dictRef="x:popanal">17        5PZ        -0.00001   0.00000  -0.00014  -0.00003   0.00000</scalar><scalar dataType="xsd:string" dictRef="x:popanal">18 3   F  1S         -0.00004   0.70646   0.00000  -0.49954   0.49954</scalar><scalar dataType="xsd:string" dictRef="x:popanal">19        2S          0.00005   0.00324   0.00000  -0.00211   0.00218</scalar><scalar dataType="xsd:string" dictRef="x:popanal">20        3S         -0.00013  -0.00163   0.00000   0.00071  -0.00091</scalar><scalar dataType="xsd:string" dictRef="x:popanal">21        4PX        -0.00001   0.00060   0.00000  -0.00041   0.00041</scalar><scalar dataType="xsd:string" dictRef="x:popanal">22        4PY         0.00000   0.00000   0.00002   0.00000   0.00000</scalar><scalar dataType="xsd:string" dictRef="x:popanal">23        4PZ         0.00001   0.00012   0.00000  -0.00007   0.00006</scalar><scalar dataType="xsd:string" dictRef="x:popanal">24        5PX        -0.00006  -0.00054   0.00000   0.00022  -0.00033</scalar><scalar dataType="xsd:string" dictRef="x:popanal">25        5PY         0.00000   0.00000  -0.00013   0.00000   0.00000</scalar><scalar dataType="xsd:string" dictRef="x:popanal">26        5PZ        -0.00001  -0.00014   0.00000   0.00003   0.00000</scalar><scalar dataType="xsd:string" dictRef="x:popanal">27 4   F  1S         -0.00004  -0.70646   0.00000  -0.49954   0.49954</scalar><scalar dataType="xsd:string" dictRef="x:popanal">28        2S          0.00005  -0.00324   0.00000  -0.00211   0.00218</scalar><scalar dataType="xsd:string" dictRef="x:popanal">29        3S         -0.00013   0.00163   0.00000   0.00071  -0.00091</scalar><scalar dataType="xsd:string" dictRef="x:popanal">30        4PX         0.00001   0.00060   0.00000   0.00041  -0.00041</scalar><scalar dataType="xsd:string" dictRef="x:popanal">31        4PY         0.00000   0.00000   0.00002   0.00000   0.00000</scalar><scalar dataType="xsd:string" dictRef="x:popanal">32        4PZ         0.00001  -0.00012   0.00000  -0.00007   0.00006</scalar><scalar dataType="xsd:string" dictRef="x:popanal">33        5PX         0.00006  -0.00054   0.00000  -0.00022   0.00033</scalar><scalar dataType="xsd:string" dictRef="x:popanal">34        5PY         0.00000   0.00000  -0.00013   0.00000   0.00000</scalar><scalar dataType="xsd:string" dictRef="x:popanal">35        5PZ        -0.00001   0.00014   0.00000   0.00003   0.00000</scalar><scalar dataType="xsd:string" dictRef="x:popanal">36 5   F  1S          0.99908   0.00000   0.00000   0.00000   0.00009</scalar><scalar dataType="xsd:string" dictRef="x:popanal">37        2S          0.00442   0.00000   0.00000   0.00000   0.00010</scalar><scalar dataType="xsd:string" dictRef="x:popanal">38        3S         -0.00189   0.00000   0.00000   0.00000  -0.00031</scalar><scalar dataType="xsd:string" dictRef="x:popanal">39        4PX         0.00000   0.00001   0.00000   0.00000   0.00000</scalar><scalar dataType="xsd:string" dictRef="x:popanal">40        4PY         0.00000   0.00000  -0.00001   0.00000   0.00000</scalar><scalar dataType="xsd:string" dictRef="x:popanal">41        4PZ         0.00091   0.00000   0.00000   0.00000  -0.00001</scalar><scalar dataType="xsd:string" dictRef="x:popanal">42        5PX         0.00000   0.00006   0.00000   0.00000   0.00000</scalar><scalar dataType="xsd:string" dictRef="x:popanal">43        5PY         0.00000   0.00000  -0.00006   0.00000   0.00000</scalar><scalar dataType="xsd:string" dictRef="x:popanal">44        5PZ        -0.00069   0.00000   0.00000   0.00000  -0.00011</scalar><scalar dataType="xsd:string" dictRef="x:popanal">45 6   F  1S         -0.00004   0.00000  -0.70646   0.49954   0.49954</scalar><scalar dataType="xsd:string" dictRef="x:popanal">46        2S          0.00005   0.00000  -0.00324   0.00211   0.00218</scalar><scalar dataType="xsd:string" dictRef="x:popanal">47        3S         -0.00013   0.00000   0.00163  -0.00071  -0.00091</scalar><scalar dataType="xsd:string" dictRef="x:popanal">48        4PX         0.00000  -0.00002   0.00000   0.00000   0.00000</scalar><scalar dataType="xsd:string" dictRef="x:popanal">49        4PY        -0.00001   0.00000  -0.00060   0.00041   0.00041</scalar><scalar dataType="xsd:string" dictRef="x:popanal">50        4PZ         0.00001   0.00000  -0.00012   0.00007   0.00006</scalar><scalar dataType="xsd:string" dictRef="x:popanal">51        5PX         0.00000   0.00013   0.00000   0.00000   0.00000</scalar><scalar dataType="xsd:string" dictRef="x:popanal">52        5PY        -0.00006   0.00000   0.00054  -0.00022  -0.00033</scalar><scalar dataType="xsd:string" dictRef="x:popanal">53        5PZ        -0.00001   0.00000   0.00014  -0.00003   0.00000</scalar><scalar dataType="xsd:string" dictRef="x:popanal">6         7         8         9        10</scalar><scalar dataType="xsd:string" dictRef="x:popanal">(A1)--O   (E)--O    (E)--O    (A1)--O   (B2)--O</scalar><scalar dataType="xsd:string" dictRef="x:popanal">Eigenvalues --    -1.28634  -1.22505  -1.22505  -1.22394  -1.20485</scalar><scalar dataType="xsd:string" dictRef="x:popanal">1 1   I  1S          0.13364   0.00000   0.00000  -0.04822   0.00000</scalar><scalar dataType="xsd:string" dictRef="x:popanal">2        2S          0.18850   0.00000   0.00000  -0.06933   0.00000</scalar><scalar dataType="xsd:string" dictRef="x:popanal">3        3PX         0.00000  -0.10930   0.00000   0.00000   0.00000</scalar><scalar dataType="xsd:string" dictRef="x:popanal">4        3PY         0.00000   0.00000   0.10930   0.00000   0.00000</scalar><scalar dataType="xsd:string" dictRef="x:popanal">5        3PZ        -0.07497   0.00000   0.00000  -0.04336   0.00000</scalar><scalar dataType="xsd:string" dictRef="x:popanal">6        4PX         0.00000  -0.01247   0.00000   0.00000   0.00000</scalar><scalar dataType="xsd:string" dictRef="x:popanal">7        4PY         0.00000   0.00000   0.01247   0.00000   0.00000</scalar><scalar dataType="xsd:string" dictRef="x:popanal">8        4PZ        -0.01744   0.00000   0.00000   0.00859   0.00000</scalar><scalar dataType="xsd:string" dictRef="x:popanal">9 2   F  1S         -0.07357   0.00000  -0.17311   0.08728  -0.12662</scalar><scalar dataType="xsd:string" dictRef="x:popanal">10        2S          0.16225   0.00000   0.37330  -0.18760   0.26983</scalar><scalar dataType="xsd:string" dictRef="x:popanal">11        3S          0.13325   0.00000   0.35792  -0.18038   0.27335</scalar><scalar dataType="xsd:string" dictRef="x:popanal">12        4PX         0.00000  -0.00421   0.00000   0.00000   0.00000</scalar><scalar dataType="xsd:string" dictRef="x:popanal">13        4PY        -0.04315   0.00000  -0.07140   0.03508  -0.04372</scalar><scalar dataType="xsd:string" dictRef="x:popanal">14        4PZ         0.00341   0.00000   0.01236  -0.00835   0.00774</scalar><scalar dataType="xsd:string" dictRef="x:popanal">15        5PX         0.00000  -0.00106   0.00000   0.00000   0.00000</scalar><scalar dataType="xsd:string" dictRef="x:popanal">16        5PY        -0.00834   0.00000  -0.03206   0.01902  -0.03118</scalar><scalar dataType="xsd:string" dictRef="x:popanal">17        5PZ         0.00272   0.00000   0.00524  -0.00668   0.00583</scalar><scalar dataType="xsd:string" dictRef="x:popanal">18 3   F  1S         -0.07357  -0.17311   0.00000   0.08728   0.12662</scalar><scalar dataType="xsd:string" dictRef="x:popanal">19        2S          0.16225   0.37330   0.00000  -0.18760  -0.26983</scalar><scalar dataType="xsd:string" dictRef="x:popanal">20        3S          0.13325   0.35792   0.00000  -0.18038  -0.27335</scalar><scalar dataType="xsd:string" dictRef="x:popanal">21        4PX         0.04315   0.07140   0.00000  -0.03508  -0.04372</scalar><scalar dataType="xsd:string" dictRef="x:popanal">22        4PY         0.00000   0.00000   0.00421   0.00000   0.00000</scalar><scalar dataType="xsd:string" dictRef="x:popanal">23        4PZ         0.00341   0.01236   0.00000  -0.00835  -0.00774</scalar><scalar dataType="xsd:string" dictRef="x:popanal">24        5PX         0.00834   0.03206   0.00000  -0.01902  -0.03118</scalar><scalar dataType="xsd:string" dictRef="x:popanal">25        5PY         0.00000   0.00000   0.00106   0.00000   0.00000</scalar><scalar dataType="xsd:string" dictRef="x:popanal">26        5PZ         0.00272   0.00524   0.00000  -0.00668  -0.00583</scalar><scalar dataType="xsd:string" dictRef="x:popanal">27 4   F  1S         -0.07357   0.17311   0.00000   0.08728   0.12662</scalar><scalar dataType="xsd:string" dictRef="x:popanal">28        2S          0.16225  -0.37330   0.00000  -0.18760  -0.26983</scalar><scalar dataType="xsd:string" dictRef="x:popanal">29        3S          0.13325  -0.35792   0.00000  -0.18038  -0.27335</scalar><scalar dataType="xsd:string" dictRef="x:popanal">30        4PX        -0.04315   0.07140   0.00000   0.03508   0.04372</scalar><scalar dataType="xsd:string" dictRef="x:popanal">31        4PY         0.00000   0.00000   0.00421   0.00000   0.00000</scalar><scalar dataType="xsd:string" dictRef="x:popanal">32        4PZ         0.00341  -0.01236   0.00000  -0.00835  -0.00774</scalar><scalar dataType="xsd:string" dictRef="x:popanal">33        5PX        -0.00834   0.03206   0.00000   0.01902   0.03118</scalar><scalar dataType="xsd:string" dictRef="x:popanal">34        5PY         0.00000   0.00000   0.00106   0.00000   0.00000</scalar><scalar dataType="xsd:string" dictRef="x:popanal">35        5PZ         0.00272  -0.00524   0.00000  -0.00668  -0.00583</scalar><scalar dataType="xsd:string" dictRef="x:popanal">36 5   F  1S         -0.16535   0.00000   0.00000  -0.17796   0.00000</scalar><scalar dataType="xsd:string" dictRef="x:popanal">37        2S          0.36280   0.00000   0.00000   0.37953   0.00000</scalar><scalar dataType="xsd:string" dictRef="x:popanal">38        3S          0.31438   0.00000   0.00000   0.38953   0.00000</scalar><scalar dataType="xsd:string" dictRef="x:popanal">39        4PX         0.00000  -0.00659   0.00000   0.00000   0.00000</scalar><scalar dataType="xsd:string" dictRef="x:popanal">40        4PY         0.00000   0.00000   0.00659   0.00000   0.00000</scalar><scalar dataType="xsd:string" dictRef="x:popanal">41        4PZ         0.08938   0.00000   0.00000   0.06490   0.00000</scalar><scalar dataType="xsd:string" dictRef="x:popanal">42        5PX         0.00000  -0.00349   0.00000   0.00000   0.00000</scalar><scalar dataType="xsd:string" dictRef="x:popanal">43        5PY         0.00000   0.00000   0.00349   0.00000   0.00000</scalar><scalar dataType="xsd:string" dictRef="x:popanal">44        5PZ         0.02747   0.00000   0.00000   0.04642   0.00000</scalar><scalar dataType="xsd:string" dictRef="x:popanal">45 6   F  1S         -0.07357   0.00000   0.17311   0.08728  -0.12662</scalar><scalar dataType="xsd:string" dictRef="x:popanal">46        2S          0.16225   0.00000  -0.37330  -0.18760   0.26983</scalar><scalar dataType="xsd:string" dictRef="x:popanal">47        3S          0.13325   0.00000  -0.35792  -0.18038   0.27335</scalar><scalar dataType="xsd:string" dictRef="x:popanal">48        4PX         0.00000  -0.00421   0.00000   0.00000   0.00000</scalar><scalar dataType="xsd:string" dictRef="x:popanal">49        4PY         0.04315   0.00000  -0.07140  -0.03508   0.04372</scalar><scalar dataType="xsd:string" dictRef="x:popanal">50        4PZ         0.00341   0.00000  -0.01236  -0.00835   0.00774</scalar><scalar dataType="xsd:string" dictRef="x:popanal">51        5PX         0.00000  -0.00106   0.00000   0.00000   0.00000</scalar><scalar dataType="xsd:string" dictRef="x:popanal">52        5PY         0.00834   0.00000  -0.03206  -0.01902   0.03118</scalar><scalar dataType="xsd:string" dictRef="x:popanal">53        5PZ         0.00272   0.00000  -0.00524  -0.00668   0.00583</scalar><scalar dataType="xsd:string" dictRef="x:popanal">11        12        13        14        15</scalar><scalar dataType="xsd:string" dictRef="x:popanal">(A1)--O   (E)--O    (E)--O    (A1)--O   (E)--O</scalar><scalar dataType="xsd:string" dictRef="x:popanal">Eigenvalues --    -0.86420  -0.60745  -0.60745  -0.59791  -0.49225</scalar><scalar dataType="xsd:string" dictRef="x:popanal">1 1   I  1S          0.36929   0.00000   0.00000   0.05258   0.00000</scalar><scalar dataType="xsd:string" dictRef="x:popanal">2        2S          0.59880   0.00000   0.00000   0.11765   0.00000</scalar><scalar dataType="xsd:string" dictRef="x:popanal">3        3PX         0.00000   0.00000   0.46512   0.00000   0.00000</scalar><scalar dataType="xsd:string" dictRef="x:popanal">4        3PY         0.00000   0.46512   0.00000   0.00000  -0.06040</scalar><scalar dataType="xsd:string" dictRef="x:popanal">5        3PZ        -0.00213   0.00000   0.00000   0.46936   0.00000</scalar><scalar dataType="xsd:string" dictRef="x:popanal">6        4PX         0.00000   0.00000   0.08028   0.00000   0.00000</scalar><scalar dataType="xsd:string" dictRef="x:popanal">7        4PY         0.00000   0.08028   0.00000   0.00000  -0.00712</scalar><scalar dataType="xsd:string" dictRef="x:popanal">8        4PZ        -0.00827   0.00000   0.00000   0.14889   0.00000</scalar><scalar dataType="xsd:string" dictRef="x:popanal">9 2   F  1S          0.05981   0.05395   0.00000   0.00080  -0.00454</scalar><scalar dataType="xsd:string" dictRef="x:popanal">10        2S         -0.12312  -0.12943   0.00000  -0.00509   0.00978</scalar><scalar dataType="xsd:string" dictRef="x:popanal">11        3S         -0.18571  -0.14003   0.00000   0.00313   0.01323</scalar><scalar dataType="xsd:string" dictRef="x:popanal">12        4PX         0.00000   0.00000   0.10753   0.00000   0.00000</scalar><scalar dataType="xsd:string" dictRef="x:popanal">13        4PY        -0.08461  -0.33821   0.00000   0.01562   0.06226</scalar><scalar dataType="xsd:string" dictRef="x:popanal">14        4PZ         0.01162   0.04438   0.00000   0.12471  -0.30290</scalar><scalar dataType="xsd:string" dictRef="x:popanal">15        5PX         0.00000   0.00000   0.05065   0.00000   0.00000</scalar><scalar dataType="xsd:string" dictRef="x:popanal">16        5PY        -0.00688  -0.14871   0.00000   0.00011   0.02304</scalar><scalar dataType="xsd:string" dictRef="x:popanal">17        5PZ         0.00520   0.01552   0.00000   0.05319  -0.16737</scalar><scalar dataType="xsd:string" dictRef="x:popanal">18 3   F  1S          0.05981   0.00000  -0.05395   0.00080   0.00000</scalar><scalar dataType="xsd:string" dictRef="x:popanal">19        2S         -0.12312   0.00000   0.12943  -0.00509   0.00000</scalar><scalar dataType="xsd:string" dictRef="x:popanal">20        3S         -0.18571   0.00000   0.14003   0.00313   0.00000</scalar><scalar dataType="xsd:string" dictRef="x:popanal">21        4PX         0.08461   0.00000  -0.33821  -0.01562   0.00000</scalar><scalar dataType="xsd:string" dictRef="x:popanal">22        4PY         0.00000   0.10753   0.00000   0.00000  -0.00202</scalar><scalar dataType="xsd:string" dictRef="x:popanal">23        4PZ         0.01162   0.00000  -0.04438   0.12471   0.00000</scalar><scalar dataType="xsd:string" dictRef="x:popanal">24        5PX         0.00688   0.00000  -0.14871  -0.00011   0.00000</scalar><scalar dataType="xsd:string" dictRef="x:popanal">25        5PY         0.00000   0.05065   0.00000   0.00000   0.00309</scalar><scalar dataType="xsd:string" dictRef="x:popanal">26        5PZ         0.00520   0.00000  -0.01552   0.05319   0.00000</scalar><scalar dataType="xsd:string" dictRef="x:popanal">27 4   F  1S          0.05981   0.00000   0.05395   0.00080   0.00000</scalar><scalar dataType="xsd:string" dictRef="x:popanal">28        2S         -0.12312   0.00000  -0.12943  -0.00509   0.00000</scalar><scalar dataType="xsd:string" dictRef="x:popanal">29        3S         -0.18571   0.00000  -0.14003   0.00313   0.00000</scalar><scalar dataType="xsd:string" dictRef="x:popanal">30        4PX        -0.08461   0.00000  -0.33821   0.01562   0.00000</scalar><scalar dataType="xsd:string" dictRef="x:popanal">31        4PY         0.00000   0.10753   0.00000   0.00000  -0.00202</scalar><scalar dataType="xsd:string" dictRef="x:popanal">32        4PZ         0.01162   0.00000   0.04438   0.12471   0.00000</scalar><scalar dataType="xsd:string" dictRef="x:popanal">33        5PX        -0.00688   0.00000  -0.14871   0.00011   0.00000</scalar><scalar dataType="xsd:string" dictRef="x:popanal">34        5PY         0.00000   0.05065   0.00000   0.00000   0.00309</scalar><scalar dataType="xsd:string" dictRef="x:popanal">35        5PZ         0.00520   0.00000   0.01552   0.05319   0.00000</scalar><scalar dataType="xsd:string" dictRef="x:popanal">36 5   F  1S          0.06053   0.00000   0.00000  -0.05955   0.00000</scalar><scalar dataType="xsd:string" dictRef="x:popanal">37        2S         -0.12323   0.00000   0.00000   0.14342   0.00000</scalar><scalar dataType="xsd:string" dictRef="x:popanal">38        3S         -0.19552   0.00000   0.00000   0.16158   0.00000</scalar><scalar dataType="xsd:string" dictRef="x:popanal">39        4PX         0.00000   0.00000   0.14653   0.00000   0.00000</scalar><scalar dataType="xsd:string" dictRef="x:popanal">40        4PY         0.00000   0.14653   0.00000   0.00000   0.58619</scalar><scalar dataType="xsd:string" dictRef="x:popanal">41        4PZ         0.09912   0.00000   0.00000  -0.44294   0.00000</scalar><scalar dataType="xsd:string" dictRef="x:popanal">42        5PX         0.00000   0.00000   0.06597   0.00000   0.00000</scalar><scalar dataType="xsd:string" dictRef="x:popanal">43        5PY         0.00000   0.06597   0.00000   0.00000   0.30332</scalar><scalar dataType="xsd:string" dictRef="x:popanal">44        5PZ         0.01074   0.00000   0.00000  -0.19939   0.00000</scalar><scalar dataType="xsd:string" dictRef="x:popanal">45 6   F  1S          0.05981  -0.05395   0.00000   0.00080   0.00454</scalar><scalar dataType="xsd:string" dictRef="x:popanal">46        2S         -0.12312   0.12943   0.00000  -0.00509  -0.00978</scalar><scalar dataType="xsd:string" dictRef="x:popanal">47        3S         -0.18571   0.14003   0.00000   0.00313  -0.01323</scalar><scalar dataType="xsd:string" dictRef="x:popanal">48        4PX         0.00000   0.00000   0.10753   0.00000   0.00000</scalar><scalar dataType="xsd:string" dictRef="x:popanal">49        4PY         0.08461  -0.33821   0.00000  -0.01562   0.06226</scalar><scalar dataType="xsd:string" dictRef="x:popanal">50        4PZ         0.01162  -0.04438   0.00000   0.12471   0.30290</scalar><scalar dataType="xsd:string" dictRef="x:popanal">51        5PX         0.00000   0.00000   0.05065   0.00000   0.00000</scalar><scalar dataType="xsd:string" dictRef="x:popanal">52        5PY         0.00688  -0.14871   0.00000  -0.00011   0.02304</scalar><scalar dataType="xsd:string" dictRef="x:popanal">53        5PZ         0.00520  -0.01552   0.00000   0.05319   0.16737</scalar><scalar dataType="xsd:string" dictRef="x:popanal">16        17        18        19        20</scalar><scalar dataType="xsd:string" dictRef="x:popanal">(E)--O    (B1)--O   (B2)--O   (A1)--O   (E)--O</scalar><scalar dataType="xsd:string" dictRef="x:popanal">Eigenvalues --    -0.49225  -0.48130  -0.47563  -0.46630  -0.45731</scalar><scalar dataType="xsd:string" dictRef="x:popanal">1 1   I  1S          0.00000   0.00000   0.00000   0.01222   0.00000</scalar><scalar dataType="xsd:string" dictRef="x:popanal">2        2S          0.00000   0.00000   0.00000   0.02786   0.00000</scalar><scalar dataType="xsd:string" dictRef="x:popanal">3        3PX        -0.06040   0.00000   0.00000   0.00000   0.00000</scalar><scalar dataType="xsd:string" dictRef="x:popanal">4        3PY         0.00000   0.00000   0.00000   0.00000  -0.04023</scalar><scalar dataType="xsd:string" dictRef="x:popanal">5        3PZ         0.00000   0.00000   0.00000   0.02466   0.00000</scalar><scalar dataType="xsd:string" dictRef="x:popanal">6        4PX        -0.00712   0.00000   0.00000   0.00000   0.00000</scalar><scalar dataType="xsd:string" dictRef="x:popanal">7        4PY         0.00000   0.00000   0.00000   0.00000   0.10918</scalar><scalar dataType="xsd:string" dictRef="x:popanal">8        4PZ         0.00000   0.00000   0.00000   0.14181   0.00000</scalar><scalar dataType="xsd:string" dictRef="x:popanal">9 2   F  1S          0.00000   0.00000  -0.01654  -0.00539  -0.00196</scalar><scalar dataType="xsd:string" dictRef="x:popanal">10        2S          0.00000   0.00000   0.05284   0.01616   0.01465</scalar><scalar dataType="xsd:string" dictRef="x:popanal">11        3S          0.00000   0.00000   0.00933   0.00671  -0.03472</scalar><scalar dataType="xsd:string" dictRef="x:popanal">12        4PX        -0.00202   0.35959   0.00000   0.00000   0.00000</scalar><scalar dataType="xsd:string" dictRef="x:popanal">13        4PY         0.00000   0.00000   0.36302   0.18529   0.16648</scalar><scalar dataType="xsd:string" dictRef="x:popanal">14        4PZ         0.00000   0.00000  -0.06720   0.25137  -0.00081</scalar><scalar dataType="xsd:string" dictRef="x:popanal">15        5PX         0.00309   0.20061   0.00000   0.00000   0.00000</scalar><scalar dataType="xsd:string" dictRef="x:popanal">16        5PY         0.00000   0.00000   0.20451   0.09811   0.09490</scalar><scalar dataType="xsd:string" dictRef="x:popanal">17        5PZ         0.00000   0.00000  -0.03727   0.11494  -0.00427</scalar><scalar dataType="xsd:string" dictRef="x:popanal">18 3   F  1S          0.00454   0.00000   0.01654  -0.00539   0.00000</scalar><scalar dataType="xsd:string" dictRef="x:popanal">19        2S         -0.00978   0.00000  -0.05284   0.01616   0.00000</scalar><scalar dataType="xsd:string" dictRef="x:popanal">20        3S         -0.01323   0.00000  -0.00933   0.00671   0.00000</scalar><scalar dataType="xsd:string" dictRef="x:popanal">21        4PX         0.06226   0.00000   0.36302  -0.18529   0.00000</scalar><scalar dataType="xsd:string" dictRef="x:popanal">22        4PY         0.00000  -0.35959   0.00000   0.00000   0.50908</scalar><scalar dataType="xsd:string" dictRef="x:popanal">23        4PZ         0.30290   0.00000   0.06720   0.25137   0.00000</scalar><scalar dataType="xsd:string" dictRef="x:popanal">24        5PX         0.02304   0.00000   0.20451  -0.09811   0.00000</scalar><scalar dataType="xsd:string" dictRef="x:popanal">25        5PY         0.00000  -0.20061   0.00000   0.00000   0.24468</scalar><scalar dataType="xsd:string" dictRef="x:popanal">26        5PZ         0.16737   0.00000   0.03727   0.11494   0.00000</scalar><scalar dataType="xsd:string" dictRef="x:popanal">27 4   F  1S         -0.00454   0.00000   0.01654  -0.00539   0.00000</scalar><scalar dataType="xsd:string" dictRef="x:popanal">28        2S          0.00978   0.00000  -0.05284   0.01616   0.00000</scalar><scalar dataType="xsd:string" dictRef="x:popanal">29        3S          0.01323   0.00000  -0.00933   0.00671   0.00000</scalar><scalar dataType="xsd:string" dictRef="x:popanal">30        4PX         0.06226   0.00000  -0.36302   0.18529   0.00000</scalar><scalar dataType="xsd:string" dictRef="x:popanal">31        4PY         0.00000   0.35959   0.00000   0.00000   0.50908</scalar><scalar dataType="xsd:string" dictRef="x:popanal">32        4PZ        -0.30290   0.00000   0.06720   0.25137   0.00000</scalar><scalar dataType="xsd:string" dictRef="x:popanal">33        5PX         0.02304   0.00000  -0.20451   0.09811   0.00000</scalar><scalar dataType="xsd:string" dictRef="x:popanal">34        5PY         0.00000   0.20061   0.00000   0.00000   0.24468</scalar><scalar dataType="xsd:string" dictRef="x:popanal">35        5PZ        -0.16737   0.00000   0.03727   0.11494   0.00000</scalar><scalar dataType="xsd:string" dictRef="x:popanal">36 5   F  1S          0.00000   0.00000   0.00000   0.00541   0.00000</scalar><scalar dataType="xsd:string" dictRef="x:popanal">37        2S          0.00000   0.00000   0.00000  -0.03205   0.00000</scalar><scalar dataType="xsd:string" dictRef="x:popanal">38        3S          0.00000   0.00000   0.00000   0.05550   0.00000</scalar><scalar dataType="xsd:string" dictRef="x:popanal">39        4PX         0.58619   0.00000   0.00000   0.00000   0.00000</scalar><scalar dataType="xsd:string" dictRef="x:popanal">40        4PY         0.00000   0.00000   0.00000   0.00000  -0.03301</scalar><scalar dataType="xsd:string" dictRef="x:popanal">41        4PZ         0.00000   0.00000   0.00000   0.41985   0.00000</scalar><scalar dataType="xsd:string" dictRef="x:popanal">42        5PX         0.30332   0.00000   0.00000   0.00000   0.00000</scalar><scalar dataType="xsd:string" dictRef="x:popanal">43        5PY         0.00000   0.00000   0.00000   0.00000  -0.02566</scalar><scalar dataType="xsd:string" dictRef="x:popanal">44        5PZ         0.00000   0.00000   0.00000   0.23483   0.00000</scalar><scalar dataType="xsd:string" dictRef="x:popanal">45 6   F  1S          0.00000   0.00000  -0.01654  -0.00539   0.00196</scalar><scalar dataType="xsd:string" dictRef="x:popanal">46        2S          0.00000   0.00000   0.05284   0.01616  -0.01465</scalar><scalar dataType="xsd:string" dictRef="x:popanal">47        3S          0.00000   0.00000   0.00933   0.00671   0.03472</scalar><scalar dataType="xsd:string" dictRef="x:popanal">48        4PX        -0.00202  -0.35959   0.00000   0.00000   0.00000</scalar><scalar dataType="xsd:string" dictRef="x:popanal">49        4PY         0.00000   0.00000  -0.36302  -0.18529   0.16648</scalar><scalar dataType="xsd:string" dictRef="x:popanal">50        4PZ         0.00000   0.00000  -0.06720   0.25137   0.00081</scalar><scalar dataType="xsd:string" dictRef="x:popanal">51        5PX         0.00309  -0.20061   0.00000   0.00000   0.00000</scalar><scalar dataType="xsd:string" dictRef="x:popanal">52        5PY         0.00000   0.00000  -0.20451  -0.09811   0.09490</scalar><scalar dataType="xsd:string" dictRef="x:popanal">53        5PZ         0.00000   0.00000  -0.03727   0.11494   0.00427</scalar><scalar dataType="xsd:string" dictRef="x:popanal">21        22        23        24        25</scalar><scalar dataType="xsd:string" dictRef="x:popanal">(E)--O    (B2)--O   (E)--O    (E)--O    (A2)--O</scalar><scalar dataType="xsd:string" dictRef="x:popanal">Eigenvalues --    -0.45731  -0.45563  -0.44651  -0.44651  -0.44003</scalar><scalar dataType="xsd:string" dictRef="x:popanal">1 1   I  1S          0.00000   0.00000   0.00000   0.00000   0.00000</scalar><scalar dataType="xsd:string" dictRef="x:popanal">2        2S          0.00000   0.00000   0.00000   0.00000   0.00000</scalar><scalar dataType="xsd:string" dictRef="x:popanal">3        3PX        -0.04023   0.00000   0.00000  -0.02227   0.00000</scalar><scalar dataType="xsd:string" dictRef="x:popanal">4        3PY         0.00000   0.00000  -0.02227   0.00000   0.00000</scalar><scalar dataType="xsd:string" dictRef="x:popanal">5        3PZ         0.00000   0.00000   0.00000   0.00000   0.00000</scalar><scalar dataType="xsd:string" dictRef="x:popanal">6        4PX         0.10918   0.00000   0.00000   0.07705   0.00000</scalar><scalar dataType="xsd:string" dictRef="x:popanal">7        4PY         0.00000   0.00000   0.07705   0.00000   0.00000</scalar><scalar dataType="xsd:string" dictRef="x:popanal">8        4PZ         0.00000   0.00000   0.00000   0.00000   0.00000</scalar><scalar dataType="xsd:string" dictRef="x:popanal">9 2   F  1S          0.00000   0.00037   0.00112   0.00000   0.00000</scalar><scalar dataType="xsd:string" dictRef="x:popanal">10        2S          0.00000  -0.00159   0.00358   0.00000   0.00000</scalar><scalar dataType="xsd:string" dictRef="x:popanal">11        3S          0.00000   0.00029  -0.02864   0.00000   0.00000</scalar><scalar dataType="xsd:string" dictRef="x:popanal">12        4PX         0.50908   0.00000   0.00000  -0.03202   0.39050</scalar><scalar dataType="xsd:string" dictRef="x:popanal">13        4PY         0.00000   0.07078   0.14286   0.00000   0.00000</scalar><scalar dataType="xsd:string" dictRef="x:popanal">14        4PZ         0.00000   0.37307   0.42550   0.00000   0.00000</scalar><scalar dataType="xsd:string" dictRef="x:popanal">15        5PX         0.24468   0.00000   0.00000  -0.02540   0.18494</scalar><scalar dataType="xsd:string" dictRef="x:popanal">16        5PY         0.00000   0.03533   0.08021   0.00000   0.00000</scalar><scalar dataType="xsd:string" dictRef="x:popanal">17        5PZ         0.00000   0.18749   0.20720   0.00000   0.00000</scalar><scalar dataType="xsd:string" dictRef="x:popanal">18 3   F  1S          0.00196  -0.00037   0.00000  -0.00112   0.00000</scalar><scalar dataType="xsd:string" dictRef="x:popanal">19        2S         -0.01465   0.00159   0.00000  -0.00358   0.00000</scalar><scalar dataType="xsd:string" dictRef="x:popanal">20        3S          0.03472  -0.00029   0.00000   0.02864   0.00000</scalar><scalar dataType="xsd:string" dictRef="x:popanal">21        4PX         0.16648   0.07078   0.00000   0.14286   0.00000</scalar><scalar dataType="xsd:string" dictRef="x:popanal">22        4PY         0.00000   0.00000  -0.03202   0.00000   0.39050</scalar><scalar dataType="xsd:string" dictRef="x:popanal">23        4PZ         0.00081  -0.37307   0.00000  -0.42550   0.00000</scalar><scalar dataType="xsd:string" dictRef="x:popanal">24        5PX         0.09490   0.03533   0.00000   0.08021   0.00000</scalar><scalar dataType="xsd:string" dictRef="x:popanal">25        5PY         0.00000   0.00000  -0.02540   0.00000   0.18494</scalar><scalar dataType="xsd:string" dictRef="x:popanal">26        5PZ         0.00427  -0.18749   0.00000  -0.20720   0.00000</scalar><scalar dataType="xsd:string" dictRef="x:popanal">27 4   F  1S         -0.00196  -0.00037   0.00000   0.00112   0.00000</scalar><scalar dataType="xsd:string" dictRef="x:popanal">28        2S          0.01465   0.00159   0.00000   0.00358   0.00000</scalar><scalar dataType="xsd:string" dictRef="x:popanal">29        3S         -0.03472  -0.00029   0.00000  -0.02864   0.00000</scalar><scalar dataType="xsd:string" dictRef="x:popanal">30        4PX         0.16648  -0.07078   0.00000   0.14286   0.00000</scalar><scalar dataType="xsd:string" dictRef="x:popanal">31        4PY         0.00000   0.00000  -0.03202   0.00000  -0.39050</scalar><scalar dataType="xsd:string" dictRef="x:popanal">32        4PZ        -0.00081  -0.37307   0.00000   0.42550   0.00000</scalar><scalar dataType="xsd:string" dictRef="x:popanal">33        5PX         0.09490  -0.03533   0.00000   0.08021   0.00000</scalar><scalar dataType="xsd:string" dictRef="x:popanal">34        5PY         0.00000   0.00000  -0.02540   0.00000  -0.18494</scalar><scalar dataType="xsd:string" dictRef="x:popanal">35        5PZ        -0.00427  -0.18749   0.00000   0.20720   0.00000</scalar><scalar dataType="xsd:string" dictRef="x:popanal">36 5   F  1S          0.00000   0.00000   0.00000   0.00000   0.00000</scalar><scalar dataType="xsd:string" dictRef="x:popanal">37        2S          0.00000   0.00000   0.00000   0.00000   0.00000</scalar><scalar dataType="xsd:string" dictRef="x:popanal">38        3S          0.00000   0.00000   0.00000   0.00000   0.00000</scalar><scalar dataType="xsd:string" dictRef="x:popanal">39        4PX        -0.03301   0.00000   0.00000   0.45298   0.00000</scalar><scalar dataType="xsd:string" dictRef="x:popanal">40        4PY         0.00000   0.00000   0.45298   0.00000   0.00000</scalar><scalar dataType="xsd:string" dictRef="x:popanal">41        4PZ         0.00000   0.00000   0.00000   0.00000   0.00000</scalar><scalar dataType="xsd:string" dictRef="x:popanal">42        5PX        -0.02566   0.00000   0.00000   0.19259   0.00000</scalar><scalar dataType="xsd:string" dictRef="x:popanal">43        5PY         0.00000   0.00000   0.19259   0.00000   0.00000</scalar><scalar dataType="xsd:string" dictRef="x:popanal">44        5PZ         0.00000   0.00000   0.00000   0.00000   0.00000</scalar><scalar dataType="xsd:string" dictRef="x:popanal">45 6   F  1S          0.00000   0.00037  -0.00112   0.00000   0.00000</scalar><scalar dataType="xsd:string" dictRef="x:popanal">46        2S          0.00000  -0.00159  -0.00358   0.00000   0.00000</scalar><scalar dataType="xsd:string" dictRef="x:popanal">47        3S          0.00000   0.00029   0.02864   0.00000   0.00000</scalar><scalar dataType="xsd:string" dictRef="x:popanal">48        4PX         0.50908   0.00000   0.00000  -0.03202  -0.39050</scalar><scalar dataType="xsd:string" dictRef="x:popanal">49        4PY         0.00000  -0.07078   0.14286   0.00000   0.00000</scalar><scalar dataType="xsd:string" dictRef="x:popanal">50        4PZ         0.00000   0.37307  -0.42550   0.00000   0.00000</scalar><scalar dataType="xsd:string" dictRef="x:popanal">51        5PX         0.24468   0.00000   0.00000  -0.02540  -0.18494</scalar><scalar dataType="xsd:string" dictRef="x:popanal">52        5PY         0.00000  -0.03533   0.08021   0.00000   0.00000</scalar><scalar dataType="xsd:string" dictRef="x:popanal">53        5PZ         0.00000   0.18749  -0.20720   0.00000   0.00000</scalar><scalar dataType="xsd:string" dictRef="x:popanal">26        27        28        29        30</scalar><scalar dataType="xsd:string" dictRef="x:popanal">(A1)--O   (A1)--V   (E)--V    (E)--V    (A1)--V</scalar><scalar dataType="xsd:string" dictRef="x:popanal">Eigenvalues --    -0.41027  -0.20015  -0.15795  -0.15795   0.26563</scalar><scalar dataType="xsd:string" dictRef="x:popanal">1 1   I  1S          0.15120  -0.18404   0.00000   0.00000  -0.07036</scalar><scalar dataType="xsd:string" dictRef="x:popanal">2        2S          0.35235  -0.42958   0.00000   0.00000  -0.17202</scalar><scalar dataType="xsd:string" dictRef="x:popanal">3        3PX         0.00000   0.00000   0.00000   0.66760   0.00000</scalar><scalar dataType="xsd:string" dictRef="x:popanal">4        3PY         0.00000   0.00000   0.66760   0.00000   0.00000</scalar><scalar dataType="xsd:string" dictRef="x:popanal">5        3PZ         0.24625   0.54887   0.00000   0.00000  -1.22886</scalar><scalar dataType="xsd:string" dictRef="x:popanal">6        4PX         0.00000   0.00000   0.00000   0.56014   0.00000</scalar><scalar dataType="xsd:string" dictRef="x:popanal">7        4PY         0.00000   0.00000   0.56014   0.00000   0.00000</scalar><scalar dataType="xsd:string" dictRef="x:popanal">8        4PZ         0.10938   0.48372   0.00000   0.00000   1.70994</scalar><scalar dataType="xsd:string" dictRef="x:popanal">9 2   F  1S         -0.00187  -0.01312   0.03968   0.00000  -0.00568</scalar><scalar dataType="xsd:string" dictRef="x:popanal">10        2S          0.01483   0.02486  -0.07450   0.00000   0.00443</scalar><scalar dataType="xsd:string" dictRef="x:popanal">11        3S         -0.03411   0.08463  -0.26303   0.00000   0.08156</scalar><scalar dataType="xsd:string" dictRef="x:popanal">12        4PX         0.00000   0.00000   0.00000  -0.14741   0.00000</scalar><scalar dataType="xsd:string" dictRef="x:popanal">13        4PY         0.26809  -0.19287   0.36803   0.00000  -0.00047</scalar><scalar dataType="xsd:string" dictRef="x:popanal">14        4PZ        -0.23939  -0.09915  -0.10318   0.00000  -0.07311</scalar><scalar dataType="xsd:string" dictRef="x:popanal">15        5PX         0.00000   0.00000   0.00000  -0.09408   0.00000</scalar><scalar dataType="xsd:string" dictRef="x:popanal">16        5PY         0.15498  -0.12297   0.25367   0.00000  -0.04765</scalar><scalar dataType="xsd:string" dictRef="x:popanal">17        5PZ        -0.12900  -0.07132  -0.04746   0.00000  -0.09025</scalar><scalar dataType="xsd:string" dictRef="x:popanal">18 3   F  1S         -0.00187  -0.01312   0.00000  -0.03968  -0.00568</scalar><scalar dataType="xsd:string" dictRef="x:popanal">19        2S          0.01483   0.02486   0.00000   0.07450   0.00443</scalar><scalar dataType="xsd:string" dictRef="x:popanal">20        3S         -0.03411   0.08463   0.00000   0.26303   0.08156</scalar><scalar dataType="xsd:string" dictRef="x:popanal">21        4PX        -0.26809   0.19287   0.00000   0.36803   0.00047</scalar><scalar dataType="xsd:string" dictRef="x:popanal">22        4PY         0.00000   0.00000  -0.14741   0.00000   0.00000</scalar><scalar dataType="xsd:string" dictRef="x:popanal">23        4PZ        -0.23939  -0.09915   0.00000   0.10318  -0.07311</scalar><scalar dataType="xsd:string" dictRef="x:popanal">24        5PX        -0.15498   0.12297   0.00000   0.25367   0.04765</scalar><scalar dataType="xsd:string" dictRef="x:popanal">25        5PY         0.00000   0.00000  -0.09408   0.00000   0.00000</scalar><scalar dataType="xsd:string" dictRef="x:popanal">26        5PZ        -0.12900  -0.07132   0.00000   0.04746  -0.09025</scalar><scalar dataType="xsd:string" dictRef="x:popanal">27 4   F  1S         -0.00187  -0.01312   0.00000   0.03968  -0.00568</scalar><scalar dataType="xsd:string" dictRef="x:popanal">28        2S          0.01483   0.02486   0.00000  -0.07450   0.00443</scalar><scalar dataType="xsd:string" dictRef="x:popanal">29        3S         -0.03411   0.08463   0.00000  -0.26303   0.08156</scalar><scalar dataType="xsd:string" dictRef="x:popanal">30        4PX         0.26809  -0.19287   0.00000   0.36803  -0.00047</scalar><scalar dataType="xsd:string" dictRef="x:popanal">31        4PY         0.00000   0.00000  -0.14741   0.00000   0.00000</scalar><scalar dataType="xsd:string" dictRef="x:popanal">32        4PZ        -0.23939  -0.09915   0.00000  -0.10318  -0.07311</scalar><scalar dataType="xsd:string" dictRef="x:popanal">33        5PX         0.15498  -0.12297   0.00000   0.25367  -0.04765</scalar><scalar dataType="xsd:string" dictRef="x:popanal">34        5PY         0.00000   0.00000  -0.09408   0.00000   0.00000</scalar><scalar dataType="xsd:string" dictRef="x:popanal">35        5PZ        -0.12900  -0.07132   0.00000  -0.04746  -0.09025</scalar><scalar dataType="xsd:string" dictRef="x:popanal">36 5   F  1S          0.00005  -0.04004   0.00000   0.00000  -0.02055</scalar><scalar dataType="xsd:string" dictRef="x:popanal">37        2S         -0.01333   0.06322   0.00000   0.00000  -0.02357</scalar><scalar dataType="xsd:string" dictRef="x:popanal">38        3S          0.03205   0.30257   0.00000   0.00000   0.48942</scalar><scalar dataType="xsd:string" dictRef="x:popanal">39        4PX         0.00000   0.00000   0.00000  -0.11780   0.00000</scalar><scalar dataType="xsd:string" dictRef="x:popanal">40        4PY         0.00000   0.00000  -0.11780   0.00000   0.00000</scalar><scalar dataType="xsd:string" dictRef="x:popanal">41        4PZ         0.03125   0.45497   0.00000   0.00000  -0.23069</scalar><scalar dataType="xsd:string" dictRef="x:popanal">42        5PX         0.00000   0.00000   0.00000  -0.09076   0.00000</scalar><scalar dataType="xsd:string" dictRef="x:popanal">43        5PY         0.00000   0.00000  -0.09076   0.00000   0.00000</scalar><scalar dataType="xsd:string" dictRef="x:popanal">44        5PZ         0.04108   0.31239   0.00000   0.00000   0.18542</scalar><scalar dataType="xsd:string" dictRef="x:popanal">45 6   F  1S         -0.00187  -0.01312  -0.03968   0.00000  -0.00568</scalar><scalar dataType="xsd:string" dictRef="x:popanal">46        2S          0.01483   0.02486   0.07450   0.00000   0.00443</scalar><scalar dataType="xsd:string" dictRef="x:popanal">47        3S         -0.03411   0.08463   0.26303   0.00000   0.08156</scalar><scalar dataType="xsd:string" dictRef="x:popanal">48        4PX         0.00000   0.00000   0.00000  -0.14741   0.00000</scalar><scalar dataType="xsd:string" dictRef="x:popanal">49        4PY        -0.26809   0.19287   0.36803   0.00000   0.00047</scalar><scalar dataType="xsd:string" dictRef="x:popanal">50        4PZ        -0.23939  -0.09915   0.10318   0.00000  -0.07311</scalar><scalar dataType="xsd:string" dictRef="x:popanal">51        5PX         0.00000   0.00000   0.00000  -0.09408   0.00000</scalar><scalar dataType="xsd:string" dictRef="x:popanal">52        5PY        -0.15498   0.12297   0.25367   0.00000   0.04765</scalar><scalar dataType="xsd:string" dictRef="x:popanal">53        5PZ        -0.12900  -0.07132   0.04746   0.00000  -0.09025</scalar><scalar dataType="xsd:string" dictRef="x:popanal">31        32        33        34        35</scalar><scalar dataType="xsd:string" dictRef="x:popanal">(E)--V    (E)--V    (B1)--V   (E)--V    (E)--V</scalar><scalar dataType="xsd:string" dictRef="x:popanal">Eigenvalues --     0.29125   0.29125   0.58403   0.60200   0.60200</scalar><scalar dataType="xsd:string" dictRef="x:popanal">1 1   I  1S          0.00000   0.00000   0.00000   0.00000   0.00000</scalar><scalar dataType="xsd:string" dictRef="x:popanal">2        2S          0.00000   0.00000   0.00000   0.00000   0.00000</scalar><scalar dataType="xsd:string" dictRef="x:popanal">3        3PX        -1.18124   0.00000   0.00000   0.00000  -0.12363</scalar><scalar dataType="xsd:string" dictRef="x:popanal">4        3PY         0.00000  -1.18124   0.00000  -0.12363   0.00000</scalar><scalar dataType="xsd:string" dictRef="x:popanal">5        3PZ         0.00000   0.00000   0.00000   0.00000   0.00000</scalar><scalar dataType="xsd:string" dictRef="x:popanal">6        4PX         1.90516   0.00000   0.00000   0.00000  -0.11954</scalar><scalar dataType="xsd:string" dictRef="x:popanal">7        4PY         0.00000   1.90516   0.00000  -0.11954   0.00000</scalar><scalar dataType="xsd:string" dictRef="x:popanal">8        4PZ         0.00000   0.00000   0.00000   0.00000   0.00000</scalar><scalar dataType="xsd:string" dictRef="x:popanal">9 2   F  1S          0.00000   0.03262   0.00000   0.00404   0.00000</scalar><scalar dataType="xsd:string" dictRef="x:popanal">10        2S          0.00000  -0.03384   0.00000  -0.05612   0.00000</scalar><scalar dataType="xsd:string" dictRef="x:popanal">11        3S          0.00000  -0.49359   0.00000   0.09354   0.00000</scalar><scalar dataType="xsd:string" dictRef="x:popanal">12        4PX        -0.10784   0.00000  -0.43774   0.00000  -0.10318</scalar><scalar dataType="xsd:string" dictRef="x:popanal">13        4PY         0.00000  -0.19344   0.00000   0.12732   0.00000</scalar><scalar dataType="xsd:string" dictRef="x:popanal">14        4PZ         0.00000  -0.05034   0.00000   0.42764   0.00000</scalar><scalar dataType="xsd:string" dictRef="x:popanal">15        5PX        -0.09355   0.00000   0.48299   0.00000   0.13083</scalar><scalar dataType="xsd:string" dictRef="x:popanal">16        5PY         0.00000   0.20760   0.00000  -0.17652   0.00000</scalar><scalar dataType="xsd:string" dictRef="x:popanal">17        5PZ         0.00000   0.00562   0.00000  -0.45815   0.00000</scalar><scalar dataType="xsd:string" dictRef="x:popanal">18 3   F  1S         -0.03262   0.00000   0.00000   0.00000  -0.00404</scalar><scalar dataType="xsd:string" dictRef="x:popanal">19        2S          0.03384   0.00000   0.00000   0.00000   0.05612</scalar><scalar dataType="xsd:string" dictRef="x:popanal">20        3S          0.49359   0.00000   0.00000   0.00000  -0.09354</scalar><scalar dataType="xsd:string" dictRef="x:popanal">21        4PX        -0.19344   0.00000   0.00000   0.00000   0.12732</scalar><scalar dataType="xsd:string" dictRef="x:popanal">22        4PY         0.00000  -0.10784   0.43774  -0.10318   0.00000</scalar><scalar dataType="xsd:string" dictRef="x:popanal">23        4PZ         0.05034   0.00000   0.00000   0.00000  -0.42764</scalar><scalar dataType="xsd:string" dictRef="x:popanal">24        5PX         0.20760   0.00000   0.00000   0.00000  -0.17652</scalar><scalar dataType="xsd:string" dictRef="x:popanal">25        5PY         0.00000  -0.09355  -0.48299   0.13083   0.00000</scalar><scalar dataType="xsd:string" dictRef="x:popanal">26        5PZ        -0.00562   0.00000   0.00000   0.00000   0.45815</scalar><scalar dataType="xsd:string" dictRef="x:popanal">27 4   F  1S          0.03262   0.00000   0.00000   0.00000   0.00404</scalar><scalar dataType="xsd:string" dictRef="x:popanal">28        2S         -0.03384   0.00000   0.00000   0.00000  -0.05612</scalar><scalar dataType="xsd:string" dictRef="x:popanal">29        3S         -0.49359   0.00000   0.00000   0.00000   0.09354</scalar><scalar dataType="xsd:string" dictRef="x:popanal">30        4PX        -0.19344   0.00000   0.00000   0.00000   0.12732</scalar><scalar dataType="xsd:string" dictRef="x:popanal">31        4PY         0.00000  -0.10784  -0.43774  -0.10318   0.00000</scalar><scalar dataType="xsd:string" dictRef="x:popanal">32        4PZ        -0.05034   0.00000   0.00000   0.00000   0.42764</scalar><scalar dataType="xsd:string" dictRef="x:popanal">33        5PX         0.20760   0.00000   0.00000   0.00000  -0.17652</scalar><scalar dataType="xsd:string" dictRef="x:popanal">34        5PY         0.00000  -0.09355   0.48299   0.13083   0.00000</scalar><scalar dataType="xsd:string" dictRef="x:popanal">35        5PZ         0.00562   0.00000   0.00000   0.00000  -0.45815</scalar><scalar dataType="xsd:string" dictRef="x:popanal">36 5   F  1S          0.00000   0.00000   0.00000   0.00000   0.00000</scalar><scalar dataType="xsd:string" dictRef="x:popanal">37        2S          0.00000   0.00000   0.00000   0.00000   0.00000</scalar><scalar dataType="xsd:string" dictRef="x:popanal">38        3S          0.00000   0.00000   0.00000   0.00000   0.00000</scalar><scalar dataType="xsd:string" dictRef="x:popanal">39        4PX        -0.05059   0.00000   0.00000   0.00000  -0.58198</scalar><scalar dataType="xsd:string" dictRef="x:popanal">40        4PY         0.00000  -0.05059   0.00000  -0.58198   0.00000</scalar><scalar dataType="xsd:string" dictRef="x:popanal">41        4PZ         0.00000   0.00000   0.00000   0.00000   0.00000</scalar><scalar dataType="xsd:string" dictRef="x:popanal">42        5PX        -0.13128   0.00000   0.00000   0.00000   0.65610</scalar><scalar dataType="xsd:string" dictRef="x:popanal">43        5PY         0.00000  -0.13128   0.00000   0.65610   0.00000</scalar><scalar dataType="xsd:string" dictRef="x:popanal">44        5PZ         0.00000   0.00000   0.00000   0.00000   0.00000</scalar><scalar dataType="xsd:string" dictRef="x:popanal">45 6   F  1S          0.00000  -0.03262   0.00000  -0.00404   0.00000</scalar><scalar dataType="xsd:string" dictRef="x:popanal">46        2S          0.00000   0.03384   0.00000   0.05612   0.00000</scalar><scalar dataType="xsd:string" dictRef="x:popanal">47        3S          0.00000   0.49359   0.00000  -0.09354   0.00000</scalar><scalar dataType="xsd:string" dictRef="x:popanal">48        4PX        -0.10784   0.00000   0.43774   0.00000  -0.10318</scalar><scalar dataType="xsd:string" dictRef="x:popanal">49        4PY         0.00000  -0.19344   0.00000   0.12732   0.00000</scalar><scalar dataType="xsd:string" dictRef="x:popanal">50        4PZ         0.00000   0.05034   0.00000  -0.42764   0.00000</scalar><scalar dataType="xsd:string" dictRef="x:popanal">51        5PX        -0.09355   0.00000  -0.48299   0.00000   0.13083</scalar><scalar dataType="xsd:string" dictRef="x:popanal">52        5PY         0.00000   0.20760   0.00000  -0.17652   0.00000</scalar><scalar dataType="xsd:string" dictRef="x:popanal">53        5PZ         0.00000  -0.00562   0.00000   0.45815   0.00000</scalar><scalar dataType="xsd:string" dictRef="x:popanal">36        37        38        39        40</scalar><scalar dataType="xsd:string" dictRef="x:popanal">(A1)--V   (B2)--V   (E)--V    (E)--V    (A1)--V</scalar><scalar dataType="xsd:string" dictRef="x:popanal">Eigenvalues --     0.76497   0.78422   0.80925   0.80925   0.82417</scalar><scalar dataType="xsd:string" dictRef="x:popanal">1 1   I  1S         -0.05720   0.00000   0.00000   0.00000   0.17993</scalar><scalar dataType="xsd:string" dictRef="x:popanal">2        2S         -0.18346   0.00000   0.00000   0.00000   0.74937</scalar><scalar dataType="xsd:string" dictRef="x:popanal">3        3PX         0.00000   0.00000   0.00000  -0.21954   0.00000</scalar><scalar dataType="xsd:string" dictRef="x:popanal">4        3PY         0.00000   0.00000  -0.21954   0.00000   0.00000</scalar><scalar dataType="xsd:string" dictRef="x:popanal">5        3PZ         0.21740   0.00000   0.00000   0.00000  -0.23482</scalar><scalar dataType="xsd:string" dictRef="x:popanal">6        4PX         0.00000   0.00000   0.00000  -0.39669   0.00000</scalar><scalar dataType="xsd:string" dictRef="x:popanal">7        4PY         0.00000   0.00000  -0.39669   0.00000   0.00000</scalar><scalar dataType="xsd:string" dictRef="x:popanal">8        4PZ         0.45336   0.00000   0.00000   0.00000  -0.06277</scalar><scalar dataType="xsd:string" dictRef="x:popanal">9 2   F  1S         -0.00585   0.00318  -0.02636   0.00000   0.01617</scalar><scalar dataType="xsd:string" dictRef="x:popanal">10        2S          0.03348  -0.03535   0.12791   0.00000  -0.06333</scalar><scalar dataType="xsd:string" dictRef="x:popanal">11        3S          0.00700   0.03766   0.04901   0.00000  -0.05097</scalar><scalar dataType="xsd:string" dictRef="x:popanal">12        4PX         0.00000   0.00000   0.00000  -0.51632   0.00000</scalar><scalar dataType="xsd:string" dictRef="x:popanal">13        4PY        -0.02790   0.09233   0.26071   0.00000  -0.41805</scalar><scalar dataType="xsd:string" dictRef="x:popanal">14        4PZ         0.34493  -0.42876  -0.06372   0.00000   0.03859</scalar><scalar dataType="xsd:string" dictRef="x:popanal">15        5PX         0.00000   0.00000   0.00000   0.71275   0.00000</scalar><scalar dataType="xsd:string" dictRef="x:popanal">16        5PY        -0.00069  -0.12096  -0.45947   0.00000   0.65701</scalar><scalar dataType="xsd:string" dictRef="x:popanal">17        5PZ        -0.47046   0.54898   0.10044   0.00000  -0.05893</scalar><scalar dataType="xsd:string" dictRef="x:popanal">18 3   F  1S         -0.00585  -0.00318   0.00000   0.02636   0.01617</scalar><scalar dataType="xsd:string" dictRef="x:popanal">19        2S          0.03348   0.03535   0.00000  -0.12791  -0.06333</scalar><scalar dataType="xsd:string" dictRef="x:popanal">20        3S          0.00700  -0.03766   0.00000  -0.04901  -0.05097</scalar><scalar dataType="xsd:string" dictRef="x:popanal">21        4PX         0.02790   0.09233   0.00000   0.26071   0.41805</scalar><scalar dataType="xsd:string" dictRef="x:popanal">22        4PY         0.00000   0.00000  -0.51632   0.00000   0.00000</scalar><scalar dataType="xsd:string" dictRef="x:popanal">23        4PZ         0.34493   0.42876   0.00000   0.06372   0.03859</scalar><scalar dataType="xsd:string" dictRef="x:popanal">24        5PX         0.00069  -0.12096   0.00000  -0.45947  -0.65701</scalar><scalar dataType="xsd:string" dictRef="x:popanal">25        5PY         0.00000   0.00000   0.71275   0.00000   0.00000</scalar><scalar dataType="xsd:string" dictRef="x:popanal">26        5PZ        -0.47046  -0.54898   0.00000  -0.10044  -0.05893</scalar><scalar dataType="xsd:string" dictRef="x:popanal">27 4   F  1S         -0.00585  -0.00318   0.00000  -0.02636   0.01617</scalar><scalar dataType="xsd:string" dictRef="x:popanal">28        2S          0.03348   0.03535   0.00000   0.12791  -0.06333</scalar><scalar dataType="xsd:string" dictRef="x:popanal">29        3S          0.00700  -0.03766   0.00000   0.04901  -0.05097</scalar><scalar dataType="xsd:string" dictRef="x:popanal">30        4PX        -0.02790  -0.09233   0.00000   0.26071  -0.41805</scalar><scalar dataType="xsd:string" dictRef="x:popanal">31        4PY         0.00000   0.00000  -0.51632   0.00000   0.00000</scalar><scalar dataType="xsd:string" dictRef="x:popanal">32        4PZ         0.34493   0.42876   0.00000  -0.06372   0.03859</scalar><scalar dataType="xsd:string" dictRef="x:popanal">33        5PX        -0.00069   0.12096   0.00000  -0.45947   0.65701</scalar><scalar dataType="xsd:string" dictRef="x:popanal">34        5PY         0.00000   0.00000   0.71275   0.00000   0.00000</scalar><scalar dataType="xsd:string" dictRef="x:popanal">35        5PZ        -0.47046  -0.54898   0.00000   0.10044  -0.05893</scalar><scalar dataType="xsd:string" dictRef="x:popanal">36 5   F  1S         -0.00435   0.00000   0.00000   0.00000   0.01541</scalar><scalar dataType="xsd:string" dictRef="x:popanal">37        2S         -0.08488   0.00000   0.00000   0.00000  -0.05748</scalar><scalar dataType="xsd:string" dictRef="x:popanal">38        3S          0.28329   0.00000   0.00000   0.00000  -0.07624</scalar><scalar dataType="xsd:string" dictRef="x:popanal">39        4PX         0.00000   0.00000   0.00000   0.20459   0.00000</scalar><scalar dataType="xsd:string" dictRef="x:popanal">40        4PY         0.00000   0.00000   0.20459   0.00000   0.00000</scalar><scalar dataType="xsd:string" dictRef="x:popanal">41        4PZ        -0.52013   0.00000   0.00000   0.00000   0.11362</scalar><scalar dataType="xsd:string" dictRef="x:popanal">42        5PX         0.00000   0.00000   0.00000  -0.23842   0.00000</scalar><scalar dataType="xsd:string" dictRef="x:popanal">43        5PY         0.00000   0.00000  -0.23842   0.00000   0.00000</scalar><scalar dataType="xsd:string" dictRef="x:popanal">44        5PZ         0.81116   0.00000   0.00000   0.00000  -0.29110</scalar><scalar dataType="xsd:string" dictRef="x:popanal">45 6   F  1S         -0.00585   0.00318   0.02636   0.00000   0.01617</scalar><scalar dataType="xsd:string" dictRef="x:popanal">46        2S          0.03348  -0.03535  -0.12791   0.00000  -0.06333</scalar><scalar dataType="xsd:string" dictRef="x:popanal">47        3S          0.00700   0.03766  -0.04901   0.00000  -0.05097</scalar><scalar dataType="xsd:string" dictRef="x:popanal">48        4PX         0.00000   0.00000   0.00000  -0.51632   0.00000</scalar><scalar dataType="xsd:string" dictRef="x:popanal">49        4PY         0.02790  -0.09233   0.26071   0.00000   0.41805</scalar><scalar dataType="xsd:string" dictRef="x:popanal">50        4PZ         0.34493  -0.42876   0.06372   0.00000   0.03859</scalar><scalar dataType="xsd:string" dictRef="x:popanal">51        5PX         0.00000   0.00000   0.00000   0.71275   0.00000</scalar><scalar dataType="xsd:string" dictRef="x:popanal">52        5PY         0.00069   0.12096  -0.45947   0.00000  -0.65701</scalar><scalar dataType="xsd:string" dictRef="x:popanal">53        5PZ        -0.47046   0.54898  -0.10044   0.00000  -0.05893</scalar><scalar dataType="xsd:string" dictRef="x:popanal">41        42        43        44        45</scalar><scalar dataType="xsd:string" dictRef="x:popanal">(B2)--V   (E)--V    (E)--V    (A1)--V   (A2)--V</scalar><scalar dataType="xsd:string" dictRef="x:popanal">Eigenvalues --     0.84156   0.90888   0.90888   0.93614   0.94993</scalar><scalar dataType="xsd:string" dictRef="x:popanal">1 1   I  1S          0.00000   0.00000   0.00000  -0.01345   0.00000</scalar><scalar dataType="xsd:string" dictRef="x:popanal">2        2S          0.00000   0.00000   0.00000  -0.17017   0.00000</scalar><scalar dataType="xsd:string" dictRef="x:popanal">3        3PX         0.00000   0.00000   0.53887   0.00000   0.00000</scalar><scalar dataType="xsd:string" dictRef="x:popanal">4        3PY         0.00000   0.53887   0.00000   0.00000   0.00000</scalar><scalar dataType="xsd:string" dictRef="x:popanal">5        3PZ         0.00000   0.00000   0.00000   0.58093   0.00000</scalar><scalar dataType="xsd:string" dictRef="x:popanal">6        4PX         0.00000   0.00000  -0.10000   0.00000   0.00000</scalar><scalar dataType="xsd:string" dictRef="x:popanal">7        4PY         0.00000  -0.10000   0.00000   0.00000   0.00000</scalar><scalar dataType="xsd:string" dictRef="x:popanal">8        4PZ         0.00000   0.00000   0.00000  -0.71980   0.00000</scalar><scalar dataType="xsd:string" dictRef="x:popanal">9 2   F  1S          0.00504   0.01653   0.00000   0.00818   0.00000</scalar><scalar dataType="xsd:string" dictRef="x:popanal">10        2S         -0.02085  -0.09291   0.00000  -0.06617   0.00000</scalar><scalar dataType="xsd:string" dictRef="x:popanal">11        3S          0.00087   0.04655   0.00000   0.04716   0.00000</scalar><scalar dataType="xsd:string" dictRef="x:popanal">12        4PX         0.00000   0.00000  -0.18511   0.00000  -0.44056</scalar><scalar dataType="xsd:string" dictRef="x:popanal">13        4PY        -0.44440  -0.36315   0.00000  -0.08769   0.00000</scalar><scalar dataType="xsd:string" dictRef="x:popanal">14        4PZ        -0.08362   0.34549   0.00000  -0.24844   0.00000</scalar><scalar dataType="xsd:string" dictRef="x:popanal">15        5PX         0.00000   0.00000   0.25674   0.00000   0.62094</scalar><scalar dataType="xsd:string" dictRef="x:popanal">16        5PY         0.59737   0.59667   0.00000   0.12575   0.00000</scalar><scalar dataType="xsd:string" dictRef="x:popanal">17        5PZ         0.11035  -0.50226   0.00000   0.42229   0.00000</scalar><scalar dataType="xsd:string" dictRef="x:popanal">18 3   F  1S         -0.00504   0.00000  -0.01653   0.00818   0.00000</scalar><scalar dataType="xsd:string" dictRef="x:popanal">19        2S          0.02085   0.00000   0.09291  -0.06617   0.00000</scalar><scalar dataType="xsd:string" dictRef="x:popanal">20        3S         -0.00087   0.00000  -0.04655   0.04716   0.00000</scalar><scalar dataType="xsd:string" dictRef="x:popanal">21        4PX        -0.44440   0.00000  -0.36315   0.08769   0.00000</scalar><scalar dataType="xsd:string" dictRef="x:popanal">22        4PY         0.00000  -0.18511   0.00000   0.00000  -0.44056</scalar><scalar dataType="xsd:string" dictRef="x:popanal">23        4PZ         0.08362   0.00000  -0.34549  -0.24844   0.00000</scalar><scalar dataType="xsd:string" dictRef="x:popanal">24        5PX         0.59737   0.00000   0.59667  -0.12575   0.00000</scalar><scalar dataType="xsd:string" dictRef="x:popanal">25        5PY         0.00000   0.25674   0.00000   0.00000   0.62094</scalar><scalar dataType="xsd:string" dictRef="x:popanal">26        5PZ        -0.11035   0.00000   0.50226   0.42229   0.00000</scalar><scalar dataType="xsd:string" dictRef="x:popanal">27 4   F  1S         -0.00504   0.00000   0.01653   0.00818   0.00000</scalar><scalar dataType="xsd:string" dictRef="x:popanal">28        2S          0.02085   0.00000  -0.09291  -0.06617   0.00000</scalar><scalar dataType="xsd:string" dictRef="x:popanal">29        3S         -0.00087   0.00000   0.04655   0.04716   0.00000</scalar><scalar dataType="xsd:string" dictRef="x:popanal">30        4PX         0.44440   0.00000  -0.36315  -0.08769   0.00000</scalar><scalar dataType="xsd:string" dictRef="x:popanal">31        4PY         0.00000  -0.18511   0.00000   0.00000   0.44056</scalar><scalar dataType="xsd:string" dictRef="x:popanal">32        4PZ         0.08362   0.00000   0.34549  -0.24844   0.00000</scalar><scalar dataType="xsd:string" dictRef="x:popanal">33        5PX        -0.59737   0.00000   0.59667   0.12575   0.00000</scalar><scalar dataType="xsd:string" dictRef="x:popanal">34        5PY         0.00000   0.25674   0.00000   0.00000  -0.62094</scalar><scalar dataType="xsd:string" dictRef="x:popanal">35        5PZ        -0.11035   0.00000  -0.50226   0.42229   0.00000</scalar><scalar dataType="xsd:string" dictRef="x:popanal">36 5   F  1S          0.00000   0.00000   0.00000  -0.03827   0.00000</scalar><scalar dataType="xsd:string" dictRef="x:popanal">37        2S          0.00000   0.00000 
[...]
47  ( 99.9729%)        Valence non-Lewis    0.00000  (  0.0000%)        Rydberg non-Lewis    0.00259  (  0.0271%)       -------------------------------            Total unit  3    9.55306  (100.0000%)           Charge unit  3   -0.55306   8 Symmetry operations used in ECPInt. ECPInt:  NShTT=     435 NPrTT=    3463 LenC2=     436 LenP2D=    3143. LDataN:  DoStor=T MaxTD1= 6 Len=  172 Calling FoFJK, ICntrl=    100127 FMM=F ISym2X=1 I1Cent= 0 IOpClX= 0 NMat=1 NMatS=1 NMatT=0. Defaulting to unpruned grid for atomic number  53.<module cmlx:lineCount="166" cmlx:templateRef="l716"><module cmlx:lineCount="62" cmlx:templateRef="l716.forcematrix"> Full mass-weighted force constant matrix: Low frequencies ---   -8.3918    0.0007    0.0009    0.0013    6.4002    6.4002 Low frequencies ---  149.7537  149.7537  162.6161<module cmlx:lineCount="1" cmlx:templateRef="l716.diagvib"/>       22.2247692      22.2247692      25.6773429<array dataType="xsd:integer" size="12" dictRef="x:serial">1 2 3 4 5 6 7 8 9 10 11 12</array><array delimiter="|" dataType="xsd:string" size="12" dictRef="cc:irrep">|E|E|B2|B1|A1|E|E|B2|A1|A1|E|E|</array><array dataType="xsd:double" size="12" dictRef="cc:frequency">149.7537 149.7537 162.6161 214.2841 256.4753 287.0491 287.0491 516.5755 528.8244 578.9014 587.6217 587.6217</array><array dataType="xsd:double" size="12" dictRef="cc:redmass">20.2116 20.2116 18.9984 18.9984 25.0048 20.0585 20.0585 18.9984 19.0066 21.672 24.2381 24.2381</array><array dataType="xsd:double" size="12" dictRef="cc:forceconst">0.2671 0.2671 0.296 0.514 0.9691 0.9738 0.9738 2.987 3.1317 4.2792 4.9311 4.9311</array><array dataType="xsd:double" size="12" dictRef="cc:irintensity">6.4758 6.4758 0.0 0.0 57.7166 9.5685 9.5685 0.0 0.2652 25.3953 145.3591 145.3591</array><module cmlx:lineCount="57" cmlx:templateRef="l716.freq.chunkx"><array dataType="xsd:integer" size="6" dictRef="x:serial">1 2 3 4 5 6</array><array dataType="xsd:integer" size="6" dictRef="cc:atomicNumber">53 9 9 9 9 9</array><array dataType="xsd:double" size="216" dictRef="cc:displacement">-0.11 0.0 0.0 0.0 -0.11 0.0 0.0 0.0 0.0 0.65 0.0 0.0 0.0 -0.14 0.08 0.0 0.08 0.49 -0.14 0.0 -0.08 0.0 0.65 0.0 0.08 0.0 -0.49 -0.14 0.0 0.08 0.0 0.65 0.0 -0.08 0.0 -0.49 -0.31 0.0 0.0 0.0 -0.31 0.0 0.0 0.0 0.0 0.65 0.0 0.0 0.0 -0.14 -0.08 0.0 -0.08 0.49 0.0 0.0 0.0 0.0 0.0 0.24 0.1 0.0 0.0 0.5 0.0 0.0 0.0 -0.14 -0.45 -0.14 0.0 0.0 0.0 -0.5 0.0 0.14 0.0 -0.45 0.2 0.0 -0.37 0.0 0.5 0.0 -0.14 0.0 -0.45 0.2 0.0 0.37 0.0 0.0 0.0 0.0 0.0 0.23 -0.77 0.0 0.0 -0.5 0.0 0.0 0.0 0.14 -0.45 -0.14 0.0 0.0 0.0 -0.1 0.0 0.0 0.0 0.0 0.0 0.0 -0.01 0.0 -0.2 -0.37 0.0 0.49 -0.08 0.0 -0.46 0.1 0.0 0.14 0.0 0.49 0.0 0.08 0.46 0.0 0.1 0.0 0.14 0.0 -0.49 0.0 0.08 -0.46 0.0 0.1 0.0 0.77 0.0 0.0 0.0 0.0 0.0 0.0 -0.33 0.0 -0.2 0.37 0.0 -0.49 -0.08 0.0 0.46 0.1 0.0 0.0 0.16 0.0 0.22 0.0 0.22 0.0 0.0 0.0 0.15 -0.03 0.0 -0.68 0.11 -0.04 0.0 0.0 -0.15 0.0 -0.03 0.0 -0.04 0.0 -0.68 0.0 -0.11 0.15 0.0 -0.03 0.0 -0.04 0.0 -0.68 0.0 0.11 0.0 0.0 -0.94 0.0 -0.03 0.0 -0.03 0.0 0.0 0.0 -0.15 -0.03 0.0 -0.68 -0.11 -0.04 0.0 0.0</array></module></module><module cmlx:lineCount="31" cmlx:templateRef="l716.thermochemistry"> ------------------- - Thermochemistry - -------------------<scalar dataType="xsd:double" dictRef="cc:temp">298.15</scalar><scalar dataType="xsd:double" dictRef="cc:press">1.0</scalar><list cmlx:lineCount="6" cmlx:templateRef="mass"><array dataType="xsd:integer" dictRef="cc:serial" size="6">1 2 3 4 5 6</array><array dataType="xsd:integer" dictRef="x:elementType" size="6">53 9 9 9 9 9</array><array dataType="xsd:double" dictRef="cc:atomicmass" size="6">126.9004 18.9984 18.9984 18.9984 18.9984 18.9984</array></list><scalar dataType="xsd:double" dictRef="cc:molmass" cmlx:templateRef="molmass">221.89242</scalar><scalar dataType="xsd:integer" dictRef="cc:symmnumber">4</scalar> Warning -- assumption of classical behavior for rotation           may cause significant error<array dataType="xsd:double" size="3" dictRef="cc:rottemp" cmlx:templateRef="rottemp">0.11589 0.11589 0.08263</array><array dataType="xsd:double" size="3" dictRef="cc:rotconst" cmlx:templateRef="rotconst">2.41476 2.41476 1.72172</array><scalar dataType="xsd:double" dictRef="cc:zpe" units="u:jmol-1">25758.7</scalar> Warning -- explicit consideration of  12 degrees of freedom as           vibrations may cause significant error<array dataType="xsd:double" size="10" dictRef="cc:vibtemp">215.46 215.46 233.97 308.31 369.01 413.0 413.0 743.24 760.86 832.91</array> </module><module cmlx:lineCount="9" cmlx:templateRef="l716.zeropoint"><scalar dataType="xsd:string" dictRef="cc:zpe.correction">0.009811</scalar><scalar dataType="xsd:string" dictRef="cc:zpe.thermalcorrener">0.017364</scalar><scalar dataType="xsd:string" dictRef="cc:zpe.thermalcorrenthalpy">0.018308</scalar><scalar dataType="xsd:string" dictRef="cc:zpe.thermalcorrgfe">-0.021786</scalar><scalar dataType="xsd:string" dictRef="cc:zpe.sumelectzpe">-510.423999</scalar><scalar dataType="xsd:string" dictRef="cc:zpe.sumelectthermal">-510.416446</scalar><scalar dataType="xsd:string" dictRef="cc:zpe.sumelectthermal">-510.415502</scalar><scalar dataType="xsd:string" dictRef="cc:zpe.sumelectthermalfe">-510.455595</scalar> </module><module cmlx:lineCount="1" cmlx:templateRef="l716.thermoprops"/>                      KCal/Mol        Cal/Mol-Kelvin    Cal/Mol-Kelvin Total                   10.896             24.215             84.384 Electronic               0.000              0.000              0.000 Translational            0.889              2.981             42.094 Rotational               0.889              2.981             25.107 Vibrational              9.118             18.254             17.183 Vibration     1          0.618              1.903              2.675 Vibration     2          0.618              1.903              2.675 Vibration     3          0.623              1.888              2.519 Vibration     4          0.644              1.819              2.007 Vibration     5          0.666              1.752              1.686 Vibration     6          0.684              1.698              1.491 Vibration     7          0.684              1.698              1.491 Vibration     8          0.872              1.213              0.618 Vibration     9          0.884              1.186              0.590 Vibration    10          0.935              1.077              0.487 Vibration    11          0.945              1.058              0.471 Vibration    12          0.945              1.058              0.471                       Q            Log10(Q)             Ln(Q) Total Bot       0.104881D+11         10.020697         23.073506 Total V=0       0.341529D+15         14.533428         33.464455 Vib (Bot)       0.117889D-02         -2.928526         -6.743179 Vib (Bot)    1  0.135411D+01          0.131655          0.303147 Vib (Bot)    2  0.135411D+01          0.131655          0.303147 Vib (Bot)    3  0.124220D+01          0.094192          0.216884 Vib (Bot)    4  0.925278D+00         -0.033728         -0.077662 Vib (Bot)    5  0.758617D+00         -0.119977         -0.276258 Vib (Bot)    6  0.667272D+00         -0.175697         -0.404558 Vib (Bot)    7  0.667272D+00         -0.175697         -0.404558 Vib (Bot)    8  0.313449D+00         -0.503833         -1.160118 Vib (Bot)    9  0.302755D+00         -0.518909         -1.194833 Vib (Bot)   10  0.263516D+00         -0.579193         -1.333641 Vib (Bot)   11  0.257338D+00         -0.589496         -1.357365 Vib (Bot)   12  0.257338D+00         -0.589496         -1.357365 Vib (V=0)       0.383889D+02          1.584206          3.647769 Vib (V=0)    1  0.194348D+01          0.288579          0.664478 Vib (V=0)    2  0.194348D+01          0.288579          0.664478 Vib (V=0)    3  0.183905D+01          0.264594          0.609250 Vib (V=0)    4  0.155173D+01          0.190816          0.439371 Vib (V=0)    5  0.140857D+01          0.148778          0.342575 Vib (V=0)    6  0.133382D+01          0.125096          0.288045 Vib (V=0)    7  0.133382D+01          0.125096          0.288045 Vib (V=0)    8  0.109013D+01          0.037477          0.086295 Vib (V=0)    9  0.108452D+01          0.035236          0.081135 Vib (V=0)   10  0.106519D+01          0.027427          0.063154 Vib (V=0)   11  0.106234D+01          0.026262          0.060471 Vib (V=0)   12  0.106234D+01          0.026262          0.060471 Electronic      0.100000D+01          0.000000          0.000000 Translational   0.129918D+09          8.113669         18.682413 Rotational      0.684783D+05          4.835553         11.134273 ***** Axes restored to original set *****<module cmlx:lineCount="12" cmlx:templateRef="l716.forces"><molecule id="l716.forces" cmlx:templateRef="force"><atomArray><atom id="a1" elementType="I"><scalar dataType="xsd:integer" dictRef="x:serial">1</scalar><scalar dataType="xsd:double" dictRef="x:dx3">9.2618E-5</scalar><scalar dataType="xsd:double" dictRef="x:dy3">-6.70492E-4</scalar><scalar dataType="xsd:double" dictRef="x:dz3">9.4402E-5</scalar><scalar dataType="xsd:integer" dictRef="compchem:atomicNumber">53</scalar></atom><atom id="a2" elementType="F"><scalar dataType="xsd:integer" dictRef="x:serial">2</scalar><scalar dataType="xsd:double" dictRef="x:dx3">-1.1863E-5</scalar><scalar dataType="xsd:double" dictRef="x:dy3">8.5881E-5</scalar><scalar dataType="xsd:double" dictRef="x:dz3">1.55266E-4</scalar><scalar dataType="xsd:integer" dictRef="compchem:atomicNumber">9</scalar></atom><atom id="a3" elementType="F"><scalar dataType="xsd:integer" dictRef="x:serial">3</scalar><scalar dataType="xsd:double" dictRef="x:dx3">1.55464E-4</scalar><scalar dataType="xsd:double" dictRef="x:dy3">8.5881E-5</scalar><scalar dataType="xsd:double" dictRef="x:dz3">-8.898E-6</scalar><scalar dataType="xsd:integer" dictRef="compchem:atomicNumber">9</scalar></atom><atom id="a4" elementType="F"><scalar dataType="xsd:integer" dictRef="x:serial">4</scalar><scalar dataType="xsd:double" dictRef="x:dx3">-1.72924E-4</scalar><scalar dataType="xsd:double" dictRef="x:dy3">4.052E-5</scalar><scalar dataType="xsd:double" dictRef="x:dz3">-8.898E-6</scalar><scalar dataType="xsd:integer" dictRef="compchem:atomicNumber">9</scalar></atom><atom id="a5" elementType="F"><scalar dataType="xsd:integer" dictRef="x:serial">5</scalar><scalar dataType="xsd:double" dictRef="x:dx3">-5.7697E-5</scalar><scalar dataType="xsd:double" dictRef="x:dy3">4.1769E-4</scalar><scalar dataType="xsd:double" dictRef="x:dz3">-5.8809E-5</scalar><scalar dataType="xsd:integer" dictRef="compchem:atomicNumber">9</scalar></atom><atom id="a6" elementType="F"><scalar dataType="xsd:integer" dictRef="x:serial">6</scalar><scalar dataType="xsd:double" dictRef="x:dx3">-5.597E-6</scalar><scalar dataType="xsd:double" dictRef="x:dy3">4.052E-5</scalar><scalar dataType="xsd:double" dictRef="x:dz3">-1.73063E-4</scalar><scalar dataType="xsd:integer" dictRef="compchem:atomicNumber">9</scalar></atom></atomArray><formula formalCharge="0" concise="F 5 I 1"><atomArray elementType="F I" count="5.0 1.0"/></formula><property dictRef="cml:molmass"><scalar dataType="xsd:double" units="unit:dalton" xmlns:unit="http://www.xml-cml.org/unit/si/">221.89648599999998</scalar></property></molecule><list cmlx:templateRef="cartesianforce"><scalar dataType="xsd:double" dictRef="cc:maxforce">6.70492E-4</scalar><scalar dataType="xsd:double" dictRef="cc:rmsforce">2.07471E-4</scalar></list></module></module> -----------------------------------------------------------------------------------------------                       Internal Coordinate Forces (Hartree/Bohr or radian)  Cent   Atom   N1       Length/X         N2         Alpha/Y        N3         Beta/Z          J -----------------------------------------------------------------------------------------------      1  I       2  F        1   0.000155(     1)      3  F        1   0.000155(     2)      2   0.000044(     6)      4  F        1   0.000155(     3)      2   0.000044(     7)      3   0.000322(    10)     0      5  F        1  -0.000426(     4)      2   0.000325(     8)      4   0.000000(    11)     0      6  F        1   0.000155(     5)      5   0.000325(     9)      3   0.000000(    12)     0 ----------------------------------------------------------------------------------------------- Internal  Forces:  Max     0.000425737 RMS     0.000222992<module cmlx:lineCount="57" cmlx:templateRef="l103"><list cmlx:templateRef="berny"><scalar dataType="xsd:string" dictRef="g:optimization">Search for a local minimum.</scalar></list> Step number   1 out of a maximum of    2 All quantities printed in internal units (Hartrees-Bohrs-Radians) Second derivative matrix not updated -- analytic derivatives used. The second derivative matrix:                          B1        B2        B3        B4        B5           B1           0.19155           B2           0.00214   0.19155           B3           0.00214   0.00454   0.19155           B4           0.00070   0.00070   0.00070   0.20846           B5           0.00454   0.00214   0.00214   0.00070   0.19155           A1          -0.01280  -0.01335   0.01061   0.00229   0.01157           A2          -0.01280  -0.00157  -0.00117   0.00229   0.01157           A3          -0.00513  -0.00282  -0.00622   0.01672  -0.01489           A4          -0.01148  -0.00452  -0.00452   0.01672  -0.00854           D1          -0.00279  -0.00676  -0.01307   0.01656  -0.00616           D2           0.00000   0.00461  -0.00461   0.00000   0.00000           D3           0.00000  -0.01218   0.01218   0.00000   0.00000                          A1        A2        A3        A4        D1           A1           0.23268           A2           0.10443   0.22817           A3          -0.00236  -0.00173   0.29861           A4          -0.03087  -0.03087   0.06418   0.30637           D1           0.04761  -0.00698   0.04121   0.05037   0.29478           D2           0.09209  -0.01777  -0.01036   0.00000   0.23483           D3           0.11348   0.10896  -0.03102   0.00000   0.02180                          D2        D3           D2           0.47966           D3           0.07430   0.22239     Eigenvalues ---    0.08784   0.10907   0.12917   0.18488   0.19053     Eigenvalues ---    0.19130   0.19718   0.20714   0.24628   0.35066     Eigenvalues ---    0.45343   0.68982 Angle between quadratic step and forces=  21.29 degrees. Linear search not attempted -- first point.<module cmlx:lineCount="2" cmlx:templateRef="l103.deltas"/>    B1        3.74991   0.00016   0.00000   0.00091   0.00091   3.75082    B2        3.74991   0.00016   0.00000   0.00091   0.00091   3.75082    B3        3.74991   0.00016   0.00000   0.00091   0.00091   3.75082    B4        3.67515  -0.00043   0.00000  -0.00233  -0.00233   3.67282    B5        3.74991   0.00016   0.00000   0.00091   0.00091   3.75082    A1        1.55171   0.00004   0.00000   0.00024   0.00024   1.55195    A2        1.55171   0.00004   0.00000   0.00023   0.00023   1.55195    A3        1.43222   0.00033   0.00000   0.00086   0.00086   1.43308    A4        1.43222   0.00033   0.00000   0.00086   0.00086   1.43308    D1        2.86706   0.00032   0.00000   0.00168   0.00168   2.86874    D2       -1.43353   0.00000   0.00000  -0.00084  -0.00084  -1.43437    D3        1.57080   0.00000   0.00000   0.00000   0.00000   1.57080<module cmlx:lineCount="5" cmlx:templateRef="l103.itemconverge"><list cmlx:lineCount="4" cmlx:templateRef="row"><array dataType="xsd:string" dictRef="g:item"/><array dataType="xsd:double" dictRef="g:value" size="4">4.5E-4 3.0E-4 0.0018 0.0012</array><array dataType="xsd:double" dictRef="g:threshold" size="4">0.0 0.0 0.0 0.0</array><array dataType="xsd:string" dictRef="g:converged" size="4">YES YES NO YES</array></list></module><module cmlx:lineCount="1" cmlx:templateRef="preddelta"><list cmlx:templateRef="predicted"><scalar dataType="xsd:double" dictRef="g:predchange">-1.340622E-6</scalar></list></module> GradGradGradGradGradGradGradGradGradGradGradGradGradGradGradGradGradGrad</module><module cmlx:lineCount="1" cmlx:templateRef="l9999.archive"><scalar dictRef="g:ginc1" dataType="xsd:string">1\1\GINC-CX1-14-33-2\Freq\RB3LYP\LANL2DZ\F5I1\SCAN-USER-1\11-Mar-2010\</scalar></module> 1\\# freq rb3lyp/lanl2dz pop=(nbo,full) geom=connectivity int=ultrafin e scf=conver=9\\IF5a Frequency\\0,1\I\F,1,B1\F,1,B2,2,A1\F,1,B3,2,A2,3 ,D1,0\F,1,B4,2,A3,4,D2,0\F,1,B5,5,A4,3,D3,0\\B1=1.98436652\B2=1.984366 52\B3=1.98436652\B4=1.94480732\B5=1.98436652\A1=88.90666622\A2=88.9066 6622\A3=82.06009286\A4=82.06009286\D1=164.27050363\D2=-82.13525181\D3= 90.\\Version=EM64L-G09RevA.02\State=1-A1\HF=-510.4338098\RMSD=1.387e-1 0\RMSF=2.075e-04\ZeroPoint=0.009811\Thermal=0.0173636\Dipole=-0.212301 2,1.5369176,-0.2163915\DipoleDeriv=2.8334862,0.0932222,-0.0131253,0.09 32222,2.1714978,0.0950182,-0.0131253,0.0950182,2.8329852,-0.3496891,0. 0104461,-0.0118824,0.0104461,-0.423869,0.0860204,0.0172414,-0.1248164, -0.8865308,-0.8864376,-0.124993,0.0069978,0.0858054,-0.423869,0.012085 6,-0.022126,0.0080626,-0.3497823,-0.8626678,0.0014084,-0.0100121,-0.20 93899,-0.4476388,0.0097359,0.0191117,0.0137589,-0.3497823,-0.3845492,0 .0061867,-0.0008711,0.0061867,-0.4284823,0.0063059,-0.0008711,0.006305 9,-0.3845824,-0.3501426,0.0137296,0.028893,0.0137296,-0.4476388,-0.209 1661,-0.0002308,0.0016707,-0.8623074\Polar=44.0678368,2.7202468,24.750 8441,-0.3829993,2.7726569,44.0532181\PG=C04V [C4(F1I1),2SGV(F2)]\NImag =0\\0.45151428,0.01734925,0.32831393,-0.00244270,0.01768351,0.45142104 ,-0.02469750,0.00009350,-0.00319561,0.01618463,0.00009350,-0.02536148, 0.02313408,-0.00076822,0.02163991,-0.00128911,0.00933227,-0.19330968,0 .00030836,-0.00223232,0.19154633,-0.19316273,0.00932878,-0.00450420,0. 00324386,-0.00070882,0.00207469,0.19147072,0.02312809,-0.02536148,0.00 053491,-0.00188484,0.00262041,-0.00074492,-0.00221726,0.02163991,-0.00 641070,0.00027156,-0.02484445,0.00895794,-0.00189871,0.00345441,0.0036 5362,-0.00081068,0.01626024,-0.17236108,-0.05073017,0.00419051,0.00252 124,0.00068089,-0.00179505,-0.00353506,0.00189688,-0.00032185,0.177832 18,-0.06452948,-0.04616314,0.00173595,0.00185691,0.00334303,-0.0012794 6,-0.00413553,0.00441349,-0.00074434,0.04620770,0.03527845,0.00609702, 0.00199930,-0.02484445,-0.00810776,-0.00425607,0.00345441,0.00051159,- 0.00062922,-0.00030611,-0.00329703,-0.00177080,0.01626024,-0.03619855, 0.02099171,-0.00295554,0.00305867,0.00136794,0.00012799,-0.00165979,-0 .01665459,0.00220733,-0.00662139,0.01666415,-0.00249066,0.03826772,0.0 2099171,-0.18526469,0.02139615,0.00136794,-0.00665535,-0.00092658,-0.0 0095251,-0.00665535,0.00135001,0.00096208,-0.00169374,0.00070106,-0.02 305179,0.20196286,-0.00295554,0.02139615,-0.03631136,0.00229738,-0.016 63151,-0.00161522,0.00003794,0.00105035,0.00310324,-0.00032127,0.00100 073,0.00310324,0.00324559,-0.02349592,0.03839160,-0.02509442,0.0029669 3,0.00890754,-0.00031090,-0.00066530,0.00057312,0.00364300,-0.00426828 ,-0.00808635,0.00216411,0.00393625,0.00728685,0.00315335,0.00068257,-0 .00230411,0.01644487,0.00296693,-0.04616314,-0.06448460,-0.00066530,0. 00441349,-0.00414898,-0.00131466,0.00334303,0.00183215,0.00098263,0.00 482191,0.00395572,0.00068257,-0.00169374,0.01668021,-0.00265217,0.0352 7845,0.00700104,-0.05068279,-0.17211111,-0.00026032,0.00188453,-0.0035 3026,-0.00177365,0.00059955,0.00233266,0.00154469,0.00105793,0.0023326 6,-0.00013472,0.00097528,-0.00667150,-0.00637704,0.04616550,0.17764755 \\-0.00009262,0.00067049,-0.00009440,0.00001186,-0.00008588,-0.0001552 7,-0.00015546,-0.00008588,0.00000890,0.00017292,-0.00004052,0.00000890 ,0.00005770,-0.00041769,0.00005881,0.00000560,-0.00004052,0.00017306\\ \@ In the beginning there was nothing, which exploded.<module cmlx:lineCount="3" cmlx:templateRef="jobcpu"><scalar dictRef="cc:jobtime" dataType="xsd:string">PT30.100S</scalar><scalar dataType="xsd:date" dictRef="cc:jobdatetime.end">2010-03-11T14:02:59Z</scalar><scalar dataType="xsd:string" dictRef="cc:program">Gaussian 09</scalar></module></module>
