 Entering Gaussian System, Link 0=/usr/local/Gaussian/g03/g03
 Initial command:
 /usr/local/Gaussian/g03/l1.exe /export/scratch//webmo/3302/Gau-20755.inp -scrdir=/export/scratch//webmo/3302/
 Entering Link 1 = /usr/local/Gaussian/g03/l1.exe PID=     20760.
  
 Copyright (c) 1988,1990,1992,1993,1995,1998,2003, Gaussian, Inc.
                  All Rights Reserved.
  
 This is the Gaussian(R) 03 program.  It is based on the
 the Gaussian(R) 98 system (copyright 1998, Gaussian, Inc.),
 the Gaussian(R) 94 system (copyright 1995, Gaussian, Inc.),
 the Gaussian 92(TM) system (copyright 1992, Gaussian, Inc.),
 the Gaussian 90(TM) system (copyright 1990, Gaussian, Inc.),
 the Gaussian 88(TM) system (copyright 1988, Gaussian, Inc.),
 the Gaussian 86(TM) system (copyright 1986, Carnegie Mellon
 University), and the Gaussian 82(TM) system (copyright 1983,
 Carnegie Mellon University). Gaussian is a federally registered
 trademark of Gaussian, Inc.
  
 This software contains proprietary and confidential information,
 including trade secrets, belonging to Gaussian, Inc.
  
 This software is provided under written license and may be
 used, copied, transmitted, or stored only in accord with that
 written license.
  
 The following legend is applicable only to US Government
 contracts under DFARS:
  
                    RESTRICTED RIGHTS LEGEND
  
 Use, duplication or disclosure by the US Government is subject
 to restrictions as set forth in subparagraph (c)(1)(ii) of the
 Rights in Technical Data and Computer Software clause at DFARS
 252.227-7013.
  
 Gaussian, Inc.
 Carnegie Office Park, Building 6, Pittsburgh, PA 15106 USA
  
 The following legend is applicable only to US Government
 contracts under FAR:
  
                    RESTRICTED RIGHTS LEGEND
  
 Use, reproduction and disclosure by the US Government is subject
 to restrictions as set forth in subparagraph (c) of the
 Commercial Computer Software - Restricted Rights clause at FAR
 52.227-19.
  
 Gaussian, Inc.
 Carnegie Office Park, Building 6, Pittsburgh, PA 15106 USA
  
  
 ---------------------------------------------------------------
 Warning -- This program may not be used in any manner that
 competes with the business of Gaussian, Inc. or will provide
 assistance to any competitor of Gaussian, Inc.  The licensee
 of this program is prohibited from giving any competitor of
 Gaussian, Inc. access to this program.  By using this program,
 the user acknowledges that Gaussian, Inc. is engaged in the
 business of creating and licensing software in the field of
 computational chemistry and represents and warrants to the
 licensee that it is not a competitor of Gaussian, Inc. and that
 it will not use this program in any manner prohibited above.
 ---------------------------------------------------------------
  

 Cite this work as:
 Gaussian 03, Revision B.04,
 M. J. Frisch, G. W. Trucks, H. B. Schlegel, G. E. Scuseria, 
 M. A. Robb, J. R. Cheeseman, J. A. Montgomery, Jr., T. Vreven, 
 K. N. Kudin, J. C. Burant, J. M. Millam, S. S. Iyengar, J. Tomasi, 
 V. Barone, B. Mennucci, M. Cossi, G. Scalmani, N. Rega, 
 G. A. Petersson, H. Nakatsuji, M. Hada, M. Ehara, K. Toyota, 
 R. Fukuda, J. Hasegawa, M. Ishida, T. Nakajima, Y. Honda, O. Kitao, 
 H. Nakai, M. Klene, X. Li, J. E. Knox, H. P. Hratchian, J. B. Cross, 
 C. Adamo, J. Jaramillo, R. Gomperts, R. E. Stratmann, O. Yazyev, 
 A. J. Austin, R. Cammi, C. Pomelli, J. W. Ochterski, P. Y. Ayala, 
 K. Morokuma, G. A. Voth, P. Salvador, J. J. Dannenberg, 
 V. G. Zakrzewski, S. Dapprich, A. D. Daniels, M. C. Strain, 
 O. Farkas, D. K. Malick, A. D. Rabuck, K. Raghavachari, 
 J. B. Foresman, J. V. Ortiz, Q. Cui, A. G. Baboul, S. Clifford, 
 J. Cioslowski, B. B. Stefanov, G. Liu, A. Liashenko, P. Piskorz, 
 I. Komaromi, R. L. Martin, D. J. Fox, T. Keith, M. A. Al-Laham, 
 C. Y. Peng, A. Nanayakkara, M. Challacombe, P. M. W. Gill, 
 B. Johnson, W. Chen, M. W. Wong, C. Gonzalez, and J. A. Pople, 
 Gaussian, Inc., Pittsburgh PA, 2003.
 
 ***************************************************
 Gaussian 03:  Sun64-SVR4-Unix-G03RevB.04 2-Jun-2003
                     28-Aug-2006 
 ***************************************************
 ------------------------------
 #P B3LYP/6-311+G(d,p) OPT FREQ
 ------------------------------
 1/14=-1,18=20,26=3,38=1/1,3;
 2/9=110,17=6,18=5,40=1/2;
 3/5=4,6=6,7=111,11=2,16=1,25=1,30=1,74=-5/1,2,3;
 4//1;
 5/5=2,38=5/2;
 6/7=2,8=2,9=2,10=2,28=1/1;
 7//1,2,3,16;
 1/14=-1,18=20/3(1);
 99//99;
 2/9=110/2;
 3/5=4,6=6,7=111,11=2,16=1,25=1,30=1,74=-5/1,2,3;
 4/5=5,16=3/1;
 5/5=2,38=5/2;
 7//1,2,3,16;
 1/14=-1,18=20/3(-5);
 2/9=110/2;
 6/7=2,8=2,9=2,10=2,19=2,28=1/1;
 99/9=1/99;
 Leave Link    1 at Mon Aug 28 11:02:56 2006, MaxMem=          0 cpu:       0.2
 (Enter /usr/local/Gaussian/g03/l101.exe)
 ----------
 OMe basis2
 ----------
 Symbolic Z-matrix:
 Charge =  0 Multiplicity = 1
 C
 C                    1    B1
 C                    1    B2       2    A1
 C                    1    B3       2    A2       3    D1       0
 C                    1    B4       2    A3       3    D2       0
 C                    1    B5       2    A4       3    D3       0
 H                    1    B6       2    A5       3    D4       0
 O                    1    B7       2    A6       3    D5       0
 H                    1    B8       2    A7       3    D6       0
 H                    1    B9       2    A8       3    D7       0
 H                    1    B10      2    A9       3    D8       0
 H                    1    B11      2    A10      3    D9       0
 C                    1    B12      2    A11      3    D10      0
 H                    1    B13      2    A12      3    D11      0
 H                    1    B14      2    A13      3    D12      0
 H                    1    B15      2    A14      3    D13      0
       Variables:
  A10                 146.34808                  
  A11                  20.87805                  
  A12                  17.62987                  
  B1                    1.39909                  
  A13                  32.86099                  
  B2                    2.41592                  
  A14                  17.64785                  
  B3                    2.77485                  
  B4                    2.41394                  
  B5                    1.38463                  
  B6                    1.08316                  
  B7                    2.33732                  
  B8                    3.4041                   
  B10                   3.39549                  
  B9                    3.85921                  
  B11                   2.13693                  
  B12                   3.64269                  
  B13                   4.02257                  
  B14                   4.34714                  
  B15                   4.02158                  
  D10                -179.97111                  
  D11                 132.91297                  
  D12                -179.97199                  
  D13                -132.84276                  
  D1                    0.00134                  
  D2                   -0.00328                  
  D3                    0.00277                  
  A1                   30.11777                  
  D4                  179.94645                  
  A2                   60.28396                  
  D5                  179.98072                  
  A3                   90.2731                   
  A4                  120.11221                  
  D6                    0.0127                   
  D7                   -0.00148                  
  A5                  118.28808                  
  D8                   -0.00774                  
  A6                   31.66374                  
  D9                    0.00084                  
  A7                   21.32908                  
  A8                   60.14737                  
  A9                   99.45748                  
 
                    Isotopes and Nuclear Properties:

  Atom         1           2           3           4           5           6           7           8           9          10
 IAtWgt=          12          12          12          12          12          12           1          16           1           1
 AtmWgt=  12.0000000  12.0000000  12.0000000  12.0000000  12.0000000  12.0000000   1.0078250  15.9949146   1.0078250   1.0078250
 IAtSpn=           0           0           0           0           0           0           1           0           1           1
 AtZEff=   0.0000000   0.0000000   0.0000000   0.0000000   0.0000000   0.0000000   0.0000000   0.0000000   0.0000000   0.0000000
 AtQMom=   0.0000000   0.0000000   0.0000000   0.0000000   0.0000000   0.0000000   0.0000000   0.0000000   0.0000000   0.0000000
 AtGFac=   0.0000000   0.0000000   0.0000000   0.0000000   0.0000000   0.0000000   2.7928460   0.0000000   2.7928460   2.7928460

  Atom        11          12          13          14          15          16
 IAtWgt=           1           1          12           1           1           1
 AtmWgt=   1.0078250   1.0078250  12.0000000   1.0078250   1.0078250   1.0078250
 IAtSpn=           1           1           0           1           1           1
 AtZEff=   0.0000000   0.0000000   0.0000000   0.0000000   0.0000000   0.0000000
 AtQMom=   0.0000000   0.0000000   0.0000000   0.0000000   0.0000000   0.0000000
 AtGFac=   2.7928460   2.7928460   0.0000000   2.7928460   2.7928460   2.7928460
 Leave Link  101 at Mon Aug 28 11:02:57 2006, MaxMem=    6291456 cpu:       0.2
 (Enter /usr/local/Gaussian/g03/l103.exe)

 GradGradGradGradGradGradGradGradGradGradGradGradGradGradGradGradGradGrad
 Berny optimization.
 Initialization pass.
                           ----------------------------
                           !    Initial Parameters    !
                           ! (Angstroms and Degrees)  !
 --------------------------                            --------------------------
 ! Name  Definition              Value          Derivative Info.                !
 --------------------------------------------------------------------------------
 ! R1    R(1,2)                  1.3991         estimate D2E/DX2                !
 ! R2    R(1,6)                  1.3846         estimate D2E/DX2                !
 ! R3    R(1,7)                  1.0832         estimate D2E/DX2                !
 ! R4    R(2,3)                  1.3952         estimate D2E/DX2                !
 ! R5    R(2,8)                  1.3616         estimate D2E/DX2                !
 ! R6    R(3,4)                  1.3945         estimate D2E/DX2                !
 ! R7    R(3,9)                  1.0815         estimate D2E/DX2                !
 ! R8    R(4,5)                  1.387          estimate D2E/DX2                !
 ! R9    R(4,10)                 1.0844         estimate D2E/DX2                !
 ! R10   R(5,6)                  1.3949         estimate D2E/DX2                !
 ! R11   R(5,11)                 1.0833         estimate D2E/DX2                !
 ! R12   R(6,12)                 1.0842         estimate D2E/DX2                !
 ! R13   R(8,13)                 1.4159         estimate D2E/DX2                !
 ! R14   R(13,14)                1.0963         estimate D2E/DX2                !
 ! R15   R(13,15)                1.0892         estimate D2E/DX2                !
 ! R16   R(13,16)                1.0963         estimate D2E/DX2                !
 ! A1    A(2,1,6)              120.1122         estimate D2E/DX2                !
 ! A2    A(2,1,7)              118.2881         estimate D2E/DX2                !
 ! A3    A(6,1,7)              121.5997         estimate D2E/DX2                !
 ! A4    A(1,2,3)              119.6718         estimate D2E/DX2                !
 ! A5    A(1,2,8)              115.6932         estimate D2E/DX2                !
 ! A6    A(3,2,8)              124.6349         estimate D2E/DX2                !
 ! A7    A(2,3,4)              119.5173         estimate D2E/DX2                !
 ! A8    A(2,3,9)              121.0439         estimate D2E/DX2                !
 ! A9    A(4,3,9)              119.4388         estimate D2E/DX2                !
 ! A10   A(3,4,5)              120.9752         estimate D2E/DX2                !
 ! A11   A(3,4,10)             118.987          estimate D2E/DX2                !
 ! A12   A(5,4,10)             120.0379         estimate D2E/DX2                !
 ! A13   A(4,5,6)              119.1604         estimate D2E/DX2                !
 ! A14   A(4,5,11)             120.4553         estimate D2E/DX2                !
 ! A15   A(6,5,11)             120.3843         estimate D2E/DX2                !
 ! A16   A(1,6,5)              120.5631         estimate D2E/DX2                !
 ! A17   A(1,6,12)             119.3937         estimate D2E/DX2                !
 ! A18   A(5,6,12)             120.0432         estimate D2E/DX2                !
 ! A19   A(2,8,13)             118.5773         estimate D2E/DX2                !
 ! A20   A(8,13,14)            111.6979         estimate D2E/DX2                !
 ! A21   A(8,13,15)            106.0473         estimate D2E/DX2                !
 ! A22   A(8,13,16)            111.698          estimate D2E/DX2                !
 ! A23   A(14,13,15)           109.103          estimate D2E/DX2                !
 ! A24   A(14,13,16)           109.1021         estimate D2E/DX2                !
 ! A25   A(15,13,16)           109.1008         estimate D2E/DX2                !
 ! D1    D(6,1,2,3)              0.0028         estimate D2E/DX2                !
 ! D2    D(6,1,2,8)           -179.978          estimate D2E/DX2                !
 ! D3    D(7,1,2,3)            179.9464         estimate D2E/DX2                !
 ! D4    D(7,1,2,8)             -0.0343         estimate D2E/DX2                !
 ! D5    D(2,1,6,5)             -0.0122         estimate D2E/DX2                !
 ! D6    D(2,1,6,12)          -179.9976         estimate D2E/DX2                !
 ! D7    D(7,1,6,5)           -179.9539         estimate D2E/DX2                !
 ! D8    D(7,1,6,12)             0.0606         estimate D2E/DX2                !
 ! D9    D(1,2,3,4)             -0.0027         estimate D2E/DX2                !
 ! D10   D(1,2,3,9)           -179.983          estimate D2E/DX2                !
 ! D11   D(8,2,3,4)            179.9762         estimate D2E/DX2                !
 ! D12   D(8,2,3,9)             -0.0041         estimate D2E/DX2                !
 ! D13   D(1,2,8,13)          -179.9497         estimate D2E/DX2                !
 ! D14   D(3,2,8,13)             0.0707         estimate D2E/DX2                !
 ! D15   D(2,3,4,5)              0.0121         estimate D2E/DX2                !
 ! D16   D(2,3,4,10)           179.9914         estimate D2E/DX2                !
 ! D17   D(9,3,4,5)            179.9928         estimate D2E/DX2                !
 ! D18   D(9,3,4,10)            -0.0279         estimate D2E/DX2                !
 ! D19   D(3,4,5,6)             -0.0212         estimate D2E/DX2                !
 ! D20   D(3,4,5,11)           179.978          estimate D2E/DX2                !
 ! D21   D(10,4,5,6)           179.9996         estimate D2E/DX2                !
 ! D22   D(10,4,5,11)           -0.0012         estimate D2E/DX2                !
 ! D23   D(4,5,6,1)              0.0212         estimate D2E/DX2                !
 ! D24   D(4,5,6,12)          -179.9934         estimate D2E/DX2                !
 ! D25   D(11,5,6,1)          -179.9779         estimate D2E/DX2                !
 ! D26   D(11,5,6,12)            0.0074         estimate D2E/DX2                !
 ! D27   D(2,8,13,14)          -61.3101         estimate D2E/DX2                !
 ! D28   D(2,8,13,15)          179.9418         estimate D2E/DX2                !
 ! D29   D(2,8,13,16)           61.1965         estimate D2E/DX2                !
 --------------------------------------------------------------------------------
 Trust Radius=3.00D-01 FncErr=1.00D-07 GrdErr=1.00D-06
 Number of steps in this run=  80 maximum allowed number of steps= 100.
 GradGradGradGradGradGradGradGradGradGradGradGradGradGradGradGradGradGrad

 Leave Link  103 at Mon Aug 28 11:02:58 2006, MaxMem=    6291456 cpu:       0.0
 (Enter /usr/local/Gaussian/g03/l202.exe)
                          Input orientation:                          
 ---------------------------------------------------------------------
 Center     Atomic     Atomic              Coordinates (Angstroms)
 Number     Number      Type              X           Y           Z
 ---------------------------------------------------------------------
    1          6             0        0.000000    0.000000    0.000000
    2          6             0        0.000000    0.000000    1.399091
    3          6             0        1.212259    0.000000    2.089762
    4          6             0        2.409933   -0.000056    1.375496
    5          6             0        2.413909    0.000138   -0.011506
    6          6             0        1.197767   -0.000058   -0.694662
    7          1             0       -0.953803   -0.000891   -0.513315
    8          8             0       -1.226938   -0.000413    1.989397
    9          1             0        1.238155   -0.000274    3.170946
   10          1             0        3.347124    0.000087    1.921000
   11          1             0        3.349341    0.000452   -0.557932
   12          1             0        1.184170   -0.000017   -1.778820
   13          6             0       -1.298181    0.000655    3.403513
   14          1             0       -0.829527   -0.892272    3.833645
   15          1             0       -2.358769    0.001153    3.651552
   16          1             0       -0.829046    0.893949    3.832315
 ---------------------------------------------------------------------
                    Distance matrix (angstroms):
                    1          2          3          4          5
     1  C    0.000000
     2  C    1.399091   0.000000
     3  C    2.415921   1.395205   0.000000
     4  C    2.774845   2.410048   1.394489   0.000000
     5  C    2.413937   2.795844   2.420597   1.387007   0.000000
     6  C    1.384630   2.412146   2.784462   2.398937   1.394885
     7  H    1.083159   2.137062   3.386419   3.857762   3.404894
     8  O    2.337323   1.361558   2.441261   3.688320   4.154442
     9  H    3.404104   2.161596   1.081494   2.143993   3.392698
    10  H    3.859207   3.387569   2.141525   1.084390   2.146036
    11  H    3.395493   3.879178   3.402559   2.149566   1.083335
    12  H    2.136927   3.391367   3.868683   3.384110   2.153058
    13  C    3.642688   2.388092   2.833417   4.226460   5.044004
    14  H    4.022574   2.722374   2.829517   4.163249   5.108959
    15  H    4.347140   3.261499   3.897619   5.284028   6.016349
    16  H    4.021580   2.721588   2.828880   4.162474   5.107898
                    6          7          8          9         10
     6  C    0.000000
     7  H    2.159200   0.000000
     8  O    3.617094   2.517572   0.000000
     9  H    3.865819   4.287010   2.733632   0.000000
    10  H    3.385473   4.942051   4.574573   2.451553   0.000000
    11  H    2.155914   4.303376   5.237482   4.285049   2.478934
    12  H    1.084243   2.484438   4.473578   4.950060   4.285678
    13  C    4.798416   3.931938   1.415910   2.546976   4.876136
    14  H    5.040985   4.439151   2.086768   2.347368   4.679628
    15  H    5.615917   4.395458   2.010921   3.628891   5.962552
    16  H    5.039915   4.438559   2.086756   2.347416   4.678943
                   11         12         13         14         15
    11  H    0.000000
    12  H    2.485666   0.000000
    13  C    6.106760   5.746185   0.000000
    14  H    6.127467   6.029167   1.096343   0.000000
    15  H    7.092410   6.483931   1.089206   1.780435   0.000000
    16  H    6.126298   6.028022   1.096327   1.786222   1.780397
                   16
    16  H    0.000000
 Stoichiometry    C7H8O
 Framework group  C1[X(C7H8O)]
 Deg. of freedom    42
 Full point group                 C1      NOp   1
 Largest Abelian subgroup         C1      NOp   1
 Largest concise Abelian subgroup C1      NOp   1
                         Standard orientation:                         
 ---------------------------------------------------------------------
 Center     Atomic     Atomic              Coordinates (Angstroms)
 Number     Number      Type              X           Y           Z
 ---------------------------------------------------------------------
    1          6             0       -0.495471   -1.298572    0.000123
    2          6             0        0.453180   -0.270216   -0.000046
    3          6             0        0.030457    1.059409   -0.000172
    4          6             0       -1.334161    1.346492   -0.000184
    5          6             0       -2.277538    0.329718    0.000178
    6          6             0       -1.846865   -0.997017    0.000107
    7          1             0       -0.142461   -2.322592   -0.000673
    8          8             0        1.755257   -0.668254   -0.000487
    9          1             0        0.744518    1.871657   -0.000578
   10          1             0       -1.653134    2.382908   -0.000140
   11          1             0       -3.335600    0.562353    0.000525
   12          1             0       -2.571982   -1.803111    0.000279
   13          6             0        2.766461    0.322840    0.000412
   14          1             0        2.713592    0.956664   -0.892583
   15          1             0        3.714194   -0.213977    0.000918
   16          1             0        2.712437    0.956214    0.893638
 ---------------------------------------------------------------------
 Rotational constants (GHZ):      5.0748844      1.5660775      1.2059466
 Leave Link  202 at Mon Aug 28 11:02:59 2006, MaxMem=    6291456 cpu:       0.5
 (Enter /usr/local/Gaussian/g03/l301.exe)
 Standard basis: 6-311+G(d,p) (5D, 7F)
 There are   224 symmetry adapted basis functions of A   symmetry.
 Integral buffers will be    131072 words long.
 Raffenetti 2 integral format.
 Two-electron integral symmetry is turned on.
   224 basis functions,   352 primitive gaussians,   232 cartesian basis functions
    29 alpha electrons       29 beta electrons
       nuclear repulsion energy       346.1470407866 Hartrees.
 IExCor= 402 DFT=T Ex=B+HF Corr=LYP ExCW=0 ScaHFX=  0.200000
 ScaDFX=  0.800000  0.720000  1.000000  0.810000
 IRadAn=      0 IRanWt=     -1 IRanGd=            0 ICorTp=0
 NAtoms=   16 NActive=   16 NUniq=   16 SFac= 1.00D+00 NAtFMM=   60 Big=F
 Leave Link  301 at Mon Aug 28 11:03:01 2006, MaxMem=    6291456 cpu:       0.1
 (Enter /usr/local/Gaussian/g03/l302.exe)
 NPDir=0 NMtPBC=     1 NCelOv=     1 NCel=       1 NClECP=     1 NCelD=      1
         NCelK=      1 NCelE2=     1 NClLst=     1 CellRange=     0.0.
 One-electron integrals computed using PRISM.
 NBasis=   224 RedAO= T  NBF=   224
 NBsUse=   224 1.00D-06 NBFU=   224
 Precomputing XC quadrature grid using
 IXCGrd= 2 IRadAn=           0 IRanWt=          -1 IRanGd=           0.
 NRdTot=    1031 NPtTot=      131318 NUsed=      138600 NTot=      138632
 NSgBfM=   232   232   232   232.
 Leave Link  302 at Mon Aug 28 11:03:10 2006, MaxMem=    6291456 cpu:       2.7
 (Enter /usr/local/Gaussian/g03/l303.exe)
 DipDrv:  MaxL=1.
 Leave Link  303 at Mon Aug 28 11:03:12 2006, MaxMem=    6291456 cpu:       0.2
 (Enter /usr/local/Gaussian/g03/l401.exe)
 Harris functional with IExCor=  402 diagonalized for initial guess.
 ExpMin= 4.38D-02 ExpMax= 8.59D+03 ExpMxC= 1.30D+03 IAcc=2 IRadAn=         4 AccDes= 0.00D+00
 HarFok:  IExCor= 402 AccDes= 0.00D+00 IRadAn=         4 IDoV=1
 ScaDFX=  1.000000  1.000000  1.000000  1.000000
 Harris En= -347.001986036967    
 Initial guess orbital symmetries:
       Occupied  (A) (A) (A) (A) (A) (A) (A) (A) (A) (A) (A) (A)
                 (A) (A) (A) (A) (A) (A) (A) (A) (A) (A) (A) (A)
                 (A) (A) (A) (A) (A)
       Virtual   (A) (A) (A) (A) (A) (A) (A) (A) (A) (A) (A) (A)
                 (A) (A) (A) (A) (A) (A) (A) (A) (A) (A) (A) (A)
                 (A) (A) (A) (A) (A) (A) (A) (A) (A) (A) (A) (A)
                 (A) (A) (A) (A) (A) (A) (A) (A) (A) (A) (A) (A)
                 (A) (A) (A) (A) (A) (A) (A) (A) (A) (A) (A) (A)
                 (A) (A) (A) (A) (A) (A) (A) (A) (A) (A) (A) (A)
                 (A) (A) (A) (A) (A) (A) (A) (A) (A) (A) (A) (A)
                 (A) (A) (A) (A) (A) (A) (A) (A) (A) (A) (A) (A)
                 (A) (A) (A) (A) (A) (A) (A) (A) (A) (A) (A) (A)
                 (A) (A) (A) (A) (A) (A) (A) (A) (A) (A) (A) (A)
                 (A) (A) (A) (A) (A) (A) (A) (A) (A) (A) (A) (A)
                 (A) (A) (A) (A) (A) (A) (A) (A) (A) (A) (A) (A)
                 (A) (A) (A) (A) (A) (A) (A) (A) (A) (A) (A) (A)
                 (A) (A) (A) (A) (A) (A) (A) (A) (A) (A) (A) (A)
                 (A) (A) (A) (A) (A) (A) (A) (A) (A) (A) (A) (A)
                 (A) (A) (A) (A) (A) (A) (A) (A) (A) (A) (A) (A)
                 (A) (A) (A)
 The electronic state of the initial guess is 1-A.
 Leave Link  401 at Mon Aug 28 11:04:58 2006, MaxMem=    6291456 cpu:      33.9
 (Enter /usr/local/Gaussian/g03/l502.exe)
 Closed shell SCF:
 Requested convergence on RMS density matrix=1.00D-08 within 128 cycles.
 Requested convergence on MAX density matrix=1.00D-06.
 Requested convergence on             energy=1.00D-06.
 No special actions if energy rises.
 Using DIIS extrapolation, IDIIS=  1040.
 Integral symmetry usage will be decided dynamically.
       138599 words used for storage of precomputed grid.
 IEnd=    346863 IEndB=    346863 NGot=   6291456 MDV=   6015290
 LenX=   6015290
 Fock matrices will be formed incrementally for  20 cycles.

 Cycle   1  Pass 1  IDiag  1:
 Petite list used in FoFDir.
 MinBra= 0 MaxBra= 2 Meth= 1.
 IRaf=       0 NMat=   1 IRICut=       1 DoRegI=T DoRafI=F ISym2E= 1 JSym2E=1.
 E= -346.594072370186    
 DIIS: error= 3.88D-02 at cycle   1 NSaved=   1.
 NSaved= 1 IEnMin= 1 EnMin= -346.594072370186     IErMin= 1 ErrMin= 3.88D-02
 ErrMax= 3.88D-02 EMaxC= 1.00D-01 BMatC= 2.75D-01 BMatP= 2.75D-01
 IDIUse=3 WtCom= 6.12D-01 WtEn= 3.88D-01
 Coeff-Com:  0.100D+01
 Coeff-En:   0.100D+01
 Coeff:      0.100D+01
 Gap=     0.245 Goal=   None    Shift=    0.000
 GapD=    0.245 DampG=1.000 DampE=0.500 DampFc=0.5000 IDamp=-1.
 Damping current iteration by 5.00D-01
 RMSDP=1.32D-02 MaxDP=8.03D-01              OVMax= 2.46D-01

 Cycle   2  Pass 1  IDiag  1:
 RMSU=  5.99D-03    CP:  1.15D+00
 E= -346.710642439551     Delta-E=       -0.116570069365 Rises=F Damp=T
 DIIS: error= 6.76D-03 at cycle   2 NSaved=   2.
 NSaved= 2 IEnMin= 2 EnMin= -346.710642439551     IErMin= 2 ErrMin= 6.76D-03
 ErrMax= 6.76D-03 EMaxC= 1.00D-01 BMatC= 1.17D-02 BMatP= 2.75D-01
 IDIUse=3 WtCom= 9.32D-01 WtEn= 6.76D-02
 Coeff-Com:  0.459D-01 0.954D+00
 Coeff-En:   0.138D+00 0.862D+00
 Coeff:      0.521D-01 0.948D+00
 Gap=     0.241 Goal=   None    Shift=    0.000
 RMSDP=3.05D-03 MaxDP=1.21D-01 DE=-1.17D-01 OVMax= 1.58D-01

 Cycle   3  Pass 1  IDiag  1:
 RMSU=  2.74D-03    CP:  1.18D+00  7.96D-01
 E= -346.859682385602     Delta-E=       -0.149039946051 Rises=F Damp=F
 DIIS: error= 7.68D-03 at cycle   3 NSaved=   3.
 NSaved= 3 IEnMin= 3 EnMin= -346.859682385602     IErMin= 2 ErrMin= 6.76D-03
 ErrMax= 7.68D-03 EMaxC= 1.00D-01 BMatC= 7.48D-03 BMatP= 1.17D-02
 IDIUse=3 WtCom= 9.23D-01 WtEn= 7.68D-02
 Coeff-Com: -0.258D-01 0.431D+00 0.595D+00
 Coeff-En:   0.000D+00 0.000D+00 0.100D+01
 Coeff:     -0.238D-01 0.398D+00 0.626D+00
 Gap=     0.217 Goal=   None    Shift=    0.000
 RMSDP=1.43D-03 MaxDP=1.62D-01 DE=-1.49D-01 OVMax= 5.68D-02

 Cycle   4  Pass 1  IDiag  1:
 RMSU=  9.06D-04    CP:  1.13D+00  7.35D-01  7.78D-01
 E= -346.864335949595     Delta-E=       -0.004653563993 Rises=F Damp=F
 DIIS: error= 5.97D-03 at cycle   4 NSaved=   4.
 NSaved= 4 IEnMin= 4 EnMin= -346.864335949595     IErMin= 4 ErrMin= 5.97D-03
 ErrMax= 5.97D-03 EMaxC= 1.00D-01 BMatC= 2.86D-03 BMatP= 7.48D-03
 IDIUse=3 WtCom= 9.40D-01 WtEn= 5.97D-02
 Coeff-Com: -0.248D-01 0.172D+00 0.411D+00 0.442D+00
 Coeff-En:   0.000D+00 0.000D+00 0.301D+00 0.699D+00
 Coeff:     -0.233D-01 0.162D+00 0.404D+00 0.458D+00
 Gap=     0.212 Goal=   None    Shift=    0.000
 RMSDP=4.92D-04 MaxDP=1.18D-02 DE=-4.65D-03 OVMax= 2.73D-02

 Cycle   5  Pass 1  IDiag  1:
 RMSU=  3.78D-04    CP:  1.14D+00  7.77D-01  7.49D-01  8.15D-01
 E= -346.867369579516     Delta-E=       -0.003033629921 Rises=F Damp=F
 DIIS: error= 9.83D-04 at cycle   5 NSaved=   5.
 NSaved= 5 IEnMin= 5 EnMin= -346.867369579516     IErMin= 5 ErrMin= 9.83D-04
 ErrMax= 9.83D-04 EMaxC= 1.00D-01 BMatC= 1.17D-04 BMatP= 2.86D-03
 IDIUse=3 WtCom= 9.90D-01 WtEn= 9.83D-03
 Coeff-Com: -0.868D-02 0.315D-01 0.105D+00 0.215D+00 0.656D+00
 Coeff-En:   0.000D+00 0.000D+00 0.000D+00 0.000D+00 0.100D+01
 Coeff:     -0.859D-02 0.312D-01 0.104D+00 0.213D+00 0.660D+00
 Gap=     0.213 Goal=   None    Shift=    0.000
 RMSDP=1.10D-04 MaxDP=4.12D-03 DE=-3.03D-03 OVMax= 4.70D-03

 Cycle   6  Pass 1  IDiag  1:
 RMSU=  6.63D-05    CP:  1.13D+00  7.66D-01  7.57D-01  8.30D-01  8.90D-01
 E= -346.867478888197     Delta-E=       -0.000109308681 Rises=F Damp=F
 DIIS: error= 2.47D-04 at cycle   6 NSaved=   6.
 NSaved= 6 IEnMin= 6 EnMin= -346.867478888197     IErMin= 6 ErrMin= 2.47D-04
 ErrMax= 2.47D-04 EMaxC= 1.00D-01 BMatC= 1.19D-05 BMatP= 1.17D-04
 IDIUse=3 WtCom= 9.98D-01 WtEn= 2.47D-03
 Coeff-Com: -0.282D-02 0.283D-02 0.239D-01 0.814D-01 0.353D+00 0.541D+00
 Coeff-En:   0.000D+00 0.000D+00 0.000D+00 0.000D+00 0.000D+00 0.100D+01
 Coeff:     -0.281D-02 0.282D-02 0.239D-01 0.812D-01 0.353D+00 0.542D+00
 Gap=     0.213 Goal=   None    Shift=    0.000
 RMSDP=4.20D-05 MaxDP=1.61D-03 DE=-1.09D-04 OVMax= 6.37D-04

 Cycle   7  Pass 1  IDiag  1:
 RMSU=  2.35D-05    CP:  1.14D+00  7.70D-01  7.58D-01  8.34D-01  8.92D-01
                    CP:  6.62D-01
 E= -346.867488738461     Delta-E=       -0.000009850263 Rises=F Damp=F
 DIIS: error= 6.89D-05 at cycle   7 NSaved=   7.
 NSaved= 7 IEnMin= 7 EnMin= -346.867488738461     IErMin= 7 ErrMin= 6.89D-05
 ErrMax= 6.89D-05 EMaxC= 1.00D-01 BMatC= 3.70D-07 BMatP= 1.19D-05
 IDIUse=1 WtCom= 1.00D+00 WtEn= 0.00D+00
 Coeff-Com: -0.524D-03-0.528D-03 0.408D-02 0.213D-01 0.111D+00 0.226D+00
 Coeff-Com:  0.638D+00
 Coeff:     -0.524D-03-0.528D-03 0.408D-02 0.213D-01 0.111D+00 0.226D+00
 Coeff:      0.638D+00
 Gap=     0.213 Goal=   None    Shift=    0.000
 RMSDP=1.27D-05 MaxDP=8.33D-04 DE=-9.85D-06 OVMax= 3.71D-04

 Cycle   8  Pass 1  IDiag  1:
 RMSU=  6.12D-06    CP:  1.14D+00  7.68D-01  7.57D-01  8.36D-01  8.94D-01
                    CP:  7.17D-01  7.40D-01
 E= -346.867488947208     Delta-E=       -0.000000208747 Rises=F Damp=F
 DIIS: error= 4.09D-05 at cycle   8 NSaved=   8.
 NSaved= 8 IEnMin= 8 EnMin= -346.867488947208     IErMin= 8 ErrMin= 4.09D-05
 ErrMax= 4.09D-05 EMaxC= 1.00D-01 BMatC= 1.63D-07 BMatP= 3.70D-07
 IDIUse=1 WtCom= 1.00D+00 WtEn= 0.00D+00
 Coeff-Com:  0.514D-04-0.743D-03-0.468D-03 0.316D-02 0.263D-01 0.751D-01
 Coeff-Com:  0.431D+00 0.466D+00
 Coeff:      0.514D-04-0.743D-03-0.468D-03 0.316D-02 0.263D-01 0.751D-01
 Coeff:      0.431D+00 0.466D+00
 Gap=     0.213 Goal=   None    Shift=    0.000
 RMSDP=4.46D-06 MaxDP=1.91D-04 DE=-2.09D-07 OVMax= 1.70D-04

 Cycle   9  Pass 1  IDiag  1:
 RMSU=  2.37D-06    CP:  1.14D+00  7.69D-01  7.58D-01  8.36D-01  8.96D-01
                    CP:  7.09D-01  7.93D-01  7.28D-01
 E= -346.867489118207     Delta-E=       -0.000000170999 Rises=F Damp=F
 DIIS: error= 2.94D-06 at cycle   9 NSaved=   9.
 NSaved= 9 IEnMin= 9 EnMin= -346.867489118207     IErMin= 9 ErrMin= 2.94D-06
 ErrMax= 2.94D-06 EMaxC= 1.00D-01 BMatC= 1.24D-09 BMatP= 1.63D-07
 IDIUse=1 WtCom= 1.00D+00 WtEn= 0.00D+00
 Coeff-Com:  0.460D-04-0.175D-03-0.325D-03-0.210D-03 0.171D-02 0.738D-02
 Coeff-Com:  0.826D-01 0.121D+00 0.788D+00
 Coeff:      0.460D-04-0.175D-03-0.325D-03-0.210D-03 0.171D-02 0.738D-02
 Coeff:      0.826D-01 0.121D+00 0.788D+00
 Gap=     0.213 Goal=   None    Shift=    0.000
 RMSDP=4.60D-07 MaxDP=1.83D-05 DE=-1.71D-07 OVMax= 1.92D-05

 Cycle  10  Pass 1  IDiag  1:
 RMSU=  3.19D-07    CP:  1.14D+00  7.69D-01  7.58D-01  8.36D-01  8.96D-01
                    CP:  7.10D-01  8.03D-01  7.32D-01  9.42D-01
 E= -346.867489118917     Delta-E=       -0.000000000709 Rises=F Damp=F
 DIIS: error= 2.71D-06 at cycle  10 NSaved=  10.
 NSaved=10 IEnMin=10 EnMin= -346.867489118917     IErMin=10 ErrMin= 2.71D-06
 ErrMax= 2.71D-06 EMaxC= 1.00D-01 BMatC= 5.03D-10 BMatP= 1.24D-09
 IDIUse=1 WtCom= 1.00D+00 WtEn= 0.00D+00
 Coeff-Com:  0.216D-04-0.579D-04-0.140D-03-0.234D-03-0.644D-04 0.759D-03
 Coeff-Com:  0.252D-01 0.442D-01 0.435D+00 0.495D+00
 Coeff:      0.216D-04-0.579D-04-0.140D-03-0.234D-03-0.644D-04 0.759D-03
 Coeff:      0.252D-01 0.442D-01 0.435D+00 0.495D+00
 Gap=     0.213 Goal=   None    Shift=    0.000
 RMSDP=1.76D-07 MaxDP=9.42D-06 DE=-7.09D-10 OVMax= 1.02D-05

 Cycle  11  Pass 1  IDiag  1:
 RMSU=  1.31D-07    CP:  1.14D+00  7.69D-01  7.58D-01  8.36D-01  8.96D-01
                    CP:  7.10D-01  8.00D-01  7.37D-01  9.47D-01  8.53D-01
 E= -346.867489119392     Delta-E=       -0.000000000476 Rises=F Damp=F
 DIIS: error= 5.87D-07 at cycle  11 NSaved=  11.
 NSaved=11 IEnMin=11 EnMin= -346.867489119392     IErMin=11 ErrMin= 5.87D-07
 ErrMax= 5.87D-07 EMaxC= 1.00D-01 BMatC= 4.23D-11 BMatP= 5.03D-10
 IDIUse=1 WtCom= 1.00D+00 WtEn= 0.00D+00
 Coeff-Com:  0.174D-05 0.250D-06-0.115D-04-0.849D-04-0.288D-03-0.931D-03
 Coeff-Com: -0.248D-02 0.104D-03 0.671D-01 0.244D+00 0.693D+00
 Coeff:      0.174D-05 0.250D-06-0.115D-04-0.849D-04-0.288D-03-0.931D-03
 Coeff:     -0.248D-02 0.104D-03 0.671D-01 0.244D+00 0.693D+00
 Gap=     0.213 Goal=   None    Shift=    0.000
 RMSDP=8.92D-08 MaxDP=5.94D-06 DE=-4.76D-10 OVMax= 2.57D-06

 Cycle  12  Pass 1  IDiag  1:
 RMSU=  3.20D-08    CP:  1.14D+00  7.69D-01  7.58D-01  8.36D-01  8.96D-01
                    CP:  7.10D-01  8.00D-01  7.39D-01  9.61D-01  9.10D-01
                    CP:  7.78D-01
 E= -346.867489119430     Delta-E=       -0.000000000037 Rises=F Damp=F
 DIIS: error= 1.39D-07 at cycle  12 NSaved=  12.
 NSaved=12 IEnMin=12 EnMin= -346.867489119430     IErMin=12 ErrMin= 1.39D-07
 ErrMax= 1.39D-07 EMaxC= 1.00D-01 BMatC= 4.50D-12 BMatP= 4.23D-11
 IDIUse=1 WtCom= 1.00D+00 WtEn= 0.00D+00
 Coeff-Com:  0.747D-07 0.248D-05-0.248D-06-0.401D-04-0.162D-03-0.565D-03
 Coeff-Com: -0.261D-02-0.234D-02 0.150D-01 0.117D+00 0.389D+00 0.484D+00
 Coeff:      0.747D-07 0.248D-05-0.248D-06-0.401D-04-0.162D-03-0.565D-03
 Coeff:     -0.261D-02-0.234D-02 0.150D-01 0.117D+00 0.389D+00 0.484D+00
 Gap=     0.213 Goal=   None    Shift=    0.000
 RMSDP=1.55D-08 MaxDP=9.23D-07 DE=-3.72D-11 OVMax= 7.25D-07

 Cycle  13  Pass 1  IDiag  1:
 RMSU=  1.11D-08    CP:  1.14D+00  7.69D-01  7.58D-01  8.36D-01  8.96D-01
                    CP:  7.10D-01  8.00D-01  7.39D-01  9.63D-01  9.10D-01
                    CP:  8.06D-01  8.30D-01
 E= -346.867489119441     Delta-E=       -0.000000000011 Rises=F Damp=F
 DIIS: error= 3.15D-08 at cycle  13 NSaved=  13.
 NSaved=13 IEnMin=13 EnMin= -346.867489119441     IErMin=13 ErrMin= 3.15D-08
 ErrMax= 3.15D-08 EMaxC= 1.00D-01 BMatC= 1.62D-13 BMatP= 4.50D-12
 IDIUse=1 WtCom= 1.00D+00 WtEn= 0.00D+00
 Coeff-Com: -0.131D-06 0.367D-06 0.155D-05-0.343D-06-0.774D-05-0.231D-04
 Coeff-Com: -0.285D-03-0.746D-03-0.599D-02-0.244D-02-0.112D-01 0.135D+00
 Coeff-Com:  0.885D+00
 Coeff:     -0.131D-06 0.367D-06 0.155D-05-0.343D-06-0.774D-05-0.231D-04
 Coeff:     -0.285D-03-0.746D-03-0.599D-02-0.244D-02-0.112D-01 0.135D+00
 Coeff:      0.885D+00
 Gap=     0.213 Goal=   None    Shift=    0.000
 RMSDP=6.83D-09 MaxDP=3.79D-07 DE=-1.13D-11 OVMax= 1.77D-07

 SCF Done:  E(RB+HF-LYP) =  -346.867489119     A.U. after   13 cycles
             Convg  =    0.6828D-08             -V/T =  2.0042
             S**2   =   0.0000
 KE= 3.454257416163D+02 PE=-1.499717566953D+03 EE= 4.612772954308D+02
 Leave Link  502 at Mon Aug 28 12:38:44 2006, MaxMem=    6291456 cpu:    1782.2
 (Enter /usr/local/Gaussian/g03/l601.exe)
 Copying SCF densities to generalized density rwf, ISCF=0 IROHF=0.

 **********************************************************************

            Population analysis using the SCF density.

 **********************************************************************

 Orbital symmetries:
       Occupied  (A) (A) (A) (A) (A) (A) (A) (A) (A) (A) (A) (A)
                 (A) (A) (A) (A) (A) (A) (A) (A) (A) (A) (A) (A)
                 (A) (A) (A) (A) (A)
       Virtual   (A) (A) (A) (A) (A) (A) (A) (A) (A) (A) (A) (A)
                 (A) (A) (A) (A) (A) (A) (A) (A) (A) (A) (A) (A)
                 (A) (A) (A) (A) (A) (A) (A) (A) (A) (A) (A) (A)
                 (A) (A) (A) (A) (A) (A) (A) (A) (A) (A) (A) (A)
                 (A) (A) (A) (A) (A) (A) (A) (A) (A) (A) (A) (A)
                 (A) (A) (A) (A) (A) (A) (A) (A) (A) (A) (A) (A)
                 (A) (A) (A) (A) (A) (A) (A) (A) (A) (A) (A) (A)
                 (A) (A) (A) (A) (A) (A) (A) (A) (A) (A) (A) (A)
                 (A) (A) (A) (A) (A) (A) (A) (A) (A) (A) (A) (A)
                 (A) (A) (A) (A) (A) (A) (A) (A) (A) (A) (A) (A)
                 (A) (A) (A) (A) (A) (A) (A) (A) (A) (A) (A) (A)
                 (A) (A) (A) (A) (A) (A) (A) (A) (A) (A) (A) (A)
                 (A) (A) (A) (A) (A) (A) (A) (A) (A) (A) (A) (A)
                 (A) (A) (A) (A) (A) (A) (A) (A) (A) (A) (A) (A)
                 (A) (A) (A) (A) (A) (A) (A) (A) (A) (A) (A) (A)
                 (A) (A) (A) (A) (A) (A) (A) (A) (A) (A) (A) (A)
                 (A) (A) (A)
 The electronic state is 1-A.
 Alpha  occ. eigenvalues --  -19.15789 -10.23678 -10.22884 -10.17821 -10.17678
 Alpha  occ. eigenvalues --  -10.17532 -10.17092 -10.16908  -1.07544  -0.85833
 Alpha  occ. eigenvalues --   -0.76374  -0.75225  -0.70160  -0.61566  -0.59656
 Alpha  occ. eigenvalues --   -0.54400  -0.49176  -0.48582  -0.47635  -0.45164
 Alpha  occ. eigenvalues --   -0.42966  -0.42012  -0.38536  -0.37276  -0.36399
 Alpha  occ. eigenvalues --   -0.33368  -0.32874  -0.26002  -0.22895
 Alpha virt. eigenvalues --   -0.01613  -0.00185   0.00045   0.01417   0.02262
 Alpha virt. eigenvalues --    0.03523   0.03925   0.04456   0.05025   0.07002
 Alpha virt. eigenvalues --    0.07256   0.07451   0.08827   0.09136   0.10994
 Alpha virt. eigenvalues --    0.11671   0.12684   0.13051   0.13397   0.14333
 Alpha virt. eigenvalues --    0.14800   0.15258   0.15265   0.15824   0.17582
 Alpha virt. eigenvalues --    0.17937   0.18342   0.19685   0.20385   0.20570
 Alpha virt. eigenvalues --    0.21012   0.21394   0.22094   0.22674   0.23351
 Alpha virt. eigenvalues --    0.24204   0.24573   0.25538   0.26142   0.27373
 Alpha virt. eigenvalues --    0.27710   0.28595   0.31449   0.32376   0.33381
 Alpha virt. eigenvalues --    0.35095   0.36170   0.37465   0.38762   0.42560
 Alpha virt. eigenvalues --    0.44534   0.48275   0.51493   0.53129   0.53556
 Alpha virt. eigenvalues --    0.53602   0.53741   0.54738   0.57252   0.58853
 Alpha virt. eigenvalues --    0.59110   0.60303   0.62278   0.62499   0.63243
 Alpha virt. eigenvalues --    0.64669   0.66534   0.68077   0.69819   0.70249
 Alpha virt. eigenvalues --    0.72543   0.73488   0.74938   0.77305   0.79506
 Alpha virt. eigenvalues --    0.82754   0.83511   0.84660   0.85716   0.86372
 Alpha virt. eigenvalues --    0.87295   0.90679   0.94423   0.97873   0.98884
 Alpha virt. eigenvalues --    1.00659   1.00941   1.02080   1.02897   1.08033
 Alpha virt. eigenvalues --    1.08511   1.09316   1.12967   1.15065   1.27305
 Alpha virt. eigenvalues --    1.28457   1.28573   1.34216   1.41628   1.43010
 Alpha virt. eigenvalues --    1.46341   1.49468   1.51786   1.52824   1.55523
 Alpha virt. eigenvalues --    1.56890   1.57259   1.57745   1.60818   1.64353
 Alpha virt. eigenvalues --    1.65392   1.68324   1.68624   1.70429   1.72213
 Alpha virt. eigenvalues --    1.73951   1.77553   1.77603   1.79983   1.83663
 Alpha virt. eigenvalues --    1.88909   1.91350   1.93182   1.94681   1.95564
 Alpha virt. eigenvalues --    1.96216   1.98141   2.01202   2.03990   2.05426
 Alpha virt. eigenvalues --    2.07966   2.08524   2.10992   2.17274   2.27249
 Alpha virt. eigenvalues --    2.29494   2.34085   2.38300   2.40015   2.40608
 Alpha virt. eigenvalues --    2.42705   2.46396   2.47654   2.50235   2.53693
 Alpha virt. eigenvalues --    2.61803   2.64512   2.64631   2.66160   2.70261
 Alpha virt. eigenvalues --    2.71805   2.74147   2.76110   2.76310   2.78100
 Alpha virt. eigenvalues --    2.79010   2.80510   2.83052   2.87356   2.88857
 Alpha virt. eigenvalues --    2.88975   2.93917   3.05011   3.08009   3.10011
 Alpha virt. eigenvalues --    3.10883   3.16461   3.24789   3.31790   3.37148
 Alpha virt. eigenvalues --    3.41187   3.49542   3.51437   3.61465   3.67385
 Alpha virt. eigenvalues --    3.76568   3.82766   3.98801   4.03740   4.09230
 Alpha virt. eigenvalues --    4.14478   4.15678   4.22591   4.85249   5.01420
 Alpha virt. eigenvalues --    5.39574   5.78786  23.59747  23.90521  23.94012
 Alpha virt. eigenvalues --   23.96366  24.07895  24.11275  24.20835  49.95804
          Condensed to atoms (all electrons):
              1          2          3          4          5          6
     1  C    9.047731  -0.476645  -1.745477  -0.297698   0.042952  -0.052752
     2  C   -0.476645   7.386693  -0.426844  -0.462136  -0.369029   0.165658
     3  C   -1.745477  -0.426844   7.145581   0.370777   0.037281  -0.117569
     4  C   -0.297698  -0.462136   0.370777   5.785459   0.540479   0.121335
     5  C    0.042952  -0.369029   0.037281   0.540479   4.964506   0.508120
     6  C   -0.052752   0.165658  -0.117569   0.121335   0.508120   5.098957
     7  H    0.327747   0.056225  -0.017254  -0.003852  -0.006569   0.004432
     8  O   -0.565119   0.370779   0.097604   0.051063  -0.008437   0.015266
     9  H   -0.067998   0.001243   0.406517   0.018716  -0.010401   0.010566
    10  H   -0.015807   0.017404  -0.000610   0.356821  -0.012479  -0.000518
    11  H   -0.036900   0.023094  -0.016951  -0.000123   0.374069   0.007787
    12  H   -0.076004   0.023181   0.011843  -0.013606   0.007944   0.393980
    13  C    0.053740   0.060421  -0.213430  -0.101068  -0.004140   0.007303
    14  H   -0.006679  -0.035529   0.026171   0.005815   0.000689   0.000246
    15  H    0.008929   0.028985  -0.015946   0.000560  -0.000471   0.000741
    16  H   -0.006235  -0.035676   0.026037   0.005557   0.000738   0.000227
              7          8          9         10         11         12
     1  C    0.327747  -0.565119  -0.067998  -0.015807  -0.036900  -0.076004
     2  C    0.056225   0.370779   0.001243   0.017404   0.023094   0.023181
     3  C   -0.017254   0.097604   0.406517  -0.000610  -0.016951   0.011843
     4  C   -0.003852   0.051063   0.018716   0.356821  -0.000123  -0.013606
     5  C   -0.006569  -0.008437  -0.010401  -0.012479   0.374069   0.007944
     6  C    0.004432   0.015266   0.010566  -0.000518   0.007787   0.393980
     7  H    0.529863  -0.008351  -0.000143   0.000066  -0.000227  -0.007885
     8  O   -0.008351   8.215683  -0.019794  -0.000526   0.000254  -0.000912
     9  H   -0.000143  -0.019794   0.545455  -0.007996  -0.000279   0.000073
    10  H    0.000066  -0.000526  -0.007996   0.545141  -0.008028  -0.000315
    11  H   -0.000227   0.000254  -0.000279  -0.008028   0.543819  -0.007954
    12  H   -0.007885  -0.000912   0.000073  -0.000315  -0.007954   0.542648
    13  C    0.001459   0.163158   0.005091   0.002070   0.000348   0.000579
    14  H    0.000062  -0.032540  -0.000420   0.000030   0.000000   0.000000
    15  H   -0.000083  -0.065053   0.000406  -0.000004   0.000000  -0.000001
    16  H    0.000062  -0.032450  -0.000433   0.000030   0.000000   0.000000
             13         14         15         16
     1  C    0.053740  -0.006679   0.008929  -0.006235
     2  C    0.060421  -0.035529   0.028985  -0.035676
     3  C   -0.213430   0.026171  -0.015946   0.026037
     4  C   -0.101068   0.005815   0.000560   0.005557
     5  C   -0.004140   0.000689  -0.000471   0.000738
     6  C    0.007303   0.000246   0.000741   0.000227
     7  H    0.001459   0.000062  -0.000083   0.000062
     8  O    0.163158  -0.032540  -0.065053  -0.032450
     9  H    0.005091  -0.000420   0.000406  -0.000433
    10  H    0.002070   0.000030  -0.000004   0.000030
    11  H    0.000348   0.000000   0.000000   0.000000
    12  H    0.000579   0.000000  -0.000001   0.000000
    13  C    5.036065   0.409768   0.411868   0.409835
    14  H    0.409768   0.569355  -0.027085  -0.052884
    15  H    0.411868  -0.027085   0.526145  -0.027074
    16  H    0.409835  -0.052884  -0.027074   0.569265
 Mulliken atomic charges:
              1
     1  C   -0.133786
     2  C   -0.327826
     3  C    0.432270
     4  C   -0.378100
     5  C   -0.065255
     6  C   -0.163780
     7  H    0.124449
     8  O   -0.180624
     9  H    0.119397
    10  H    0.124719
    11  H    0.121090
    12  H    0.126430
    13  C   -0.243068
    14  H    0.143000
    15  H    0.158083
    16  H    0.143000
 Sum of Mulliken charges=   0.00000
 Atomic charges with hydrogens summed into heavy atoms:
              1
     1  C   -0.009337
     2  C   -0.327826
     3  C    0.551667
     4  C   -0.253381
     5  C    0.055835
     6  C   -0.037349
     7  H    0.000000
     8  O   -0.180624
     9  H    0.000000
    10  H    0.000000
    11  H    0.000000
    12  H    0.000000
    13  C    0.201015
    14  H    0.000000
    15  H    0.000000
    16  H    0.000000
 Sum of Mulliken charges=   0.00000
 Electronic spatial extent (au):  <R**2>=   979.9780
 Charge=     0.0000 electrons
 Dipole moment (field-independent basis, Debye):
    X=     0.7939    Y=     1.1418    Z=     0.0007  Tot=     1.3907
 Quadrupole moment (field-independent basis, Debye-Ang):
   XX=   -41.0542   YY=   -45.0756   ZZ=   -51.7893
   XY=     3.1083   XZ=     0.0015   YZ=     0.0000
 Traceless Quadrupole moment (field-independent basis, Debye-Ang):
   XX=     4.9188   YY=     0.8974   ZZ=    -5.8162
   XY=     3.1083   XZ=     0.0015   YZ=     0.0000
 Octapole moment (field-independent basis, Debye-Ang**2):
  XXX=    18.5556  YYY=    -1.7234  ZZZ=    -0.0022  XYY=    -1.8810
  XXY=     4.0333  XXZ=     0.0125  XZZ=     8.6331  YZZ=    -0.6305
  YYZ=    -0.0060  XYZ=    -0.0032
 Hexadecapole moment (field-independent basis, Debye-Ang**3):
 XXXX=  -838.3233 YYYY=  -312.2944 ZZZZ=   -67.4404 XXXY=     3.2667
 XXXZ=    -0.0003 YYYX=    -1.1741 YYYZ=     0.0075 ZZZX=    -0.0016
 ZZZY=     0.0042 XXYY=  -205.5899 XXZZ=  -179.0914 YYZZ=   -74.1061
 XXYZ=    -0.0062 YYXZ=    -0.0025 ZZXY=     0.6689
 N-N= 3.461470407866D+02 E-N=-1.499717566138D+03  KE= 3.454257416163D+02
 No NMR shielding tensors so no spin-rotation constants.
 Leave Link  601 at Mon Aug 28 12:38:49 2006, MaxMem=    6291456 cpu:       1.5
 (Enter /usr/local/Gaussian/g03/l701.exe)
 Compute integral first derivatives.
 ... and contract with generalized density number  0.
 Leave Link  701 at Mon Aug 28 12:38:52 2006, MaxMem=    6291456 cpu:       1.2
 (Enter /usr/local/Gaussian/g03/l702.exe)
 L702 exits ... SP integral derivatives will be done elsewhere.
 Leave Link  702 at Mon Aug 28 12:38:53 2006, MaxMem=    6291456 cpu:       0.0
 (Enter /usr/local/Gaussian/g03/l703.exe)
 Compute integral first derivatives, UseDBF=F.
 Integral derivatives from FoFDir, PRISM(SPDF).
 Symmetry not used in FoFDir.
 MinBra= 0 MaxBra= 2 Meth= 1.
 IRaf=       0 NMat=   1 IRICut=       1 DoRegI=T DoRafI=F ISym2E= 0 JSym2E=0.
 Leave Link  703 at Mon Aug 28 13:06:08 2006, MaxMem=    6291456 cpu:     519.9
 (Enter /usr/local/Gaussian/g03/l716.exe)
 Dipole        = 3.12357568D-01 4.49201397D-01 2.65819461D-04
 ***** Axes restored to original set *****
 -------------------------------------------------------------------
 Center     Atomic                   Forces (Hartrees/Bohr)
 Number     Number              X              Y              Z
 -------------------------------------------------------------------
    1          6          -0.002684751   -0.000064278   -0.000215240
    2          6           0.001441880   -0.000022803   -0.001519594
    3          6          -0.000802781   -0.000014460    0.002777528
    4          6           0.002413074    0.000039789    0.001318997
    5          6           0.002380136   -0.000002590   -0.001538384
    6          6           0.000004174    0.000033274   -0.002618661
    7          1          -0.000078513    0.000035885   -0.000471126
    8          8          -0.002312196    0.000019989   -0.000161732
    9          1           0.000025454    0.000006952    0.000240933
   10          1           0.000110465   -0.000008199    0.000082337
   11          1           0.000161405   -0.000010659   -0.000029871
   12          1          -0.000024904   -0.000007940   -0.000162293
   13          6          -0.000510158   -0.000005326    0.003615312
   14          1          -0.000101159    0.000041279   -0.000533182
   15          1           0.000074765   -0.000005695   -0.000252065
   16          1          -0.000096891   -0.000035217   -0.000532959
 -------------------------------------------------------------------
 Cartesian Forces:  Max     0.003615312 RMS     0.001138216
 Leave Link  716 at Mon Aug 28 13:06:09 2006, MaxMem=    6291456 cpu:       0.0
 (Enter /usr/local/Gaussian/g03/l103.exe)

 GradGradGradGradGradGradGradGradGradGradGradGradGradGradGradGradGradGrad
 Berny optimization.
 Internal  Forces:  Max     0.003565461 RMS     0.000961891
 Search for a local minimum.
 Step number   1 out of a maximum of  80
 All quantities printed in internal units (Hartrees-Bohrs-Radians)
 Second derivative matrix not updated -- first step.
     Eigenvalues ---    0.01481   0.02130   0.02147   0.02157   0.02186
     Eigenvalues ---    0.02190   0.02200   0.02206   0.02215   0.02226
     Eigenvalues ---    0.02247   0.10018   0.10641   0.16000   0.16000
     Eigenvalues ---    0.16000   0.16000   0.16000   0.16000   0.16000
     Eigenvalues ---    0.16000   0.22000   0.22000   0.23483   0.25000
     Eigenvalues ---    0.25000   0.34090   0.34092   0.34905   0.35469
     Eigenvalues ---    0.35487   0.35594   0.35615   0.35814   0.42368
     Eigenvalues ---    0.42493   0.43082   0.46197   0.46452   0.47250
     Eigenvalues ---    0.47897   0.526341000.000001000.000001000.00000
     Eigenvalues --- 1000.000001000.000001000.000001000.000001000.00000
     Eigenvalues --- 1000.000001000.000001000.000001000.000001000.00000
     Eigenvalues --- 1000.000001000.000001000.000001000.000001000.00000
     Eigenvalues --- 1000.000001000.000001000.000001000.000001000.00000
     Eigenvalues --- 1000.000001000.000001000.000001000.000001000.00000
 RFO step:  Lambda=-1.44474368D-04.
 Linear search not attempted -- first point.
 Iteration  1 RMS(Cart)=  0.00461293 RMS(Int)=  0.00000279
 Iteration  2 RMS(Cart)=  0.00000237 RMS(Int)=  0.00000093
 Iteration  3 RMS(Cart)=  0.00000000 RMS(Int)=  0.00000093
 Variable       Old X    -DE/DX   Delta X   Delta X   Delta X     New X
                                 (Linear)    (Quad)   (Total)
    R1        2.64390   0.00216   0.00000   0.00464   0.00464   2.64854
    R2        2.61657   0.00289   0.00000   0.00597   0.00597   2.62255
    R3        2.04687   0.00030   0.00000   0.00083   0.00083   2.04770
    R4        2.63656   0.00228   0.00000   0.00485   0.00485   2.64141
    R5        2.57297   0.00357   0.00000   0.00677   0.00677   2.57974
    R6        2.63520   0.00295   0.00000   0.00634   0.00634   2.64154
    R7        2.04373   0.00024   0.00000   0.00067   0.00067   2.04440
    R8        2.62106   0.00289   0.00000   0.00611   0.00611   2.62717
    R9        2.04920   0.00013   0.00000   0.00038   0.00038   2.04958
   R10        2.63595   0.00284   0.00000   0.00616   0.00616   2.64212
   R11        2.04721   0.00015   0.00000   0.00043   0.00043   2.04764
   R12        2.04892   0.00016   0.00000   0.00046   0.00046   2.04939
   R13        2.67568   0.00235   0.00000   0.00545   0.00545   2.68113
   R14        2.07179  -0.00028   0.00000  -0.00082  -0.00082   2.07096
   R15        2.05830  -0.00014   0.00000  -0.00039  -0.00039   2.05791
   R16        2.07176  -0.00027   0.00000  -0.00080  -0.00080   2.07096
    A1        2.09635  -0.00014   0.00000  -0.00076  -0.00076   2.09559
    A2        2.06452   0.00045   0.00000   0.00275   0.00275   2.06726
    A3        2.12231  -0.00031   0.00000  -0.00198  -0.00198   2.12033
    A4        2.08867   0.00040   0.00000   0.00136   0.00136   2.09003
    A5        2.01923   0.00021   0.00000   0.00094   0.00094   2.02016
    A6        2.17529  -0.00060   0.00000  -0.00230  -0.00230   2.17299
    A7        2.08597  -0.00009   0.00000  -0.00047  -0.00047   2.08550
    A8        2.11261   0.00007   0.00000   0.00040   0.00040   2.11301
    A9        2.08460   0.00002   0.00000   0.00007   0.00007   2.08468
   A10        2.11142  -0.00008   0.00000  -0.00018  -0.00018   2.11123
   A11        2.07671   0.00003   0.00000   0.00005   0.00005   2.07676
   A12        2.09506   0.00005   0.00000   0.00014   0.00013   2.09519
   A13        2.07974  -0.00012   0.00000  -0.00024  -0.00024   2.07950
   A14        2.10234   0.00002   0.00000  -0.00016  -0.00016   2.10218
   A15        2.10110   0.00011   0.00000   0.00041   0.00041   2.10151
   A16        2.10422   0.00003   0.00000   0.00030   0.00030   2.10452
   A17        2.08381  -0.00005   0.00000  -0.00036  -0.00036   2.08345
   A18        2.09515   0.00002   0.00000   0.00006   0.00006   2.09521
   A19        2.06956   0.00096   0.00000   0.00384   0.00384   2.07341
   A20        1.94950  -0.00050   0.00000  -0.00310  -0.00311   1.94639
   A21        1.85087  -0.00014   0.00000  -0.00087  -0.00087   1.85000
   A22        1.94950  -0.00050   0.00000  -0.00312  -0.00312   1.94638
   A23        1.90421   0.00030   0.00000   0.00187   0.00187   1.90608
   A24        1.90419   0.00055   0.00000   0.00338   0.00337   1.90756
   A25        1.90417   0.00031   0.00000   0.00193   0.00193   1.90609
    D1        0.00005   0.00000   0.00000  -0.00005  -0.00005   0.00000
    D2       -3.14121  -0.00001   0.00000  -0.00044  -0.00045   3.14153
    D3        3.14066   0.00002   0.00000   0.00083   0.00083   3.14149
    D4       -0.00060   0.00001   0.00000   0.00044   0.00044  -0.00016
    D5       -0.00021   0.00000   0.00000   0.00022   0.00022   0.00001
    D6       -3.14155   0.00000   0.00000   0.00000   0.00000  -3.14155
    D7       -3.14079  -0.00002   0.00000  -0.00069  -0.00069  -3.14148
    D8        0.00106  -0.00002   0.00000  -0.00092  -0.00091   0.00014
    D9       -0.00005   0.00000   0.00000   0.00006   0.00006   0.00001
   D10       -3.14130  -0.00001   0.00000  -0.00025  -0.00025  -3.14154
   D11        3.14118   0.00001   0.00000   0.00049   0.00049  -3.14151
   D12       -0.00007   0.00000   0.00000   0.00019   0.00019   0.00012
   D13       -3.14071   0.00000   0.00000   0.00002   0.00002  -3.14070
   D14        0.00123  -0.00001   0.00000  -0.00040  -0.00040   0.00083
   D15        0.00021  -0.00001   0.00000  -0.00025  -0.00025  -0.00004
   D16        3.14144   0.00000   0.00000   0.00017   0.00017  -3.14158
   D17        3.14147   0.00000   0.00000   0.00005   0.00005   3.14152
   D18       -0.00049   0.00001   0.00000   0.00047   0.00047  -0.00002
   D19       -0.00037   0.00001   0.00000   0.00042   0.00042   0.00005
   D20        3.14121   0.00001   0.00000   0.00038   0.00038   3.14159
   D21        3.14159   0.00000   0.00000   0.00000   0.00000   3.14159
   D22       -0.00002   0.00000   0.00000  -0.00004  -0.00004  -0.00006
   D23        0.00037  -0.00001   0.00000  -0.00041  -0.00041  -0.00004
   D24       -3.14148   0.00000   0.00000  -0.00018  -0.00018   3.14153
   D25       -3.14121  -0.00001   0.00000  -0.00037  -0.00037  -3.14158
   D26        0.00013   0.00000   0.00000  -0.00014  -0.00014  -0.00001
   D27       -1.07006   0.00001   0.00000   0.00028   0.00028  -1.06979
   D28        3.14058   0.00001   0.00000   0.00024   0.00024   3.14082
   D29        1.06808   0.00000   0.00000   0.00015   0.00015   1.06823
         Item               Value     Threshold  Converged?
 Maximum Force            0.003565     0.000450     NO 
 RMS     Force            0.000962     0.000300     NO 
 Maximum Displacement     0.012255     0.001800     NO 
 RMS     Displacement     0.004612     0.001200     NO 
 Predicted change in Energy=-7.226257D-05
 GradGradGradGradGradGradGradGradGradGradGradGradGradGradGradGradGradGrad

 Leave Link  103 at Mon Aug 28 13:06:12 2006, MaxMem=    6291456 cpu:       0.4
 (Enter /usr/local/Gaussian/g03/l202.exe)
                          Input orientation:                          
 ---------------------------------------------------------------------
 Center     Atomic     Atomic              Coordinates (Angstroms)
 Number     Number      Type              X           Y           Z
 ---------------------------------------------------------------------
    1          6             0       -0.001393   -0.000256   -0.002668
    2          6             0        0.000031   -0.000285    1.398877
    3          6             0        1.214283   -0.000106    2.091234
    4          6             0        2.414746    0.000116    1.375092
    5          6             0        2.418298    0.000115   -0.015144
    6          6             0        1.198931   -0.000051   -0.699221
    7          1             0       -0.954693   -0.000494   -0.517843
    8          8             0       -1.228978   -0.000419    1.993139
    9          1             0        1.240248   -0.000172    3.172770
   10          1             0        3.352205    0.000238    1.920531
   11          1             0        3.353844    0.000291   -0.561825
   12          1             0        1.184661    0.000006   -1.783616
   13          6             0       -1.303043    0.000655    3.409998
   14          1             0       -0.834578   -0.892994    3.837720
   15          1             0       -2.364112    0.001140    3.655064
   16          1             0       -0.834057    0.894667    3.836376
 ---------------------------------------------------------------------
                    Distance matrix (angstroms):
                    1          2          3          4          5
     1  C    0.000000
     2  C    1.401546   0.000000
     3  C    2.421218   1.397772   0.000000
     4  C    2.781358   2.414832   1.397845   0.000000
     5  C    2.419723   2.801333   2.426207   1.390240   0.000000
     6  C    1.387791   2.416480   2.790497   2.404367   1.398147
     7  H    1.083598   2.141334   3.392895   3.864754   3.410245
     8  O    2.343120   1.365141   2.445229   3.695768   4.163631
     9  H    3.409558   2.164448   1.081848   2.147345   3.398617
    10  H    3.865918   3.392521   2.144726   1.084589   2.149191
    11  H    3.401511   3.884896   3.408291   2.152569   1.083563
    12  H    2.139742   3.395822   3.874963   3.389770   2.156235
    13  C    3.652477   2.396375   2.841843   4.238254   5.057665
    14  H    4.029858   2.727903   2.836423   4.173762   5.120879
    15  H    4.354474   3.267959   3.905186   5.294880   6.028422
    16  H    4.028955   2.727278   2.835813   4.172872   5.119789
                    6          7          8          9         10
     6  C    0.000000
     7  H    2.161249   0.000000
     8  O    3.625403   2.525918   0.000000
     9  H    3.872212   4.293995   2.736532   0.000000
    10  H    3.391119   4.949246   4.581759   2.455293   0.000000
    11  H    2.159289   4.308762   5.246914   4.291211   2.482357
    12  H    1.084488   2.485763   4.482134   4.956697   4.291730
    13  C    4.810983   3.943258   1.418795   2.554332   4.887725
    14  H    5.051370   4.447685   2.086796   2.354611   4.690696
    15  H    5.626284   4.404499   2.012592   3.636485   5.973683
    16  H    5.050268   4.446919   2.086783   2.354539   4.689910
                   11         12         13         14         15
    11  H    0.000000
    12  H    2.489604   0.000000
    13  C    6.120620   5.758672   0.000000
    14  H    6.139775   6.039386   1.095907   0.000000
    15  H    7.104730   6.494076   1.089002   1.781099   0.000000
    16  H    6.138616   6.038207   1.095903   1.787662   1.781105
                   16
    16  H    0.000000
 Stoichiometry    C7H8O
 Framework group  C1[X(C7H8O)]
 Deg. of freedom    42
 Full point group                 C1      NOp   1
 Largest Abelian subgroup         C1      NOp   1
 Largest concise Abelian subgroup C1      NOp   1
                         Standard orientation:                         
 ---------------------------------------------------------------------
 Center     Atomic     Atomic              Coordinates (Angstroms)
 Number     Number      Type              X           Y           Z
 ---------------------------------------------------------------------
    1          6             0       -0.496558   -1.301623   -0.000034
    2          6             0        0.453036   -0.270798   -0.000273
    3          6             0        0.030413    1.061552   -0.000283
    4          6             0       -1.337436    1.349580   -0.000038
    5          6             0       -2.283016    0.330439    0.000169
    6          6             0       -1.851018   -0.999295    0.000192
    7          1             0       -0.145504   -2.326780   -0.000127
    8          8             0        1.759192   -0.667745   -0.000409
    9          1             0        0.744918    1.873880   -0.000513
   10          1             0       -1.656323    2.386230   -0.000064
   11          1             0       -3.341262    0.563300    0.000361
   12          1             0       -2.576056   -1.805791    0.000413
   13          6             0        2.774644    0.323130    0.000457
   14          1             0        2.720485    0.955031   -0.893289
   15          1             0        3.720544   -0.216498    0.000980
   16          1             0        2.719280    0.954679    0.894372
 ---------------------------------------------------------------------
 Rotational constants (GHZ):      5.0566865      1.5585352      1.2004613
 Leave Link  202 at Mon Aug 28 13:06:13 2006, MaxMem=    6291456 cpu:       0.4
 (Enter /usr/local/Gaussian/g03/l301.exe)
 Standard basis: 6-311+G(d,p) (5D, 7F)
 There are   224 symmetry adapted basis functions of A   symmetry.
 Integral buffers will be    131072 words long.
 Raffenetti 2 integral format.
 Two-electron integral symmetry is turned on.
   224 basis functions,   352 primitive gaussians,   232 cartesian basis functions
    29 alpha electrons       29 beta electrons
       nuclear repulsion energy       345.4512253855 Hartrees.
 IExCor= 402 DFT=T Ex=B+HF Corr=LYP ExCW=0 ScaHFX=  0.200000
 ScaDFX=  0.800000  0.720000  1.000000  0.810000
 IRadAn=      0 IRanWt=     -1 IRanGd=            0 ICorTp=0
 NAtoms=   16 NActive=   16 NUniq=   16 SFac= 1.00D+00 NAtFMM=   60 Big=F
 Leave Link  301 at Mon Aug 28 13:06:15 2006, MaxMem=    6291456 cpu:       0.1
 (Enter /usr/local/Gaussian/g03/l302.exe)
 NPDir=0 NMtPBC=     1 NCelOv=     1 NCel=       1 NClECP=     1 NCelD=      1
         NCelK=      1 NCelE2=     1 NClLst=     1 CellRange=     0.0.
 One-electron integrals computed using PRISM.
 NBasis=   224 RedAO= T  NBF=   224
 NBsUse=   224 1.00D-06 NBFU=   224
 Precomputing XC quadrature grid using
 IXCGrd= 2 IRadAn=           0 IRanWt=          -1 IRanGd=           0.
 NRdTot=    1031 NPtTot=      131318 NUsed=      138600 NTot=      138632
 NSgBfM=   232   232   232   232.
 Leave Link  302 at Mon Aug 28 13:06:25 2006, MaxMem=    6291456 cpu:       2.8
 (Enter /usr/local/Gaussian/g03/l303.exe)
 DipDrv:  MaxL=1.
 Leave Link  303 at Mon Aug 28 13:06:26 2006, MaxMem=    6291456 cpu:       0.2
 (Enter /usr/local/Gaussian/g03/l401.exe)
 Initial guess read from the read-write file:
 Guess basis will be translated and rotated to current coordinates.
 Initial guess orbital symmetries:
       Occupied  (A) (A) (A) (A) (A) (A) (A) (A) (A) (A) (A) (A)
                 (A) (A) (A) (A) (A) (A) (A) (A) (A) (A) (A) (A)
                 (A) (A) (A) (A) (A)
       Virtual   (A) (A) (A) (A) (A) (A) (A) (A) (A) (A) (A) (A)
                 (A) (A) (A) (A) (A) (A) (A) (A) (A) (A) (A) (A)
                 (A) (A) (A) (A) (A) (A) (A) (A) (A) (A) (A) (A)
                 (A) (A) (A) (A) (A) (A) (A) (A) (A) (A) (A) (A)
                 (A) (A) (A) (A) (A) (A) (A) (A) (A) (A) (A) (A)
                 (A) (A) (A) (A) (A) (A) (A) (A) (A) (A) (A) (A)
                 (A) (A) (A) (A) (A) (A) (A) (A) (A) (A) (A) (A)
                 (A) (A) (A) (A) (A) (A) (A) (A) (A) (A) (A) (A)
                 (A) (A) (A) (A) (A) (A) (A) (A) (A) (A) (A) (A)
                 (A) (A) (A) (A) (A) (A) (A) (A) (A) (A) (A) (A)
                 (A) (A) (A) (A) (A) (A) (A) (A) (A) (A) (A) (A)
                 (A) (A) (A) (A) (A) (A) (A) (A) (A) (A) (A) (A)
                 (A) (A) (A) (A) (A) (A) (A) (A) (A) (A) (A) (A)
                 (A) (A) (A) (A) (A) (A) (A) (A) (A) (A) (A) (A)
                 (A) (A) (A) (A) (A) (A) (A) (A) (A) (A) (A) (A)
                 (A) (A) (A) (A) (A) (A) (A) (A) (A) (A) (A) (A)
                 (A) (A) (A)
 The electronic state of the initial guess is 1-A.
 Leave Link  401 at Mon Aug 28 13:06:31 2006, MaxMem=    6291456 cpu:       1.4
 (Enter /usr/local/Gaussian/g03/l502.exe)
 Closed shell SCF:
 Requested convergence on RMS density matrix=1.00D-08 within 128 cycles.
 Requested convergence on MAX density matrix=1.00D-06.
 Requested convergence on             energy=1.00D-06.
 No special actions if energy rises.
 Using DIIS extrapolation, IDIIS=  1040.
 Integral symmetry usage will be decided dynamically.
       138599 words used for storage of precomputed grid.
 IEnd=    346863 IEndB=    346863 NGot=   6291456 MDV=   6015290
 LenX=   6015290
 Fock matrices will be formed incrementally for  20 cycles.

 Cycle   1  Pass 1  IDiag  1:
 Petite list used in FoFDir.
 MinBra= 0 MaxBra= 2 Meth= 1.
 IRaf=       0 NMat=   1 IRICut=       1 DoRegI=T DoRafI=F ISym2E= 1 JSym2E=1.
 E= -346.867532832592    
 DIIS: error= 2.66D-04 at cycle   1 NSaved=   1.
 NSaved= 1 IEnMin= 1 EnMin= -346.867532832592     IErMin= 1 ErrMin= 2.66D-04
 ErrMax= 2.66D-04 EMaxC= 1.00D-01 BMatC= 2.77D-05 BMatP= 2.77D-05
 IDIUse=3 WtCom= 9.97D-01 WtEn= 2.66D-03
 Coeff-Com:  0.100D+01
 Coeff-En:   0.100D+01
 Coeff:      0.100D+01
 Gap=     0.212 Goal=   None    Shift=    0.000
 RMSDP=1.86D-04 MaxDP=1.34D-02              OVMax= 1.11D-03

 Cycle   2  Pass 1  IDiag  1:
 RMSU=  1.81D-04    CP:  9.98D-01
 E= -346.867556461173     Delta-E=       -0.000023628582 Rises=F Damp=F
 DIIS: error= 1.54D-04 at cycle   2 NSaved=   2.
 NSaved= 2 IEnMin= 2 EnMin= -346.867556461173     IErMin= 2 ErrMin= 1.54D-04
 ErrMax= 1.54D-04 EMaxC= 1.00D-01 BMatC= 3.79D-06 BMatP= 2.77D-05
 IDIUse=3 WtCom= 9.98D-01 WtEn= 1.54D-03
 Coeff-Com:  0.181D+00 0.819D+00
 Coeff-En:   0.000D+00 0.100D+01
 Coeff:      0.181D+00 0.819D+00
 Gap=     0.212 Goal=   None    Shift=    0.000
 RMSDP=2.46D-05 MaxDP=7.88D-04 DE=-2.36D-05 OVMax= 7.81D-04

 Cycle   3  Pass 1  IDiag  1:
 RMSU=  2.45D-05    CP:  9.98D-01  1.01D+00
 E= -346.867557471068     Delta-E=       -0.000001009895 Rises=F Damp=F
 DIIS: error= 1.12D-04 at cycle   3 NSaved=   3.
 NSaved= 3 IEnMin= 3 EnMin= -346.867557471068     IErMin= 3 ErrMin= 1.12D-04
 ErrMax= 1.12D-04 EMaxC= 1.00D-01 BMatC= 2.68D-06 BMatP= 3.79D-06
 IDIUse=3 WtCom= 9.99D-01 WtEn= 1.12D-03
 Coeff-Com: -0.528D-02 0.456D+00 0.549D+00
 Coeff-En:   0.000D+00 0.421D+00 0.579D+00
 Coeff:     -0.528D-02 0.456D+00 0.549D+00
 Gap=     0.212 Goal=   None    Shift=    0.000
 RMSDP=2.23D-05 MaxDP=8.12D-04 DE=-1.01D-06 OVMax= 4.81D-04

 Cycle   4  Pass 1  IDiag  1:
 RMSU=  1.48D-05    CP:  9.98D-01  1.03D+00  3.81D-01
 E= -346.867559862645     Delta-E=       -0.000002391577 Rises=F Damp=F
 DIIS: error= 3.21D-05 at cycle   4 NSaved=   4.
 NSaved= 4 IEnMin= 4 EnMin= -346.867559862645     IErMin= 4 ErrMin= 3.21D-05
 ErrMax= 3.21D-05 EMaxC= 1.00D-01 BMatC= 1.06D-07 BMatP= 2.68D-06
 IDIUse=1 WtCom= 1.00D+00 WtEn= 0.00D+00
 Coeff-Com: -0.653D-02 0.229D+00 0.314D+00 0.464D+00
 Coeff:     -0.653D-02 0.229D+00 0.314D+00 0.464D+00
 Gap=     0.212 Goal=   None    Shift=    0.000
 RMSDP=4.81D-06 MaxDP=3.64D-04 DE=-2.39D-06 OVMax= 1.55D-04

 Cycle   5  Pass 1  IDiag  1:
 RMSU=  2.35D-06    CP:  9.98D-01  1.02D+00  3.97D-01  8.08D-01
 E= -346.867559946800     Delta-E=       -0.000000084155 Rises=F Damp=F
 DIIS: error= 7.57D-06 at cycle   5 NSaved=   5.
 NSaved= 5 IEnMin= 5 EnMin= -346.867559946800     IErMin= 5 ErrMin= 7.57D-06
 ErrMax= 7.57D-06 EMaxC= 1.00D-01 BMatC= 9.02D-09 BMatP= 1.06D-07
 IDIUse=1 WtCom= 1.00D+00 WtEn= 0.00D+00
 Coeff-Com: -0.282D-02 0.450D-01 0.813D-01 0.248D+00 0.629D+00
 Coeff:     -0.282D-02 0.450D-01 0.813D-01 0.248D+00 0.629D+00
 Gap=     0.212 Goal=   None    Shift=    0.000
 RMSDP=1.23D-06 MaxDP=1.21D-04 DE=-8.42D-08 OVMax= 3.40D-05

 Cycle   6  Pass 1  IDiag  1:
 RMSU=  9.78D-07    CP:  9.98D-01  1.02D+00  4.08D-01  7.96D-01  8.60D-01
 E= -346.867559954733     Delta-E=       -0.000000007933 Rises=F Damp=F
 DIIS: error= 2.74D-06 at cycle   6 NSaved=   6.
 NSaved= 6 IEnMin= 6 EnMin= -346.867559954733     IErMin= 6 ErrMin= 2.74D-06
 ErrMax= 2.74D-06 EMaxC= 1.00D-01 BMatC= 7.21D-10 BMatP= 9.02D-09
 IDIUse=1 WtCom= 1.00D+00 WtEn= 0.00D+00
 Coeff-Com: -0.850D-03 0.612D-02 0.189D-01 0.939D-01 0.310D+00 0.572D+00
 Coeff:     -0.850D-03 0.612D-02 0.189D-01 0.939D-01 0.310D+00 0.572D+00
 Gap=     0.212 Goal=   None    Shift=    0.000
 RMSDP=2.89D-07 MaxDP=1.31D-05 DE=-7.93D-09 OVMax= 1.70D-05

 Cycle   7  Pass 1  IDiag  1:
 RMSU=  2.01D-07    CP:  9.98D-01  1.02D+00  4.11D-01  8.00D-01  8.41D-01
                    CP:  8.89D-01
 E= -346.867559955337     Delta-E=       -0.000000000604 Rises=F Damp=F
 DIIS: error= 1.63D-06 at cycle   7 NSaved=   7.
 NSaved= 7 IEnMin= 7 EnMin= -346.867559955337     IErMin= 7 ErrMin= 1.63D-06
 ErrMax= 1.63D-06 EMaxC= 1.00D-01 BMatC= 1.43D-10 BMatP= 7.21D-10
 IDIUse=1 WtCom= 1.00D+00 WtEn= 0.00D+00
 Coeff-Com: -0.195D-03-0.102D-02 0.201D-02 0.272D-01 0.100D+00 0.345D+00
 Coeff-Com:  0.527D+00
 Coeff:     -0.195D-03-0.102D-02 0.201D-02 0.272D-01 0.100D+00 0.345D+00
 Coeff:      0.527D+00
 Gap=     0.212 Goal=   None    Shift=    0.000
 RMSDP=1.81D-07 MaxDP=7.83D-06 DE=-6.04D-10 OVMax= 6.62D-06

 Cycle   8  Pass 1  IDiag  1:
 RMSU=  8.44D-08    CP:  9.98D-01  1.02D+00  4.10D-01  8.06D-01  8.26D-01
                    CP:  8.58D-01  8.14D-01
 E= -346.867559955489     Delta-E=       -0.000000000152 Rises=F Damp=F
 DIIS: error= 2.87D-07 at cycle   8 NSaved=   8.
 NSaved= 8 IEnMin= 8 EnMin= -346.867559955489     IErMin= 8 ErrMin= 2.87D-07
 ErrMax= 2.87D-07 EMaxC= 1.00D-01 BMatC= 1.01D-11 BMatP= 1.43D-10
 IDIUse=1 WtCom= 1.00D+00 WtEn= 0.00D+00
 Coeff-Com: -0.462D-04-0.949D-03-0.359D-03 0.803D-02 0.308D-01 0.146D+00
 Coeff-Com:  0.284D+00 0.532D+00
 Coeff:     -0.462D-04-0.949D-03-0.359D-03 0.803D-02 0.308D-01 0.146D+00
 Coeff:      0.284D+00 0.532D+00
 Gap=     0.212 Goal=   None    Shift=    0.000
 RMSDP=3.39D-08 MaxDP=1.98D-06 DE=-1.52D-10 OVMax= 1.11D-06

 Cycle   9  Pass 1  IDiag  1:
 RMSU=  1.86D-08    CP:  9.98D-01  1.02D+00  4.10D-01  8.07D-01  8.26D-01
                    CP:  8.66D-01  8.41D-01  9.93D-01
 E= -346.867559955497     Delta-E=       -0.000000000008 Rises=F Damp=F
 DIIS: error= 8.01D-08 at cycle   9 NSaved=   9.
 NSaved= 9 IEnMin= 9 EnMin= -346.867559955497     IErMin= 9 ErrMin= 8.01D-08
 ErrMax= 8.01D-08 EMaxC= 1.00D-01 BMatC= 6.45D-13 BMatP= 1.01D-11
 IDIUse=1 WtCom= 1.00D+00 WtEn= 0.00D+00
 Coeff-Com:  0.197D-05-0.311D-03-0.470D-03 0.217D-03 0.145D-02 0.219D-01
 Coeff-Com:  0.571D-01 0.236D+00 0.684D+00
 Coeff:      0.197D-05-0.311D-03-0.470D-03 0.217D-03 0.145D-02 0.219D-01
 Coeff:      0.571D-01 0.236D+00 0.684D+00
 Gap=     0.212 Goal=   None    Shift=    0.000
 RMSDP=7.76D-09 MaxDP=3.23D-07 DE=-7.62D-12 OVMax= 2.82D-07

 SCF Done:  E(RB+HF-LYP) =  -346.867559955     A.U. after    9 cycles
             Convg  =    0.7759D-08             -V/T =  2.0043
             S**2   =   0.0000
 KE= 3.453663170815D+02 PE=-1.498284064939D+03 EE= 4.605989625162D+02
 Leave Link  502 at Mon Aug 28 14:10:16 2006, MaxMem=    6291456 cpu:    1214.8
 (Enter /usr/local/Gaussian/g03/l701.exe)
 Compute integral first derivatives.
 ... and contract with generalized density number  0.
 Leave Link  701 at Mon Aug 28 14:10:19 2006, MaxMem=    6291456 cpu:       1.2
 (Enter /usr/local/Gaussian/g03/l702.exe)
 L702 exits ... SP integral derivatives will be done elsewhere.
 Leave Link  702 at Mon Aug 28 14:10:19 2006, MaxMem=    6291456 cpu:       0.0
 (Enter /usr/local/Gaussian/g03/l703.exe)
 Compute integral first derivatives, UseDBF=F.
 Integral derivatives from FoFDir, PRISM(SPDF).
 Symmetry not used in FoFDir.
 MinBra= 0 MaxBra= 2 Meth= 1.
 IRaf=       0 NMat=   1 IRICut=       1 DoRegI=T DoRafI=F ISym2E= 0 JSym2E=0.
 Leave Link  703 at Mon Aug 28 14:37:35 2006, MaxMem=    6291456 cpu:     519.5
 (Enter /usr/local/Gaussian/g03/l716.exe)
 Dipole        = 3.11602977D-01 4.51528190D-01 4.07192717D-04
 ***** Axes restored to original set *****
 -------------------------------------------------------------------
 Center     Atomic                   Forces (Hartrees/Bohr)
 Number     Number              X              Y              Z
 -------------------------------------------------------------------
    1          6          -0.000412586   -0.000010458    0.000531724
    2          6           0.001116955    0.000008585   -0.000520982
    3          6          -0.000254388    0.000000333    0.000002694
    4          6          -0.000088451   -0.000006963   -0.000062395
    5          6          -0.000183475    0.000006921    0.000026826
    6          6           0.000169473   -0.000002085    0.000189745
    7          1           0.000138932    0.000006229   -0.000080674
    8          8          -0.000700918    0.000003048   -0.000845374
    9          1          -0.000036821    0.000001808   -0.000026769
   10          1          -0.000053655    0.000000495   -0.000020091
   11          1          -0.000043921   -0.000000176    0.000049949
   12          1          -0.000007304   -0.000002358    0.000064763
   13          6           0.000425678   -0.000004802    0.001298634
   14          1          -0.000047047    0.000038223   -0.000168881
   15          1           0.000026115   -0.000001995   -0.000269622
   16          1          -0.000048588   -0.000036802   -0.000169547
 -------------------------------------------------------------------
 Cartesian Forces:  Max     0.001298634 RMS     0.000335390
 Leave Link  716 at Mon Aug 28 14:37:36 2006, MaxMem=    6291456 cpu:       0.0
 (Enter /usr/local/Gaussian/g03/l103.exe)

 GradGradGradGradGradGradGradGradGradGradGradGradGradGradGradGradGradGrad
 Berny optimization.
 Internal  Forces:  Max     0.000849719 RMS     0.000188868
 Search for a local minimum.
 Step number   2 out of a maximum of  80
 All quantities printed in internal units (Hartrees-Bohrs-Radians)
 Update second derivatives using D2CorX and points  1  2
 Trust test= 9.80D-01 RLast= 1.88D-02 DXMaxT set to 3.00D-01
     Eigenvalues ---    0.01481   0.02129   0.02147   0.02157   0.02186
     Eigenvalues ---    0.02190   0.02200   0.02206   0.02215   0.02226
     Eigenvalues ---    0.02247   0.10049   0.10659   0.15165   0.16000
     Eigenvalues ---    0.16000   0.16000   0.16000   0.16000   0.16000
     Eigenvalues ---    0.16066   0.21958   0.22001   0.23110   0.24836
     Eigenvalues ---    0.25751   0.33967   0.34091   0.34878   0.35472
     Eigenvalues ---    0.35494   0.35597   0.35641   0.35824   0.40135
     Eigenvalues ---    0.42500   0.42565   0.46301   0.47194   0.47286
     Eigenvalues ---    0.51569   0.548321000.000001000.000001000.00000
     Eigenvalues --- 1000.000001000.000001000.000001000.000001000.00000
     Eigenvalues --- 1000.000001000.000001000.000001000.000001000.00000
     Eigenvalues --- 1000.000001000.000001000.000001000.000001000.00000
     Eigenvalues --- 1000.000001000.000001000.000001000.000001000.00000
     Eigenvalues --- 1000.000001000.000001000.000001000.000001000.00000
 RFO step:  Lambda=-8.16722284D-06.
 Quartic linear search produced a step of -0.01866.
 Iteration  1 RMS(Cart)=  0.00226978 RMS(Int)=  0.00000208
 Iteration  2 RMS(Cart)=  0.00000303 RMS(Int)=  0.00000028
 Iteration  3 RMS(Cart)=  0.00000000 RMS(Int)=  0.00000028
 Variable       Old X    -DE/DX   Delta X   Delta X   Delta X     New X
                                 (Linear)    (Quad)   (Total)
    R1        2.64854  -0.00059  -0.00009  -0.00094  -0.00103   2.64751
    R2        2.62255  -0.00010  -0.00011   0.00024   0.00013   2.62268
    R3        2.04770  -0.00008  -0.00002  -0.00016  -0.00018   2.04753
    R4        2.64141  -0.00039  -0.00009  -0.00048  -0.00057   2.64084
    R5        2.57974   0.00023  -0.00013   0.00094   0.00081   2.58055
    R6        2.64154  -0.00021  -0.00012   0.00004  -0.00008   2.64146
    R7        2.04440  -0.00003  -0.00001  -0.00003  -0.00004   2.04435
    R8        2.62717  -0.00018  -0.00011   0.00011   0.00000   2.62717
    R9        2.04958  -0.00006  -0.00001  -0.00014  -0.00014   2.04943
   R10        2.64212  -0.00022  -0.00011   0.00002  -0.00009   2.64202
   R11        2.04764  -0.00006  -0.00001  -0.00014  -0.00015   2.04748
   R12        2.04939  -0.00006  -0.00001  -0.00014  -0.00015   2.04924
   R13        2.68113   0.00069  -0.00010   0.00199   0.00189   2.68302
   R14        2.07096  -0.00011   0.00002  -0.00038  -0.00037   2.07059
   R15        2.05791  -0.00009   0.00001  -0.00028  -0.00028   2.05764
   R16        2.07096  -0.00011   0.00001  -0.00038  -0.00037   2.07059
    A1        2.09559  -0.00021   0.00001  -0.00101  -0.00099   2.09460
    A2        2.06726   0.00024  -0.00005   0.00150   0.00144   2.06871
    A3        2.12033  -0.00003   0.00004  -0.00049  -0.00045   2.11988
    A4        2.09003   0.00034  -0.00003   0.00140   0.00138   2.09140
    A5        2.02016  -0.00007  -0.00002  -0.00018  -0.00019   2.01997
    A6        2.17299  -0.00027   0.00004  -0.00123  -0.00118   2.17181
    A7        2.08550  -0.00011   0.00001  -0.00052  -0.00051   2.08499
    A8        2.11301   0.00002  -0.00001   0.00008   0.00007   2.11309
    A9        2.08468   0.00008   0.00000   0.00044   0.00044   2.08511
   A10        2.11123  -0.00007   0.00000  -0.00027  -0.00027   2.11096
   A11        2.07676   0.00004   0.00000   0.00013   0.00012   2.07689
   A12        2.09519   0.00004   0.00000   0.00015   0.00014   2.09534
   A13        2.07950   0.00001   0.00000   0.00015   0.00015   2.07965
   A14        2.10218  -0.00002   0.00000  -0.00016  -0.00015   2.10203
   A15        2.10151   0.00000  -0.00001   0.00001   0.00000   2.10151
   A16        2.10452   0.00004  -0.00001   0.00025   0.00025   2.10477
   A17        2.08345  -0.00004   0.00001  -0.00026  -0.00025   2.08320
   A18        2.09521   0.00000   0.00000   0.00001   0.00000   2.09522
   A19        2.07341  -0.00085  -0.00007  -0.00305  -0.00312   2.07029
   A20        1.94639  -0.00009   0.00006  -0.00074  -0.00068   1.94571
   A21        1.85000  -0.00034   0.00002  -0.00224  -0.00223   1.84778
   A22        1.94638  -0.00009   0.00006  -0.00075  -0.00069   1.94569
   A23        1.90608   0.00017  -0.00003   0.00106   0.00103   1.90711
   A24        1.90756   0.00018  -0.00006   0.00157   0.00150   1.90907
   A25        1.90609   0.00017  -0.00004   0.00107   0.00104   1.90713
    D1        0.00000   0.00000   0.00000  -0.00004  -0.00004  -0.00004
    D2        3.14153   0.00000   0.00001   0.00011   0.00012  -3.14153
    D3        3.14149   0.00000  -0.00002   0.00011   0.00010   3.14159
    D4       -0.00016   0.00001  -0.00001   0.00026   0.00026   0.00010
[...]
 ! D1    D(6,1,2,3)              0.0004         -DE/DX =    0.0                 !
 ! D2    D(6,1,2,8)            180.0015         -DE/DX =    0.0                 !
 ! D3    D(7,1,2,3)            180.0013         -DE/DX =    0.0                 !
 ! D4    D(7,1,2,8)              0.0024         -DE/DX =    0.0                 !
 ! D5    D(2,1,6,5)             -0.0003         -DE/DX =    0.0                 !
 ! D6    D(2,1,6,12)          -180.0002         -DE/DX =    0.0                 !
 ! D7    D(7,1,6,5)            179.9988         -DE/DX =    0.0                 !
 ! D8    D(7,1,6,12)            -0.0011         -DE/DX =    0.0                 !
 ! D9    D(1,2,3,4)              0.0001         -DE/DX =    0.0                 !
 ! D10   D(1,2,3,9)           -179.9994         -DE/DX =    0.0                 !
 ! D11   D(8,2,3,4)           -180.0012         -DE/DX =    0.0                 !
 ! D12   D(8,2,3,9)             -0.0006         -DE/DX =    0.0                 !
 ! D13   D(1,2,8,13)          -179.972          -DE/DX =    0.0                 !
 ! D14   D(3,2,8,13)             0.0291         -DE/DX =    0.0                 !
 ! D15   D(2,3,4,5)             -0.0007         -DE/DX =    0.0                 !
 ! D16   D(2,3,4,10)           180.0002         -DE/DX =    0.0                 !
 ! D17   D(9,3,4,5)            179.9988         -DE/DX =    0.0                 !
 ! D18   D(9,3,4,10)            -0.0003         -DE/DX =    0.0                 !
 ! D19   D(3,4,5,6)              0.0008         -DE/DX =    0.0                 !
 ! D20   D(3,4,5,11)          -179.9997         -DE/DX =    0.0                 !
 ! D21   D(10,4,5,6)           179.9999         -DE/DX =    0.0                 !
 ! D22   D(10,4,5,11)           -0.0006         -DE/DX =    0.0                 !
 ! D23   D(4,5,6,1)             -0.0003         -DE/DX =    0.0                 !
 ! D24   D(4,5,6,12)           179.9996         -DE/DX =    0.0                 !
 ! D25   D(11,5,6,1)           180.0002         -DE/DX =    0.0                 !
 ! D26   D(11,5,6,12)            0.0001         -DE/DX =    0.0                 !
 ! D27   D(2,8,13,14)          -61.3094         -DE/DX =    0.0                 !
 ! D28   D(2,8,13,15)          179.9749         -DE/DX =    0.0                 !
 ! D29   D(2,8,13,16)           61.258          -DE/DX =    0.0                 !
 --------------------------------------------------------------------------------
 GradGradGradGradGradGradGradGradGradGradGradGradGradGradGradGradGradGrad

 Leave Link  103 at Tue Aug 29 08:00:28 2006, MaxMem=    6291456 cpu:       0.2
 (Enter /usr/local/Gaussian/g03/l9999.exe)
 1\1\GINC-PUBLIX\Freq\RB3LYP\6-311+G(d,p)\C7H8O1\NOBODY\29-Aug-2006\0\\
 #P GEOM=ALLCHECK GUESS=READ SCRF=CHECK GENCHK RB3LYP/6-311+G(D,P) FREQ
 \\OMe basis2\\0,1\C,-0.5183906726,-0.0002352741,-1.2934452618\C,-0.516
 4267379,-0.0001271717,0.1072556262\C,0.6967035649,0.0000256245,0.80074
 97903\C,1.8973995572,0.0000699272,0.08531831\C,1.9012890279,-0.0000499
 433,-1.3047715821\C,0.6824585188,-0.0001993475,-1.9891880847\H,-1.4707
 751848,-0.0003319437,-1.8099506332\O,-1.7465008488,-0.0002057655,0.701
 3529956\H,0.7217475083,0.0001014523,1.8821667117\H,2.8346069285,0.0001
 854553,0.6309926354\H,2.8369626254,-0.0000197721,-1.8510317923\H,0.668
 6872438,-0.0002874511,-3.0734972131\C,-1.8172411255,0.0005053852,2.120
 0991951\H,-1.34801288,-0.8935895976,2.5451826381\H,-2.8781913719,0.000
 7589729,2.3649152381\H,-1.347770876,0.8948938062,2.5442904922\\Version
 =Sun64-SVR4-Unix-G03RevB.04\State=1-A\HF=-346.8675652\RMSD=3.397e-09\R
 MSF=1.894e-05\Dipole=0.0802156,0.0003359,0.5434938\DipoleDeriv=-0.1040
 663,0.0000316,0.0723967,0.0000667,-0.1661456,-0.0000434,0.3284522,0.00
 00093,-0.2030848,1.2138719,-0.0000454,-0.8393702,0.0001233,0.0928277,-
 0.0000956,-0.5948044,-0.0000423,0.5108462,-0.3342648,0.0000201,0.26446
 65,-0.0000516,-0.1701921,0.0000454,-0.1025707,-0.0000017,-0.0348468,0.
 1258361,0.0000112,-0.0870283,0.0000154,-0.1446729,0.0000293,0.0381234,
 0.0000324,0.1864929,-0.0824176,0.0000116,-0.0517475,0.0000087,-0.16753
 76,-0.000006,-0.0930355,-0.0000142,-0.1920128,0.1842504,0.0000251,0.04
 38423,0.0000196,-0.1376915,0.0000401,-0.0189451,0.0000185,0.1300094,-0
 .0355732,-0.0000175,-0.0572726,-0.0000129,0.1494156,-0.0000089,-0.0538
 213,-0.000008,0.0529903,-1.2407705,0.0000587,0.7711397,-0.0000746,-0.2
 796476,-0.000144,0.6848048,-0.0001632,-1.1338484,0.0876006,-0.0000084,
 -0.0009096,-0.0000136,0.1480412,-0.0000129,0.0190534,-0.0000149,-0.081
 1373,-0.0697422,-0.0000191,-0.0667036,-0.000017,0.1370084,-0.0000213,-
 0.0800987,-0.0000161,0.0221792,-0.0663404,-0.0000102,0.0773146,-0.0000
 15,0.1516762,-0.0000067,0.0771351,-0.0000052,0.0206707,0.0705568,-0.00
 00022,-0.0002155,-0.0000095,0.136338,-0.0000238,0.0014657,-0.0000216,-
 0.11159,0.2839535,-0.0000285,-0.0446362,-0.0001351,0.3397574,0.0002147
 ,-0.3499362,0.0001526,0.9272967,0.0430189,0.0937214,-0.0903155,0.04953
 57,-0.0921488,0.0870217,0.0535464,0.024626,-0.061739,-0.1189176,0.0000
 641,0.0992967,0.0000474,0.0951721,-0.0000255,0.0370508,-0.0000184,0.02
 93514,0.0430045,-0.0938126,-0.0902575,-0.0494874,-0.0922006,-0.0869631
 ,0.0535802,-0.0245332,-0.0615779\Polar=100.5930159,0.0007224,53.675102
 9,-10.9654227,0.0049544,100.5591755\PG=C01 [X(C7H8O1)]\NImag=0\\0.7481
 5461,0.00004328,0.12429219,0.01275109,0.00004045,0.66717217,-0.1199866
 9,-0.00000261,0.01193800,0.65571251,-0.00000832,-0.06767448,-0.0000214
 1,0.00004622,0.15797777,-0.05442095,-0.00002307,-0.30246176,0.01975946
 ,0.00006669,0.68549717,0.02965330,-0.00000336,-0.06646245,-0.24743514,
 -0.00002154,-0.04873263,0.65286495,-0.00000095,0.00693373,-0.00000522,
 -0.00002336,-0.06433621,-0.00001683,0.00004458,0.11897726,-0.02755506,
 -0.00000261,-0.01953990,-0.11471257,-0.00001988,-0.19157868,-0.0054627
 8,0.00004439,0.73555884,-0.01577489,0.00000078,0.02445976,-0.05954655,
 -0.00000577,-0.02485908,-0.27340111,-0.00000883,0.11983838,0.70413083,
 0.00000125,-0.00245800,-0.00000182,-0.00000293,0.00059925,0.00000407,-
 0.00001296,-0.05629925,0.00000015,0.00004845,0.13279048,0.02774730,-0.
 00000297,-0.05010667,0.02457016,0.00000533,0.07122871,0.05797954,-0.00
 000243,-0.17696551,0.03546653,0.00004809,0.68552038,-0.05750462,-0.000
 00128,0.02425037,-0.01316727,-0.00000203,-0.03360483,0.02953471,0.0000
 0332,0.02774785,-0.12625690,-0.00000292,0.03181924,0.71173295,-0.00000
 666,0.00681101,0.00000573,-0.00000330,-0.00459183,-0.00000646,0.000007
 77,0.00674444,-0.00000029,-0.00000763,-0.06066537,-0.00002175,0.000042
 92,0.12544233,-0.02008569,0.00000330,0.06107179,-0.03272340,-0.0000051
 0,-0.05569780,0.07413418,0.00000220,-0.02882476,-0.03007089,-0.0000264
 5,-0.33841393,-0.04242388,0.00004296,0.67961686,-0.29470668,-0.0000143
 2,0.06540056,0.03362015,0.00000734,0.08187958,-0.06388079,-0.00000353,
 0.00313926,0.03002141,-0.00000394,-0.07713581,-0.27511288,-0.00002134,
 -0.05263262,0.66103872,-0.00000842,-0.05725922,-0.00000409,0.00000433,
 0.00118201,0.00000402,-0.00000472,-0.00285918,0.00000013,-0.00000063,0
 .00618087,-0.00000836,-0.00002633,-0.06095375,-0.00001330,0.00004057,0
 .13460619,0.12643136,0.00000146,-0.18430044,0.03165230,0.00000076,-0.0
 2392847,-0.00311625,-0.00000052,-0.00183688,-0.02940835,-0.00000519,-0
 .02918198,-0.11475610,-0.00001776,-0.17330019,-0.00632289,0.00004713,0
 .73422203,-0.27147264,-0.00002333,-0.11983018,0.00106109,-0.00000013,0
 .00183045,0.00120590,-0.00000027,0.00013624,0.00029772,0.00000018,0.00
 065754,-0.00228634,-0.00000035,0.00403862,-0.01769679,-0.00000259,-0.0
 1483757,0.28783421,-0.00002253,-0.03406680,-0.00001443,-0.00000314,0.0
 0485393,-0.00000056,-0.00000023,0.00508146,-0.00000115,0.00000029,-0.0
 0102926,-0.00000004,-0.00000037,0.00741823,-0.00000020,-0.00000053,0.0
 0241756,-0.00000021,0.00002591,0.02396299,-0.11797380,-0.00001378,-0.1
 2421364,-0.02993881,-0.00000323,-0.01009112,0.00124018,-0.00000064,-0.
 00574336,0.00104400,0.00000005,-0.00084761,0.00328092,-0.00000028,-0.0
 0089847,0.01529325,0.00000168,0.01212120,0.12815070,0.00001534,0.12617
 425,-0.00978605,0.00000064,0.02459616,-0.24757039,-0.00003725,0.038831
 35,-0.04986248,-0.00000624,0.02058183,0.00104291,-0.00000148,-0.006679
 94,-0.00526383,-0.00000005,0.00300982,0.00293936,0.00000135,-0.0040674
 0,0.00077842,0.00000010,-0.00022879,0.38731054,0.00000546,0.00673044,0
 .00000239,-0.00001646,-0.04242492,-0.00002626,-0.00000029,0.00850771,-
 0.00000165,-0.00000255,0.00653907,0.00000250,-0.00000257,-0.00115477,-
 0.00000281,0.00000381,0.00439794,-0.00000331,0.00000026,-0.00315964,0.
 00000073,0.00003452,0.06745498,0.05776374,0.00000228,-0.03568925,0.077
 27889,-0.00000721,-0.13300453,-0.00748170,-0.00000175,0.01434574,-0.00
 072589,-0.00000151,-0.00704123,0.00607604,0.00000064,0.00309595,-0.009
 87374,-0.00000205,-0.00416160,0.00019998,0.00000104,0.00263405,-0.1066
 4042,0.00014778,0.46912901,-0.00485277,-0.00000110,-0.00215539,0.00617
 818,-0.00000167,-0.02750724,-0.05827645,-0.00000311,-0.00925062,0.0047
 9114,0.00000213,0.02844091,-0.00428905,-0.00000076,0.00236815,-0.00141
 696,0.00000006,0.00011186,0.00005339,-0.00000021,-0.00144537,0.0014717
 1,0.00000111,0.00196656,0.05881331,-0.00000126,0.00553400,-0.00000057,
 0.00000097,0.00330977,-0.00000439,-0.00000408,-0.03109756,-0.00002196,
 0.00000018,0.00177753,0.00000133,-0.00000059,0.00676265,-0.00000027,-0
 .00000010,-0.00080827,0.00000014,-0.00000001,-0.00002257,-0.00000023,0
 .00000070,-0.00268975,0.00000019,0.00000253,0.02246703,-0.00309686,-0.
 00000071,0.00048289,0.00254255,-0.00000099,-0.01199211,-0.01043223,-0.
 00002170,-0.33860269,-0.00240004,-0.00000108,-0.01214049,0.00310881,-0
 .00000018,0.00101765,-0.00013443,0.00000011,0.00069497,0.00025370,0.,-
 0.00063494,0.00036069,-0.00000003,-0.00000557,0.00619114,0.00002451,0.
 36101491,0.00020662,0.00000015,0.00077001,-0.00185937,-0.00000052,0.00
 402197,-0.01917869,-0.00000271,-0.01511894,-0.26429274,-0.00002715,-0.
 11966971,0.00347976,0.00000022,0.00207201,0.00177487,-0.00000036,0.000
 21123,-0.00004132,0.00000005,-0.00006447,-0.00178643,0.00000002,-0.000
 44142,0.00102478,0.00000046,0.00018734,0.27978288,0.00000020,-0.001128
 65,0.00000009,-0.00000037,0.00712476,-0.00000045,-0.00000061,0.0031389
 6,-0.00000057,-0.00002706,-0.03632387,-0.00001632,-0.00000255,0.003639
 87,-0.00000139,-0.00000012,0.00702850,-0.00000106,0.00000004,-0.000754
 80,0.00000007,0.00000001,-0.00000167,0.00000026,0.00000035,-0.00405534
 ,0.00000041,0.00002984,0.02531797,0.00094205,0.00000013,-0.00057162,0.
 00324035,-0.00000036,-0.00100582,0.01535824,0.00000168,0.01082480,-0.1
 1981990,-0.00001669,-0.12868858,-0.02898478,-0.00000337,-0.01002262,0.
 00109858,-0.00000096,-0.00591789,-0.00008279,0.00000006,0.00006126,0.0
 0097000,0.00000012,0.00043967,-0.00042933,0.00000034,0.00095711,0.1287
 4475,0.00001869,0.13350168,-0.00280498,-0.00000100,-0.00396877,0.00013
 579,-0.00000007,-0.00110093,0.00168821,-0.00000046,-0.00051966,0.00367
 779,-0.00000009,-0.00251118,-0.26578146,-0.00000869,0.12121900,-0.0184
 3242,-0.00000036,0.01623560,-0.00091038,-0.00000004,0.00080305,0.00000
 165,0.00000013,0.00029528,0.00004308,-0.00000004,-0.00017895,0.0007069
 8,0.00000043,0.00045406,0.28076310,-0.00000072,0.00635809,-0.00000103,
 0.00000005,-0.00037025,-0.00000017,-0.00000085,0.00681660,-0.00000091,
 0.00000270,0.00189806,-0.00000172,-0.00000881,-0.03299364,0.00000213,-
 0.00000296,0.00175301,0.00000204,-0.00000013,0.00041285,0.00000009,0.0
 0000004,-0.00065439,0.00000028,0.00000017,0.00054301,-0.00000014,0.000
 00030,-0.00411838,0.00000046,0.00000987,0.02436189,-0.00304225,-0.0000
 0080,-0.00084613,-0.00104359,-0.00000008,-0.00107486,-0.00138018,-0.00
 000112,-0.00516701,0.02891962,0.00000133,-0.01088616,0.12105758,0.0000
 0173,-0.12904510,-0.01505872,-0.00000045,0.01148337,-0.00072889,-0.000
 00005,0.00040017,0.00013848,0.00000002,0.00025782,0.00131985,0.,-0.000
 64220,-0.00040194,0.00000040,0.00100280,-0.13041474,-0.00000146,0.1337
 2624,0.00411507,0.00000197,0.02844596,-0.00404577,-0.00000090,0.001719
 53,-0.00112224,0.00000011,0.00029020,-0.00463700,-0.00000112,-0.002554
 34,0.00482488,-0.00000215,-0.02805761,-0.05916635,-0.00000194,-0.00388
 220,0.00096336,0.00000031,-0.00052704,0.00006561,0.00000063,0.00167875
 ,0.00009791,0.00000008,0.00000106,0.00001966,-0.00000014,-0.00142581,0
 .00091193,0.00000044,0.00060406,0.05831437,-0.00000013,0.00347252,0.00
 000130,-0.00000081,0.00799596,-0.00000052,0.00000009,-0.00094641,-0.00
 000002,-0.00000120,0.00654644,-0.00000038,-0.00000010,0.00342003,-0.00
 000361,-0.00000153,-0.03727614,-0.00002436,0.00000036,-0.00447894,0.00
 000033,0.00000006,0.00024596,0.,0.00000009,-0.00083207,0.00000008,0.,0
 .00011738,-0.00000017,0.00000034,-0.00371243,0.00000042,0.00000295,0.0
 2573438,-0.00244196,-0.00000133,-0.01211659,0.00227424,-0.00000037,0.0
 0153771,0.00014489,0.00000011,0.00068432,-0.00338389,-0.00000066,0.000
 53379,0.00281733,-0.00000093,-0.01106656,-0.00345332,-0.00002409,-0.33
 456417,0.00021788,0.00000050,0.00086857,0.00026805,-0.00000039,-0.0012
 3412,0.00000128,0.00000006,-0.00008230,0.00015957,-0.00000008,-0.00068
 507,-0.00029964,0.00000031,0.00076762,0.00357139,0.00002662,0.35524230
 ,-0.00474979,-0.00000053,-0.00104442,-0.00762742,0.00002082,0.04258952
 ,-0.00212320,0.00000196,0.00286973,0.00058685,0.00000016,0.00053064,0.
 00038267,0.00000008,0.00034545,-0.00014032,-0.00000085,0.00156118,0.00
 024604,0.00000032,0.00036676,-0.08737506,-0.00001876,-0.02188760,-0.00
 185721,0.00000062,0.00177054,0.00010141,0.,-0.00006632,0.00001113,-0.0
 0000005,0.00002142,-0.00036463,-0.00000001,0.00015248,0.61483674,-0.00
 000350,0.00266541,0.00000116,0.00001042,-0.00559771,0.00000193,-0.0000
 0405,-0.00099758,0.00000279,0.00000063,0.00029681,-0.00000238,0.000000
 21,0.00029620,0.00000167,-0.00000171,0.00161593,0.00000073,0.00000007,
 -0.00064329,-0.00000033,0.00000048,-0.05875417,-0.00008903,0.00000003,
 -0.00015824,-0.00000109,-0.00000037,-0.00003176,0.00000009,-0.00000004
 ,-0.00031194,0.00000003,-0.00000033,-0.00026171,0.00000034,0.00001217,
 0.56258479,-0.00091499,-0.00000244,0.00481753,0.02194823,-0.00000782,-
 0.03010128,-0.00639255,0.00000093,0.00624838,-0.00027815,-0.00000059,-
 0.00245708,-0.00173762,-0.00000025,0.00139542,0.00003618,0.00000029,-0
 .00129008,0.00000768,-0.00000020,-0.00019649,0.00952876,-0.00007014,-0
 .21593156,-0.00090635,0.00000054,-0.00111480,-0.00066927,-0.00000003,0
 .00017509,-0.00009122,0.00000010,-0.00006707,-0.00005514,0.00000029,0.
 00030185,0.00017003,-0.00006416,0.44378005,-0.00021355,0.00025070,0.00
 044403,0.00114096,-0.00144317,0.00029686,0.00031954,-0.00022671,-0.000
 77370,-0.00043793,0.00044718,0.00061145,-0.00012036,0.00006008,-0.0006
 7458,0.00062751,0.00005507,0.00005912,-0.00001773,-0.00000732,-0.00001
 074,0.00346939,-0.00381656,-0.00107564,-0.00096204,-0.00107609,0.00067
 591,0.00003791,-0.00004125,0.00000879,0.00000120,-0.00008813,-0.000015
 82,0.00001821,-0.00001753,-0.00002503,-0.09984275,0.09190694,-0.037614
 34,0.10080968,-0.00043680,-0.00022250,0.00032244,0.00193041,0.00066448
 ,-0.00090815,0.00041660,0.00001868,0.00111415,-0.00021227,-0.00004011,
 -0.00046748,-0.00010204,-0.00005579,0.00003611,0.00012998,-0.00001011,
 -0.00014674,-0.00000020,-0.00000502,-0.00009301,-0.00365021,0.00732856
 ,0.00536597,-0.00045053,-0.00012836,-0.00063084,-0.00004001,0.00000635
 ,0.00003041,-0.00000035,0.00002304,-0.00006303,-0.00002056,0.00000930,
 0.00001239,0.09046011,-0.22492694,0.07127292,-0.09981839,0.23669310,0.
 00100906,-0.00059564,-0.00159390,-0.00713504,0.00121875,0.00376415,0.0
 0076386,-0.00021183,0.00071092,0.00041478,-0.00029737,-0.00042517,0.00
 064785,0.00003046,0.00046309,-0.00089347,-0.00033227,0.00019456,0.0000
 2182,0.00021776,0.00019550,-0.01134520,0.02857298,-0.03439952,0.000641
 59,0.00065394,0.00012890,0.00006693,0.00001605,-0.00001697,0.00003064,
 0.00007839,0.00002261,0.00002398,0.00006239,-0.00005118,-0.03438023,0.
 06709579,-0.07643789,0.04340963,-0.08269401,0.09668353,-0.00006355,0.0
 0000020,-0.00003938,0.00224736,0.00000107,-0.00099868,-0.00030573,0.00
 000011,-0.00043641,0.00023691,0.00000029,0.00011546,-0.00005170,0.,0.0
 0015657,-0.00009695,-0.00000002,0.00006906,0.00000282,0.,0.00002094,0.
 00109776,-0.00000061,0.00394548,0.00014208,-0.00000027,0.00047488,-0.0
 0001425,0.,-0.00001667,-0.00001282,-0.00000004,0.00004095,-0.00001326,
 -0.00000002,0.00002181,-0.31219431,0.00005932,0.05451561,-0.01126577,-
 0.00067949,0.00148311,0.33156128,0.00000099,0.00023427,-0.00000070,-0.
 00000225,0.00062269,-0.00000113,-0.00000084,0.00029833,0.00000013,0.00
 000043,0.00022671,-0.00000024,0.00000019,-0.00006378,0.00000042,-0.000
 00063,-0.00000551,-0.00000018,-0.00000003,0.00001844,0.,0.00001950,0.0
 0034410,-0.00001230,-0.00000025,-0.00047225,0.00000054,0.00000003,0.00
 003431,-0.00000003,0.00000001,-0.00002844,0.00000002,0.00000006,-0.000
 04351,-0.00000003,0.00005361,-0.05075571,-0.00000951,0.02629114,0.0014
 3899,-0.00550650,-0.00006579,0.04669726,0.00187935,-0.00000006,-0.0005
 1033,-0.00251744,-0.00000634,-0.00485879,-0.00092382,0.00000024,-0.000
 82633,0.00038800,0.00000013,0.00029800,0.00005315,-0.00000007,0.000144
 86,-0.00044826,0.00000034,-0.00042914,-0.00005703,-0.00000019,-0.00002
 468,0.04203337,-0.00001146,-0.02406805,0.00001235,0.00000020,0.0007903
 5,0.00006510,0.00000002,-0.00003690,0.00001685,0.,0.00004532,0.0001433
 2,0.00000004,-0.00008511,0.04130848,-0.00000871,-0.05281909,-0.0105713
 4,-0.00148551,0.00403158,-0.06083675,0.00001972,0.07432404,-0.00021342
 ,-0.00025017,0.00044465,0.00114256,0.00144593,0.00029563,0.00031922,0.
 00022608,-0.00077375,-0.00043845,-0.00044706,0.00061220,-0.00012056,-0
 .00006015,-0.00067515,0.00062813,-0.00005514,0.00005905,-0.00001776,0.
 00000739,-0.00001075,0.00346689,0.00381187,-0.00107831,-0.00096112,0.0
 0107689,0.00067588,0.00003793,0.00004123,0.00000879,0.00000119,0.00008
 812,-0.00001584,0.00001825,0.00001744,-0.00002507,-0.09989014,-0.09198
 027,-0.03754687,0.00643572,0.01247376,0.00524071,-0.01126989,-0.026296
 17,-0.01054532,0.10086146,0.00043810,-0.00022202,-0.00032427,-0.001937
 17,0.00066477,0.00091128,-0.00041550,0.00001901,-0.00111273,0.00021249
 ,-0.00003937,0.00046682,0.00010295,-0.00005584,-0.00003567,-0.00013100
 ,-0.00000985,0.00014708,0.00000023,-0.00000516,0.00009319,0.00363783,0
 .00729055,-0.00540460,0.00045117,-0.00012958,0.00063113,0.00004005,0.0
 0000637,-0.00003041,0.00000036,0.00002290,0.00006304,0.00002058,0.0000
 0923,-0.00001244,-0.09052962,-0.22502010,-0.07111994,-0.01247597,-0.02
 079367,-0.00830887,0.00068525,0.00145411,0.00149165,0.09990025,0.23680
 864,0.00100760,0.00059579,-0.00159413,-0.00713333,-0.00121872,0.003767
 50,0.00076370,0.00021249,0.00071210,0.00041510,0.00029755,-0.00042648,
 0.00064810,-0.00003020,0.00046381,-0.00089415,0.00033185,0.00019469,0.
 00002185,-0.00021766,0.00019530,-0.01135675,-0.02861048,-0.03436682,0.
 00064061,-0.00065382,0.00012830,0.00006684,-0.00001610,-0.00001694,0.0
 0003063,-0.00007839,0.00002257,0.00002386,-0.00006239,-0.00005108,-0.0
 3430766,-0.06693883,-0.07630298,0.00525541,0.00833439,0.00672979,0.001
 48402,0.00550979,0.00402428,0.04333417,0.08254475,0.09652007\\-0.00004
 649,0.00000049,0.00002751,0.00004710,0.00000121,-0.00006728,-0.0000073
 6,-0.00000077,0.00003878,0.00003195,0.00000101,-0.00002111,0.00002652,
 -0.00000072,0.00000123,-0.00002871,0.00000110,0.00000239,0.00000309,0.
 00000060,-0.00000284,-0.00000907,-0.00000556,0.00002799,0.00001055,0.0
 0000005,-0.00002411,-0.00000585,-0.00000011,-0.00001513,-0.00001691,-0
 .00000005,-0.00000368,-0.00001043,-0.00000032,0.00000884,-0.00001505,0
 .00000379,0.00001093,0.00000392,0.00000146,0.00000574,0.00001115,0.000
 00036,0.00000498,0.00000559,-0.00000255,0.00000576\\\@


 YOU CAN WIPE THE SLATE CLEAN, BUT YOU'LL STILL
 HAVE TO EAT A LITTLE CHALK DUST.
 Job cpu time:  0 days  4 hours 35 minutes 41.4 seconds.
 File lengths (MBytes):  RWF=    102 Int=      0 D2E=      0 Chk=     13 Scr=      1
 Normal termination of Gaussian 03 at Tue Aug 29 08:00:30 2006.
