<?xml version="1.0" encoding="UTF-8"?>
<module cmlx:templateRef="gaussian.log" xmlns="http://www.xml-cml.org/schema" xmlns:cmlx="http://www.xml-cml.org/schema/cmlx"> Entering Gaussian System, Link 0=/usr/local/Gaussian/g03/g03 Initial command: /usr/local/Gaussian/g03/l1.exe /export/scratch//webmo/3302/Gau-20755.inp -scrdir=/export/scratch//webmo/3302/ Entering Link 1 = /usr/local/Gaussian/g03/l1.exe PID=     20760.  <module cmlx:lineCount="60" cmlx:templateRef="l1.legal"><scalar dataType="xsd:string" dictRef="g:l1.legal">Copyright (c) 1988,1990,1992,1993,1995,1998,2003, Gaussian, Inc.</scalar></module>  <module cmlx:lineCount="20" cmlx:templateRef="l1.citation"><list cmlx:templateRef="citation"><scalar dataType="xsd:string" dictRef="g:l1.citation">Cite this work as:</scalar></list></module> <module cmlx:lineCount="25" cmlx:templateRef="l1.end"><scalar dataType="xsd:string" dictRef="cc:run.date">28-Aug-2006</scalar><scalar dataType="xsd:string" dictRef="cc:program">Gaussian 03</scalar><scalar dataType="xsd:string" dictRef="cc:version">Sun64-SVR4-Unix-G03RevB.04</scalar><scalar dataType="xsd:string" dictRef="cc:program.date">2-Jun-2003</scalar><list cmlx:templateRef="control"><scalar dataType="xsd:string" dictRef="g:control">1/14=-1,18=20,26=3,38=1/1,3</scalar><scalar dataType="xsd:string" dictRef="g:control">2/9=110,17=6,18=5,40=1/2</scalar><scalar dataType="xsd:string" dictRef="g:control">3/5=4,6=6,7=111,11=2,16=1,25=1,30=1,74=-5/1,2,3</scalar><scalar dataType="xsd:string" dictRef="g:control">4//1</scalar><scalar dataType="xsd:string" dictRef="g:control">5/5=2,38=5/2</scalar><scalar dataType="xsd:string" dictRef="g:control">6/7=2,8=2,9=2,10=2,28=1/1</scalar><scalar dataType="xsd:string" dictRef="g:control">7//1,2,3,16</scalar><scalar dataType="xsd:string" dictRef="g:control">1/14=-1,18=20/3(1)</scalar><scalar dataType="xsd:string" dictRef="g:control">99//99</scalar><scalar dataType="xsd:string" dictRef="g:control">2/9=110/2</scalar><scalar dataType="xsd:string" dictRef="g:control">3/5=4,6=6,7=111,11=2,16=1,25=1,30=1,74=-5/1,2,3</scalar><scalar dataType="xsd:string" dictRef="g:control">4/5=5,16=3/1</scalar><scalar dataType="xsd:string" dictRef="g:control">5/5=2,38=5/2</scalar><scalar dataType="xsd:string" dictRef="g:control">7//1,2,3,16</scalar><scalar dataType="xsd:string" dictRef="g:control">1/14=-1,18=20/3(-5)</scalar><scalar dataType="xsd:string" dictRef="g:control">2/9=110/2</scalar><scalar dataType="xsd:string" dictRef="g:control">6/7=2,8=2,9=2,10=2,19=2,28=1/1</scalar><scalar dataType="xsd:string" dictRef="g:control">99/9=1/99</scalar></list></module><module cmlx:lineCount="3" cmlx:templateRef="l101.title"><scalar dataType="xsd:string" dictRef="cc:title" cmlx:templateRef="title">OMe basis2</scalar></module><module cmlx:lineCount="62" cmlx:templateRef="l101"><list cmlx:templateRef="rest"><scalar dataType="xsd:string" dictRef="x:l101"/></list></module>                    Isotopes and Nuclear Properties:<module cmlx:lineCount="8" cmlx:templateRef="l101.isotope">  Atom         1           2           3           4           5           6           7           8           9          10 IAtWgt=          12          12          12          12          12          12           1          16           1           1 AtmWgt=  12.0000000  12.0000000  12.0000000  12.0000000  12.0000000  12.0000000   1.0078250  15.9949146   1.0078250   1.0078250 IAtSpn=           0           0           0           0           0           0           1           0           1           1 AtZEff=   0.0000000   0.0000000   0.0000000   0.0000000   0.0000000   0.0000000   0.0000000   0.0000000   0.0000000   0.0000000 AtQMom=   0.0000000   0.0000000   0.0000000   0.0000000   0.0000000   0.0000000   0.0000000   0.0000000   0.0000000   0.0000000 AtGFac=   0.0000000   0.0000000   0.0000000   0.0000000   0.0000000   0.0000000   2.7928460   0.0000000   2.7928460   2.7928460</module><module cmlx:lineCount="8" cmlx:templateRef="l101.isotope">  Atom        11          12          13          14          15          16 IAtWgt=           1           1          12           1           1           1 AtmWgt=   1.0078250   1.0078250  12.0000000   1.0078250   1.0078250   1.0078250 IAtSpn=           1           1           0           1           1           1 AtZEff=   0.0000000   0.0000000   0.0000000   0.0000000   0.0000000   0.0000000 AtQMom=   0.0000000   0.0000000   0.0000000   0.0000000   0.0000000   0.0000000 AtGFac=   2.7928460   2.7928460   0.0000000   2.7928460   2.7928460   2.7928460</module><module cmlx:lineCount="83" cmlx:templateRef="l103"><list cmlx:templateRef="berny"><scalar dataType="xsd:string" dictRef="g:optimization">Initialization pass.</scalar></list><module cmlx:lineCount="76" cmlx:templateRef="l103.init"><list cmlx:templateRef="length"><array dataType="xsd:string" size="16" dictRef="g:symbol">R1 R2 R3 R4 R5 R6 R7 R8 R9 R10 R11 R12 R13 R14 R15 R16</array><array dataType="xsd:integer" size="16" dictRef="g:atom1">1 1 1 2 2 3 3 4 4 5 5 6 8 13 13 13</array><array dataType="xsd:integer" size="16" dictRef="g:atom2">2 6 7 3 8 4 9 5 10 6 11 12 13 14 15 16</array><array dataType="xsd:double" size="16" dictRef="cc:distance">1.3991 1.3846 1.0832 1.3952 1.3616 1.3945 1.0815 1.387 1.0844 1.3949 1.0833 1.0842 1.4159 1.0963 1.0892 1.0963</array><array delimiter="|" dataType="xsd:string" size="16" dictRef="g:deriv">|estimate D2E/DX2|estimate D2E/DX2|estimate D2E/DX2|estimate D2E/DX2|estimate D2E/DX2|estimate D2E/DX2|estimate D2E/DX2|estimate D2E/DX2|estimate D2E/DX2|estimate D2E/DX2|estimate D2E/DX2|estimate D2E/DX2|estimate D2E/DX2|estimate D2E/DX2|estimate D2E/DX2|estimate D2E/DX2|</array></list><list cmlx:templateRef="angle"><array dataType="xsd:string" size="25" dictRef="g:symbol">A1 A2 A3 A4 A5 A6 A7 A8 A9 A10 A11 A12 A13 A14 A15 A16 A17 A18 A19 A20 A21 A22 A23 A24 A25</array><array dataType="xsd:integer" size="25" dictRef="g:atom1">2 2 6 1 1 3 2 2 4 3 3 5 4 4 6 1 1 5 2 8 8 8 14 14 15</array><array dataType="xsd:integer" size="25" dictRef="g:atom2">1 1 1 2 2 2 3 3 3 4 4 4 5 5 5 6 6 6 8 13 13 13 13 13 13</array><array dataType="xsd:integer" size="25" dictRef="g:atom3">6 7 7 3 8 8 4 9 9 5 10 10 6 11 11 5 12 12 13 14 15 16 15 16 16</array><array dataType="xsd:double" size="25" dictRef="cc:angle">120.1122 118.2881 121.5997 119.6718 115.6932 124.6349 119.5173 121.0439 119.4388 120.9752 118.987 120.0379 119.1604 120.4553 120.3843 120.5631 119.3937 120.0432 118.5773 111.6979 106.0473 111.698 109.103 109.1021 109.1008</array><array delimiter="|" dataType="xsd:string" size="25" dictRef="g:deriv">|estimate D2E/DX2|estimate D2E/DX2|estimate D2E/DX2|estimate D2E/DX2|estimate D2E/DX2|estimate D2E/DX2|estimate D2E/DX2|estimate D2E/DX2|estimate D2E/DX2|estimate D2E/DX2|estimate D2E/DX2|estimate D2E/DX2|estimate D2E/DX2|estimate D2E/DX2|estimate D2E/DX2|estimate D2E/DX2|estimate D2E/DX2|estimate D2E/DX2|estimate D2E/DX2|estimate D2E/DX2|estimate D2E/DX2|estimate D2E/DX2|estimate D2E/DX2|estimate D2E/DX2|estimate D2E/DX2|</array></list><list cmlx:templateRef="dihed"><array dataType="xsd:string" size="28" dictRef="g:symbol">D1 D2 D3 D4 D5 D6 D7 D8 D9 D10 D11 D12 D13 D14 D15 D16 D17 D18 D19 D20 D21 D22 D23 D24 D25 D26 D27 D28</array><array dataType="xsd:integer" size="28" dictRef="g:atom1">6 6 7 7 2 2 7 7 1 1 8 8 1 3 2 2 9 9 3 3 10 10 4 4 11 11 2 2</array><array dataType="xsd:integer" size="28" dictRef="g:atom2">1 1 1 1 1 1 1 1 2 2 2 2 2 2 3 3 3 3 4 4 4 4 5 5 5 5 8 8</array><array dataType="xsd:integer" size="28" dictRef="g:atom3">2 2 2 2 6 6 6 6 3 3 3 3 8 8 4 4 4 4 5 5 5 5 6 6 6 6 13 13</array><array dataType="xsd:integer" size="28" dictRef="g:atom4">3 8 3 8 5 12 5 12 4 9 4 9 13 13 5 10 5 10 6 11 6 11 1 12 1 12 14 15</array><array dataType="xsd:double" size="28" dictRef="cc:dihed">0.0028 -179.978 179.9464 -0.0343 -0.0122 -179.9976 -179.9539 0.0606 -0.0027 -179.983 179.9762 -0.0041 -179.9497 0.0707 0.0121 179.9914 179.9928 -0.0279 -0.0212 179.978 179.9996 -0.0012 0.0212 -179.9934 -179.9779 0.0074 -61.3101 179.9418</array><array delimiter="|" dataType="xsd:string" size="28" dictRef="g:deriv">|estimate D2E/DX2|estimate D2E/DX2|estimate D2E/DX2|estimate D2E/DX2|estimate D2E/DX2|estimate D2E/DX2|estimate D2E/DX2|estimate D2E/DX2|estimate D2E/DX2|estimate D2E/DX2|estimate D2E/DX2|estimate D2E/DX2|estimate D2E/DX2|estimate D2E/DX2|estimate D2E/DX2|estimate D2E/DX2|estimate D2E/DX2|estimate D2E/DX2|estimate D2E/DX2|estimate D2E/DX2|estimate D2E/DX2|estimate D2E/DX2|estimate D2E/DX2|estimate D2E/DX2|estimate D2E/DX2|estimate D2E/DX2|estimate D2E/DX2|estimate D2E/DX2|</array></list> ! D29   D(2,8,13,16)           61.1965         estimate D2E/DX2                !</module> --------------------------------------------------------------------------------<module cmlx:lineCount="2" cmlx:templateRef="l103.trust"><scalar dataType="xsd:double" dictRef="g:trustrad">0.3</scalar><scalar dataType="xsd:double" dictRef="g:fncerr">1.0E-7</scalar><scalar dataType="xsd:double" dictRef="g:grderr">1.0E-6</scalar><scalar dataType="xsd:integer" dictRef="g:nstep">80</scalar><scalar dataType="xsd:integer" dictRef="g:allowedstep">100</scalar></module> GradGradGradGradGradGradGradGradGradGradGradGradGradGradGradGradGradGrad</module><module cmlx:lineCount="22" cmlx:templateRef="l202.orient"><molecule id="mol.l202.orient" cmlx:templateRef="atom"><atomArray><atom id="a1" elementType="C" x3="0.0" y3="0.0" z3="0.0"><scalar dataType="xsd:integer" dictRef="cc:serial">1</scalar><scalar dataType="xsd:integer" dictRef="g:atomicType">0</scalar><scalar dataType="xsd:integer" dictRef="compchem:atomicNumber">6</scalar></atom><atom id="a2" elementType="C" x3="0.0" y3="0.0" z3="1.399091"><scalar dataType="xsd:integer" dictRef="cc:serial">2</scalar><scalar dataType="xsd:integer" dictRef="g:atomicType">0</scalar><scalar dataType="xsd:integer" dictRef="compchem:atomicNumber">6</scalar></atom><atom id="a3" elementType="C" x3="1.212259" y3="0.0" z3="2.089762"><scalar dataType="xsd:integer" dictRef="cc:serial">3</scalar><scalar dataType="xsd:integer" dictRef="g:atomicType">0</scalar><scalar dataType="xsd:integer" dictRef="compchem:atomicNumber">6</scalar></atom><atom id="a4" elementType="C" x3="2.409933" y3="-5.6E-5" z3="1.375496"><scalar dataType="xsd:integer" dictRef="cc:serial">4</scalar><scalar dataType="xsd:integer" dictRef="g:atomicType">0</scalar><scalar dataType="xsd:integer" dictRef="compchem:atomicNumber">6</scalar></atom><atom id="a5" elementType="C" x3="2.413909" y3="1.38E-4" z3="-0.011506"><scalar dataType="xsd:integer" dictRef="cc:serial">5</scalar><scalar dataType="xsd:integer" dictRef="g:atomicType">0</scalar><scalar dataType="xsd:integer" dictRef="compchem:atomicNumber">6</scalar></atom><atom id="a6" elementType="C" x3="1.197767" y3="-5.8E-5" z3="-0.694662"><scalar dataType="xsd:integer" dictRef="cc:serial">6</scalar><scalar dataType="xsd:integer" dictRef="g:atomicType">0</scalar><scalar dataType="xsd:integer" dictRef="compchem:atomicNumber">6</scalar></atom><atom id="a7" elementType="H" x3="-0.953803" y3="-8.91E-4" z3="-0.513315"><scalar dataType="xsd:integer" dictRef="cc:serial">7</scalar><scalar dataType="xsd:integer" dictRef="g:atomicType">0</scalar><scalar dataType="xsd:integer" dictRef="compchem:atomicNumber">1</scalar></atom><atom id="a8" elementType="O" x3="-1.226938" y3="-4.13E-4" z3="1.989397"><scalar dataType="xsd:integer" dictRef="cc:serial">8</scalar><scalar dataType="xsd:integer" dictRef="g:atomicType">0</scalar><scalar dataType="xsd:integer" dictRef="compchem:atomicNumber">8</scalar></atom><atom id="a9" elementType="H" x3="1.238155" y3="-2.74E-4" z3="3.170946"><scalar dataType="xsd:integer" dictRef="cc:serial">9</scalar><scalar dataType="xsd:integer" dictRef="g:atomicType">0</scalar><scalar dataType="xsd:integer" dictRef="compchem:atomicNumber">1</scalar></atom><atom id="a10" elementType="H" x3="3.347124" y3="8.7E-5" z3="1.921"><scalar dataType="xsd:integer" dictRef="cc:serial">10</scalar><scalar dataType="xsd:integer" dictRef="g:atomicType">0</scalar><scalar dataType="xsd:integer" dictRef="compchem:atomicNumber">1</scalar></atom><atom id="a11" elementType="H" x3="3.349341" y3="4.52E-4" z3="-0.557932"><scalar dataType="xsd:integer" dictRef="cc:serial">11</scalar><scalar dataType="xsd:integer" dictRef="g:atomicType">0</scalar><scalar dataType="xsd:integer" dictRef="compchem:atomicNumber">1</scalar></atom><atom id="a12" elementType="H" x3="1.18417" y3="-1.7E-5" z3="-1.77882"><scalar dataType="xsd:integer" dictRef="cc:serial">12</scalar><scalar dataType="xsd:integer" dictRef="g:atomicType">0</scalar><scalar dataType="xsd:integer" dictRef="compchem:atomicNumber">1</scalar></atom><atom id="a13" elementType="C" x3="-1.298181" y3="6.55E-4" z3="3.403513"><scalar dataType="xsd:integer" dictRef="cc:serial">13</scalar><scalar dataType="xsd:integer" dictRef="g:atomicType">0</scalar><scalar dataType="xsd:integer" dictRef="compchem:atomicNumber">6</scalar></atom><atom id="a14" elementType="H" x3="-0.829527" y3="-0.892272" z3="3.833645"><scalar dataType="xsd:integer" dictRef="cc:serial">14</scalar><scalar dataType="xsd:integer" dictRef="g:atomicType">0</scalar><scalar dataType="xsd:integer" dictRef="compchem:atomicNumber">1</scalar></atom><atom id="a15" elementType="H" x3="-2.358769" y3="0.001153" z3="3.651552"><scalar dataType="xsd:integer" dictRef="cc:serial">15</scalar><scalar dataType="xsd:integer" dictRef="g:atomicType">0</scalar><scalar dataType="xsd:integer" dictRef="compchem:atomicNumber">1</scalar></atom><atom id="a16" elementType="H" x3="-0.829046" y3="0.893949" z3="3.832315"><scalar dataType="xsd:integer" dictRef="cc:serial">16</scalar><scalar dataType="xsd:integer" dictRef="g:atomicType">0</scalar><scalar dataType="xsd:integer" dictRef="compchem:atomicNumber">1</scalar></atom></atomArray><formula formalCharge="0" concise="C 7 H 8 O 1"><atomArray elementType="C H O" count="7.0 8.0 1.0"/></formula><bondArray><bond atomRefs2="a1 a2" id="a1_a2" order="2"/><bond atomRefs2="a1 a6" id="a1_a6" order="S"/><bond atomRefs2="a1 a7" id="a1_a7" order="S"/><bond atomRefs2="a2 a3" id="a2_a3" order="S"/><bond atomRefs2="a2 a8" id="a2_a8" order="S"/><bond atomRefs2="a3 a4" id="a3_a4" order="2"/><bond atomRefs2="a3 a9" id="a3_a9" order="S"/><bond atomRefs2="a4 a5" id="a4_a5" order="S"/><bond atomRefs2="a4 a10" id="a4_a10" order="S"/><bond atomRefs2="a5 a6" id="a5_a6" order="2"/><bond atomRefs2="a5 a11" id="a5_a11" order="S"/><bond atomRefs2="a6 a12" id="a6_a12" order="S"/><bond atomRefs2="a8 a13" id="a8_a13" order="S"/><bond atomRefs2="a13 a14" id="a13_a14" order="S"/><bond atomRefs2="a13 a15" id="a13_a15" order="S"/><bond atomRefs2="a13 a16" id="a13_a16" order="S"/></bondArray><property dictRef="cml:molmass"><scalar dataType="xsd:double" units="unit:dalton" xmlns:unit="http://www.xml-cml.org/unit/si/">108.13781999999999</scalar></property></molecule></module><module cmlx:lineCount="39" cmlx:templateRef="l202.distmat"><array dataType="xsd:double" size="135" dictRef="cc:distance">0.0 1.399091 0.0 2.415921 1.395205 0.0 2.774845 2.410048 1.394489 0.0 2.413937 2.795844 2.420597 1.387007 0.0 1.38463 2.412146 2.784462 2.398937 1.394885 0.0 1.083159 2.137062 3.386419 3.857762 3.404894 2.1592 0.0 2.337323 1.361558 2.441261 3.68832 4.154442 3.617094 2.517572 0.0 3.404104 2.161596 1.081494 2.143993 3.392698 3.865819 4.28701 2.733632 0.0 3.859207 3.387569 2.141525 1.08439 2.146036 3.385473 4.942051 4.574573 2.451553 0.0 3.395493 3.879178 3.402559 2.149566 1.083335 2.155914 4.303376 5.237482 4.285049 2.478934 0.0 2.136927 3.391367 3.868683 3.38411 2.153058 1.084243 2.484438 4.473578 4.95006 4.285678 2.485666 0.0 3.642688 2.388092 2.833417 4.22646 5.044004 4.798416 3.931938 1.41591 2.546976 4.876136 6.10676 5.746185 0.0 4.022574 2.722374 2.829517 4.163249 5.108959 5.040985 4.439151 2.086768 2.347368 4.679628 6.127467 6.029167 1.096343 0.0 4.34714 3.261499 3.897619 5.284028 6.016349 5.615917 4.395458 2.010921 3.628891 5.962552 7.09241 6.483931 1.089206 1.780435 0.0 4.02158 2.721588 2.82888 4.162474 5.107898 5.039915 4.438559 2.086756 2.347416 4.678943 6.126298 6.028022 1.096327 1.786222 1.780397</array></module><module cmlx:lineCount="6" cmlx:templateRef="l202.stoich"><scalar dataType="xsd:string" dictRef="cc:formula" cmlx:templateRef="stoich">C7H8O</scalar><scalar dataType="xsd:string" dictRef="cc:frameworkgroup" cmlx:templateRef="framework">C1[X(C7H8O)]</scalar><scalar dataType="xsd:integer" dictRef="cc:degfreedom" cmlx:templateRef="degfreedom">42</scalar><scalar dataType="xsd:string" dictRef="cc:pointgroup">C1</scalar><scalar dataType="xsd:integer" dictRef="cc:operatorcount">1</scalar><scalar dataType="xsd:string" dictRef="cc:largestabelian">C1</scalar><scalar dataType="xsd:integer" dictRef="cc:operatorcount">1</scalar><scalar dataType="xsd:string" dictRef="cc:largestconciseabelian">C1</scalar><scalar dataType="xsd:integer" dictRef="cc:operatorcount">1</scalar></module><module cmlx:lineCount="22" cmlx:templateRef="l202.orient"><molecule id="a16" cmlx:templateRef="atom"><atomArray><atom id="a1" elementType="C" x3="-0.495471" y3="-1.298572" z3="1.23E-4"><scalar dataType="xsd:integer" dictRef="cc:serial">1</scalar><scalar dataType="xsd:integer" dictRef="g:atomicType">0</scalar><scalar dataType="xsd:integer" dictRef="compchem:atomicNumber">6</scalar></atom><atom id="a2" elementType="C" x3="0.45318" y3="-0.270216" z3="-4.6E-5"><scalar dataType="xsd:integer" dictRef="cc:serial">2</scalar><scalar dataType="xsd:integer" dictRef="g:atomicType">0</scalar><scalar dataType="xsd:integer" dictRef="compchem:atomicNumber">6</scalar></atom><atom id="a3" elementType="C" x3="0.030457" y3="1.059409" z3="-1.72E-4"><scalar dataType="xsd:integer" dictRef="cc:serial">3</scalar><scalar dataType="xsd:integer" dictRef="g:atomicType">0</scalar><scalar dataType="xsd:integer" dictRef="compchem:atomicNumber">6</scalar></atom><atom id="a4" elementType="C" x3="-1.334161" y3="1.346492" z3="-1.84E-4"><scalar dataType="xsd:integer" dictRef="cc:serial">4</scalar><scalar dataType="xsd:integer" dictRef="g:atomicType">0</scalar><scalar dataType="xsd:integer" dictRef="compchem:atomicNumber">6</scalar></atom><atom id="a5" elementType="C" x3="-2.277538" y3="0.329718" z3="1.78E-4"><scalar dataType="xsd:integer" dictRef="cc:serial">5</scalar><scalar dataType="xsd:integer" dictRef="g:atomicType">0</scalar><scalar dataType="xsd:integer" dictRef="compchem:atomicNumber">6</scalar></atom><atom id="a6" elementType="C" x3="-1.846865" y3="-0.997017" z3="1.07E-4"><scalar dataType="xsd:integer" dictRef="cc:serial">6</scalar><scalar dataType="xsd:integer" dictRef="g:atomicType">0</scalar><scalar dataType="xsd:integer" dictRef="compchem:atomicNumber">6</scalar></atom><atom id="a7" elementType="H" x3="-0.142461" y3="-2.322592" z3="-6.73E-4"><scalar dataType="xsd:integer" dictRef="cc:serial">7</scalar><scalar dataType="xsd:integer" dictRef="g:atomicType">0</scalar><scalar dataType="xsd:integer" dictRef="compchem:atomicNumber">1</scalar></atom><atom id="a8" elementType="O" x3="1.755257" y3="-0.668254" z3="-4.87E-4"><scalar dataType="xsd:integer" dictRef="cc:serial">8</scalar><scalar dataType="xsd:integer" dictRef="g:atomicType">0</scalar><scalar dataType="xsd:integer" dictRef="compchem:atomicNumber">8</scalar></atom><atom id="a9" elementType="H" x3="0.744518" y3="1.871657" z3="-5.78E-4"><scalar dataType="xsd:integer" dictRef="cc:serial">9</scalar><scalar dataType="xsd:integer" dictRef="g:atomicType">0</scalar><scalar dataType="xsd:integer" dictRef="compchem:atomicNumber">1</scalar></atom><atom id="a10" elementType="H" x3="-1.653134" y3="2.382908" z3="-1.4E-4"><scalar dataType="xsd:integer" dictRef="cc:serial">10</scalar><scalar dataType="xsd:integer" dictRef="g:atomicType">0</scalar><scalar dataType="xsd:integer" dictRef="compchem:atomicNumber">1</scalar></atom><atom id="a11" elementType="H" x3="-3.3356" y3="0.562353" z3="5.25E-4"><scalar dataType="xsd:integer" dictRef="cc:serial">11</scalar><scalar dataType="xsd:integer" dictRef="g:atomicType">0</scalar><scalar dataType="xsd:integer" dictRef="compchem:atomicNumber">1</scalar></atom><atom id="a12" elementType="H" x3="-2.571982" y3="-1.803111" z3="2.79E-4"><scalar dataType="xsd:integer" dictRef="cc:serial">12</scalar><scalar dataType="xsd:integer" dictRef="g:atomicType">0</scalar><scalar dataType="xsd:integer" dictRef="compchem:atomicNumber">1</scalar></atom><atom id="a13" elementType="C" x3="2.766461" y3="0.32284" z3="4.12E-4"><scalar dataType="xsd:integer" dictRef="cc:serial">13</scalar><scalar dataType="xsd:integer" dictRef="g:atomicType">0</scalar><scalar dataType="xsd:integer" dictRef="compchem:atomicNumber">6</scalar></atom><atom id="a14" elementType="H" x3="2.713592" y3="0.956664" z3="-0.892583"><scalar dataType="xsd:integer" dictRef="cc:serial">14</scalar><scalar dataType="xsd:integer" dictRef="g:atomicType">0</scalar><scalar dataType="xsd:integer" dictRef="compchem:atomicNumber">1</scalar></atom><atom id="a15" elementType="H" x3="3.714194" y3="-0.213977" z3="9.18E-4"><scalar dataType="xsd:integer" dictRef="cc:serial">15</scalar><scalar dataType="xsd:integer" dictRef="g:atomicType">0</scalar><scalar dataType="xsd:integer" dictRef="compchem:atomicNumber">1</scalar></atom><atom id="a16" elementType="H" x3="2.712437" y3="0.956214" z3="0.893638"><scalar dataType="xsd:integer" dictRef="cc:serial">16</scalar><scalar dataType="xsd:integer" dictRef="g:atomicType">0</scalar><scalar dataType="xsd:integer" dictRef="compchem:atomicNumber">1</scalar></atom></atomArray><formula formalCharge="0" concise="C 7 H 8 O 1"><atomArray elementType="C H O" count="7.0 8.0 1.0"/></formula><bondArray><bond atomRefs2="a1 a2" id="a1_a2" order="2"/><bond atomRefs2="a1 a6" id="a1_a6" order="S"/><bond atomRefs2="a1 a7" id="a1_a7" order="S"/><bond atomRefs2="a2 a3" id="a2_a3" order="S"/><bond atomRefs2="a2 a8" id="a2_a8" order="S"/><bond atomRefs2="a3 a4" id="a3_a4" order="2"/><bond atomRefs2="a3 a9" id="a3_a9" order="S"/><bond atomRefs2="a4 a5" id="a4_a5" order="S"/><bond atomRefs2="a4 a10" id="a4_a10" order="S"/><bond atomRefs2="a5 a6" id="a5_a6" order="2"/><bond atomRefs2="a5 a11" id="a5_a11" order="S"/><bond atomRefs2="a6 a12" id="a6_a12" order="S"/><bond atomRefs2="a8 a13" id="a8_a13" order="S"/><bond atomRefs2="a13 a14" id="a13_a14" order="S"/><bond atomRefs2="a13 a15" id="a13_a15" order="S"/><bond atomRefs2="a13 a16" id="a13_a16" order="S"/></bondArray><property dictRef="cml:molmass"><scalar dataType="xsd:double" units="unit:dalton" xmlns:unit="http://www.xml-cml.org/unit/si/">108.13781999999999</scalar></property></molecule></module><module cmlx:lineCount="1" cmlx:templateRef="l202.rotconst"><array dataType="xsd:double" size="3" dictRef="cc:rotconst" cmlx:templateRef="rotconst">5.0748844 1.5660775 1.2059466</array></module><scalar dataType="xsd:integer" dictRef="g:buffer" cmlx:templateRef="buffer">131072</scalar><scalar dataType="xsd:string" dictRef="g:raffenetti" cmlx:templateRef="raff">Raffenetti</scalar><scalar dataType="xsd:string" dictRef="g:twoe" cmlx:templateRef="twoe">Two-electron</scalar><module cmlx:lineCount="12" cmlx:templateRef="l301.basis"><scalar dataType="xsd:string" dictRef="cc:basis">6-311+G(d,p)</scalar><scalar dataType="xsd:string" dictRef="cc:diffuse">(5D, 7F)</scalar><list cmlx:lineCount="1" cmlx:templateRef="symmadapt"><array dataType="xsd:integer" dictRef="cc:adapted" size="1">224</array><array dataType="xsd:string" dictRef="cc:symm" size="1">A</array></list><scalar dataType="xsd:integer" dictRef="cc:basiscount">224</scalar><scalar dataType="xsd:integer" dictRef="g:primbasis">352</scalar><scalar dataType="xsd:integer" dictRef="cc:cartesianbasis">232</scalar><scalar dataType="xsd:integer" dictRef="cc:alphae">29</scalar><scalar dataType="xsd:integer" dictRef="cc:betae">29</scalar> IExCor= 402 DFT=T Ex=B+HF Corr=LYP ExCW=0 ScaHFX=  0.200000 ScaDFX=  0.800000  0.720000  1.000000  0.810000 IRadAn=      0 IRanWt=     -1 IRanGd=            0 ICorTp=0 NAtoms=   16 NActive=   16 NUniq=   16 SFac= 1.00D+00 NAtFMM=   60 Big=F</module> NPDir=0 NMtPBC=     1 NCelOv=     1 NCel=       1 NClECP=     1 NCelD=      1         NCelK=      1 NCelE2=     1 NClLst=     1 CellRange=     0.0.<module cmlx:lineCount="1" cmlx:templateRef="l302.basis"><list cmlx:templateRef="onee"><scalar dataType="xsd:string" dictRef="g:onee">One-electron integrals</scalar></list></module> NBasis=   224 RedAO= T  NBF=   224 NBsUse=   224 1.00D-06 NBFU=   224 Precomputing XC quadrature grid using IXCGrd= 2 IRadAn=           0 IRanWt=          -1 IRanGd=           0. NRdTot=    1031 NPtTot=      131318 NUsed=      138600 NTot=      138632 NSgBfM=   232   232   232   232.<module cmlx:lineCount="1" cmlx:templateRef="l303.basis"><list cmlx:templateRef="l303"><scalar dataType="xsd:integer" dictRef="g:dipdrv">1</scalar></list></module> Harris functional with IExCor=  402 diagonalized for initial guess. ExpMin= 4.38D-02 ExpMax= 8.59D+03 ExpMxC= 1.30D+03 IAcc=2 IRadAn=         4 AccDes= 0.00D+00 HarFok:  IExCor= 402 AccDes= 0.00D+00 IRadAn=         4 IDoV=1 ScaDFX=  1.000000  1.000000  1.000000  1.000000 Harris En= -347.001986036967     Initial guess orbital symmetries:       Occupied  (A) (A) (A) (A) (A) (A) (A) (A) (A) (A) (A) (A)                 (A) (A) (A) (A) (A) (A) (A) (A) (A) (A) (A) (A)                 (A) (A) (A) (A) (A)       Virtual   (A) (A) (A) (A) (A) (A) (A) (A) (A) (A) (A) (A)                 (A) (A) (A) (A) (A) (A) (A) (A) (A) (A) (A) (A)                 (A) (A) (A) (A) (A) (A) (A) (A) (A) (A) (A) (A)                 (A) (A) (A) (A) (A) (A) (A) (A) (A) (A) (A) (A)                 (A) (A) (A) (A) (A) (A) (A) (A) (A) (A) (A) (A)                 (A) (A) (A) (A) (A) (A) (A) (A) (A) (A) (A) (A)                 (A) (A) (A) (A) (A) (A) (A) (A) (A) (A) (A) (A)                 (A) (A) (A) (A) (A) (A) (A) (A) (A) (A) (A) (A)                 (A) (A) (A) (A) (A) (A) (A) (A) (A) (A) (A) (A)                 (A) (A) (A) (A) (A) (A) (A) (A) (A) (A) (A) (A)                 (A) (A) (A) (A) (A) (A) (A) (A) (A) (A) (A) (A)                 (A) (A) (A) (A) (A) (A) (A) (A) (A) (A) (A) (A)                 (A) (A) (A) (A) (A) (A) (A) (A) (A) (A) (A) (A)                 (A) (A) (A) (A) (A) (A) (A) (A) (A) (A) (A) (A)                 (A) (A) (A) (A) (A) (A) (A) (A) (A) (A) (A) (A)                 (A) (A) (A) (A) (A) (A) (A) (A) (A) (A) (A) (A)                 (A) (A) (A) The electronic state of the initial guess is 1-A.<module cmlx:lineCount="207" cmlx:templateRef="l502"><list cmlx:templateRef="l502.type"><scalar dataType="xsd:string" dictRef="g:l502.type">Closed</scalar></list> Requested convergence on RMS density matrix=1.00D-08 within 128 cycles. Requested convergence on MAX density matrix=1.00D-06. Requested convergence on             energy=1.00D-06. No special actions if energy rises. Using DIIS extrapolation, IDIIS=  1040. Integral symmetry usage will be decided dynamically.       138599 words used for storage of precomputed grid. IEnd=    346863 IEndB=    346863 NGot=   6291456 MDV=   6015290 LenX=   6015290 Fock matrices will be formed incrementally for  20 cycles.<module cmlx:lineCount="190" cmlx:templateRef="l502.cycle"><list cmlx:templateRef="cycle"><list><scalar dataType="xsd:integer" dictRef="cc:cycle">1</scalar><scalar dataType="xsd:integer" dictRef="g:pass">1</scalar><scalar dataType="xsd:integer" dictRef="g:idiag">1</scalar></list></list><module cmlx:lineCount="1" cmlx:templateRef="l502.e"><list cmlx:templateRef="l502.e"><scalar dataType="xsd:double" dictRef="g:l502.e">-346.594072370186</scalar></list></module> Cycle   2  Pass 1  IDiag  1:<module cmlx:lineCount="1" cmlx:templateRef="l502.ediff"><list cmlx:templateRef="l502.ediff"><list><scalar dataType="xsd:double" dictRef="g:l502.e">-346.710642439551</scalar><scalar dataType="xsd:double" dictRef="g:l502.deltae">-0.116570069365</scalar></list></list></module> Cycle   3  Pass 1  IDiag  1:<module cmlx:lineCount="1" cmlx:templateRef="l502.ediff"><list cmlx:templateRef="l502.ediff"><list><scalar dataType="xsd:double" dictRef="g:l502.e">-346.859682385602</scalar><scalar dataType="xsd:double" dictRef="g:l502.deltae">-0.149039946051</scalar></list></list></module> Cycle   4  Pass 1  IDiag  1:<module cmlx:lineCount="1" cmlx:templateRef="l502.ediff"><list cmlx:templateRef="l502.ediff"><list><scalar dataType="xsd:double" dictRef="g:l502.e">-346.864335949595</scalar><scalar dataType="xsd:double" dictRef="g:l502.deltae">-0.004653563993</scalar></list></list></module> Cycle   5  Pass 1  IDiag  1:<module cmlx:lineCount="1" cmlx:templateRef="l502.ediff"><list cmlx:templateRef="l502.ediff"><list><scalar dataType="xsd:double" dictRef="g:l502.e">-346.867369579516</scalar><scalar dataType="xsd:double" dictRef="g:l502.deltae">-0.003033629921</scalar></list></list></module> Cycle   6  Pass 1  IDiag  1:<module cmlx:lineCount="1" cmlx:templateRef="l502.ediff"><list cmlx:templateRef="l502.ediff"><list><scalar dataType="xsd:double" dictRef="g:l502.e">-346.867478888197</scalar><scalar dataType="xsd:double" dictRef="g:l502.deltae">-1.09308681E-4</scalar></list></list></module> Cycle   7  Pass 1  IDiag  1:                    CP:  6.62D-01<module cmlx:lineCount="1" cmlx:templateRef="l502.ediff"><list cmlx:templateRef="l502.ediff"><list><scalar dataType="xsd:double" dictRef="g:l502.e">-346.867488738461</scalar><scalar dataType="xsd:double" dictRef="g:l502.deltae">-9.850263E-6</scalar></list></list></module> Cycle   8  Pass 1  IDiag  1:                    CP:  7.17D-01  7.40D-01<module cmlx:lineCount="1" cmlx:templateRef="l502.ediff"><list cmlx:templateRef="l502.ediff"><list><scalar dataType="xsd:double" dictRef="g:l502.e">-346.867488947208</scalar><scalar dataType="xsd:double" dictRef="g:l502.deltae">-2.08747E-7</scalar></list></list></module> Cycle   9  Pass 1  IDiag  1:                    CP:  7.09D-01  7.93D-01  7.28D-01<module cmlx:lineCount="1" cmlx:templateRef="l502.ediff"><list cmlx:templateRef="l502.ediff"><list><scalar dataType="xsd:double" dictRef="g:l502.e">-346.867489118207</scalar><scalar dataType="xsd:double" dictRef="g:l502.deltae">-1.70999E-7</scalar></list></list></module> Cycle  10  Pass 1  IDiag  1:                    CP:  7.10D-01  8.03D-01  7.32D-01  9.42D-01<module cmlx:lineCount="1" cmlx:templateRef="l502.ediff"><list cmlx:templateRef="l502.ediff"><list><scalar dataType="xsd:double" dictRef="g:l502.e">-346.867489118917</scalar><scalar dataType="xsd:double" dictRef="g:l502.deltae">-7.09E-10</scalar></list></list></module> Cycle  11  Pass 1  IDiag  1:                    CP:  7.10D-01  8.00D-01  7.37D-01  9.47D-01  8.53D-01<module cmlx:lineCount="1" cmlx:templateRef="l502.ediff"><list cmlx:templateRef="l502.ediff"><list><scalar dataType="xsd:double" dictRef="g:l502.e">-346.867489119392</scalar><scalar dataType="xsd:double" dictRef="g:l502.deltae">-4.76E-10</scalar></list></list></module> Cycle  12  Pass 1  IDiag  1:                    CP:  7.10D-01  8.00D-01  7.39D-01  9.61D-01  9.10D-01                    CP:  7.78D-01<module cmlx:lineCount="1" cmlx:templateRef="l502.ediff"><list cmlx:templateRef="l502.ediff"><list><scalar dataType="xsd:double" dictRef="g:l502.e">-346.86748911943</scalar><scalar dataType="xsd:double" dictRef="g:l502.deltae">-3.7E-11</scalar></list></list></module> Cycle  13  Pass 1  IDiag  1:                    CP:  7.10D-01  8.00D-01  7.39D-01  9.63D-01  9.10D-01                    CP:  8.06D-01  8.30D-01<module cmlx:lineCount="1" cmlx:templateRef="l502.ediff"><list cmlx:templateRef="l502.ediff"><list><scalar dataType="xsd:double" dictRef="g:l502.e">-346.867489119441</scalar><scalar dataType="xsd:double" dictRef="g:l502.deltae">-1.1E-11</scalar></list></list></module> RMSDP=6.83D-09 MaxDP=3.79D-07 DE=-1.13D-11 OVMax= 1.77D-07</module><module cmlx:lineCount="4" cmlx:templateRef="l502.footer"><list cmlx:templateRef="l502"><scalar dataType="xsd:string" dictRef="g:l502">SCF Done:  E(RB+HF-LYP) =  -346.867489119     A.U. after   13 cycles</scalar><scalar dataType="xsd:string" dictRef="g:l502">Convg  =    0.6828D-08             -V/T =  2.0042</scalar><scalar dataType="xsd:string" dictRef="g:l502">S**2   =   0.0000</scalar><scalar dataType="xsd:string" dictRef="g:l502">KE= 3.454257416163D+02 PE=-1.499717566953D+03 EE= 4.612772954308D+02</scalar></list></module></module> Copying SCF densities to generalized density rwf, ISCF=0 IROHF=0.<module cmlx:lineCount="183" cmlx:templateRef="l601.popanal"> Orbital symmetries:<module cmlx:lineCount="3" cmlx:templateRef="l4601.occupied"><list cmlx:templateRef="occ"><scalar dataType="xsd:string" dictRef="g:occorbs">(A) (A) (A) (A) (A) (A) (A) (A) (A) (A) (A) (A)</scalar></list><list cmlx:templateRef="occ"><scalar dataType="xsd:string" dictRef="g:occorbs">(A) (A) (A) (A) (A) (A) (A) (A) (A) (A) (A) (A)</scalar><scalar dataType="xsd:string" dictRef="g:occorbs">(A) (A) (A) (A) (A)</scalar></list></module><module cmlx:lineCount="17" cmlx:templateRef="l4601.virtual"><list cmlx:templateRef="virt"><scalar dataType="xsd:string" dictRef="g:virtorbs">(A) (A) (A) (A) (A) (A) (A) (A) (A) (A) (A) (A)</scalar></list><list cmlx:templateRef="virt"><scalar dataType="xsd:string" dictRef="g:virtorbs">(A) (A) (A) (A) (A) (A) (A) (A) (A) (A) (A) (A)</scalar><scalar dataType="xsd:string" dictRef="g:virtorbs">(A) (A) (A) (A) (A) (A) (A) (A) (A) (A) (A) (A)</scalar><scalar dataType="xsd:string" dictRef="g:virtorbs">(A) (A) (A) (A) (A) (A) (A) (A) (A) (A) (A) (A)</scalar><scalar dataType="xsd:string" dictRef="g:virtorbs">(A) (A) (A) (A) (A) (A) (A) (A) (A) (A) (A) (A)</scalar><scalar dataType="xsd:string" dictRef="g:virtorbs">(A) (A) (A) (A) (A) (A) (A) (A) (A) (A) (A) (A)</scalar><scalar dataType="xsd:string" dictRef="g:virtorbs">(A) (A) (A) (A) (A) (A) (A) (A) (A) (A) (A) (A)</scalar><scalar dataType="xsd:string" dictRef="g:virtorbs">(A) (A) (A) (A) (A) (A) (A) (A) (A) (A) (A) (A)</scalar><scalar dataType="xsd:string" dictRef="g:virtorbs">(A) (A) (A) (A) (A) (A) (A) (A) (A) (A) (A) (A)</scalar><scalar dataType="xsd:string" dictRef="g:virtorbs">(A) (A) (A) (A) (A) (A) (A) (A) (A) (A) (A) (A)</scalar><scalar dataType="xsd:string" dictRef="g:virtorbs">(A) (A) (A) (A) (A) (A) (A) (A) (A) (A) (A) (A)</scalar><scalar dataType="xsd:string" dictRef="g:virtorbs">(A) (A) (A) (A) (A) (A) (A) (A) (A) (A) (A) (A)</scalar><scalar dataType="xsd:string" dictRef="g:virtorbs">(A) (A) (A) (A) (A) (A) (A) (A) (A) (A) (A) (A)</scalar><scalar dataType="xsd:string" dictRef="g:virtorbs">(A) (A) (A) (A) (A) (A) (A) (A) (A) (A) (A) (A)</scalar><scalar dataType="xsd:string" dictRef="g:virtorbs">(A) (A) (A) (A) (A) (A) (A) (A) (A) (A) (A) (A)</scalar><scalar dataType="xsd:string" dictRef="g:virtorbs">(A) (A) (A) (A) (A) (A) (A) (A) (A) (A) (A) (A)</scalar><scalar dataType="xsd:string" dictRef="g:virtorbs">(A) (A) (A)</scalar></list></module><module cmlx:lineCount="1" cmlx:templateRef="l601.state"><scalar dataType="xsd:string" dictRef="g:l601.state">1-A.</scalar></module><array dataType="xsd:double" size="29" dictRef="g:alphaocc">-19.15789 -10.23678 -10.22884 -10.17821 -10.17678 -10.17532 -10.17092 -10.16908 -1.07544 -0.85833 -0.76374 -0.75225 -0.7016 -0.61566 -0.59656 -0.544 -0.49176 -0.48582 -0.47635 -0.45164 -0.42966 -0.42012 -0.38536 -0.37276 -0.36399 -0.33368 -0.32874 -0.26002 -0.22895</array><array dataType="xsd:double" size="195" dictRef="g:alphavirt">-0.01613 -0.00185 4.5E-4 0.01417 0.02262 0.03523 0.03925 0.04456 0.05025 0.07002 0.07256 0.07451 0.08827 0.09136 0.10994 0.11671 0.12684 0.13051 0.13397 0.14333 0.148 0.15258 0.15265 0.15824 0.17582 0.17937 0.18342 0.19685 0.20385 0.2057 0.21012 0.21394 0.22094 0.22674 0.23351 0.24204 0.24573 0.25538 0.26142 0.27373 0.2771 0.28595 0.31449 0.32376 0.33381 0.35095 0.3617 0.37465 0.38762 0.4256 0.44534 0.48275 0.51493 0.53129 0.53556 0.53602 0.53741 0.54738 0.57252 0.58853 0.5911 0.60303 0.62278 0.62499 0.63243 0.64669 0.66534 0.68077 0.69819 0.70249 0.72543 0.73488 0.74938 0.77305 0.79506 0.82754 0.83511 0.8466 0.85716 0.86372 0.87295 0.90679 0.94423 0.97873 0.98884 1.00659 1.00941 1.0208 1.02897 1.08033 1.08511 1.09316 1.12967 1.15065 1.27305 1.28457 1.28573 1.34216 1.41628 1.4301 1.46341 1.49468 1.51786 1.52824 1.55523 1.5689 1.57259 1.57745 1.60818 1.64353 1.65392 1.68324 1.68624 1.70429 1.72213 1.73951 1.77553 1.77603 1.79983 1.83663 1.88909 1.9135 1.93182 1.94681 1.95564 1.96216 1.98141 2.01202 2.0399 2.05426 2.07966 2.08524 2.10992 2.17274 2.27249 2.29494 2.34085 2.383 2.40015 2.40608 2.42705 2.46396 2.47654 2.50235 2.53693 2.61803 2.64512 2.64631 2.6616 2.70261 2.71805 2.74147 2.7611 2.7631 2.781 2.7901 2.8051 2.83052 2.87356 2.88857 2.88975 2.93917 3.05011 3.08009 3.10011 3.10883 3.16461 3.24789 3.3179 3.37148 3.41187 3.49542 3.51437 3.61465 3.67385 3.76568 3.82766 3.98801 4.0374 4.0923 4.14478 4.15678 4.22591 4.85249 5.0142 5.39574 5.78786 23.59747 23.90521 23.94012 23.96366 24.07895 24.11275 24.20835 49.95804</array><module cmlx:lineCount="45" cmlx:templateRef="l601.alphabetaeigen"/><module cmlx:lineCount="51" cmlx:templateRef="l601.condensed"><array dataType="xsd:double" size="16" dictRef="x:floatArr">9.047731 -0.476645 -1.745477 -0.297698 0.042952 -0.052752 0.327747 -0.565119 -0.067998 -0.015807 -0.0369 -0.076004 0.05374 -0.006679 0.008929 -0.006235</array><array dataType="xsd:double" size="16" dictRef="x:floatArr">-0.476645 7.386693 -0.426844 -0.462136 -0.369029 0.165658 0.056225 0.370779 0.001243 0.017404 0.023094 0.023181 0.060421 -0.035529 0.028985 -0.035676</array><array dataType="xsd:double" size="16" dictRef="x:floatArr">-1.745477 -0.426844 7.145581 0.370777 0.037281 -0.117569 -0.017254 0.097604 0.406517 -6.1E-4 -0.016951 0.011843 -0.21343 0.026171 -0.015946 0.026037</array><array dataType="xsd:double" size="16" dictRef="x:floatArr">-0.297698 -0.462136 0.370777 5.785459 0.540479 0.121335 -0.003852 0.051063 0.018716 0.356821 -1.23E-4 -0.013606 -0.101068 0.005815 5.6E-4 0.005557</array><array dataType="xsd:double" size="16" dictRef="x:floatArr">0.042952 -0.369029 0.037281 0.540479 4.964506 0.50812 -0.006569 -0.008437 -0.010401 -0.012479 0.374069 0.007944 -0.00414 6.89E-4 -4.71E-4 7.38E-4</array><array dataType="xsd:double" size="16" dictRef="x:floatArr">-0.052752 0.165658 -0.117569 0.121335 0.50812 5.098957 0.004432 0.015266 0.010566 -5.18E-4 0.007787 0.39398 0.007303 2.46E-4 7.41E-4 2.27E-4</array><array dataType="xsd:double" size="16" dictRef="x:floatArr">0.327747 0.056225 -0.017254 -0.003852 -0.006569 0.004432 0.529863 -0.008351 -1.43E-4 6.6E-5 -2.27E-4 -0.007885 0.001459 6.2E-5 -8.3E-5 6.2E-5</array><array dataType="xsd:double" size="16" dictRef="x:floatArr">-0.565119 0.370779 0.097604 0.051063 -0.008437 0.015266 -0.008351 8.215683 -0.019794 -5.26E-4 2.54E-4 -9.12E-4 0.163158 -0.03254 -0.065053 -0.03245</array><array dataType="xsd:double" size="16" dictRef="x:floatArr">-0.067998 0.001243 0.406517 0.018716 -0.010401 0.010566 -1.43E-4 -0.019794 0.545455 -0.007996 -2.79E-4 7.3E-5 0.005091 -4.2E-4 4.06E-4 -4.33E-4</array><array dataType="xsd:double" size="16" dictRef="x:floatArr">-0.015807 0.017404 -6.1E-4 0.356821 -0.012479 -5.18E-4 6.6E-5 -5.26E-4 -0.007996 0.545141 -0.008028 -3.15E-4 0.00207 3.0E-5 -4.0E-6 3.0E-5</array><array dataType="xsd:double" size="16" dictRef="x:floatArr">-0.0369 0.023094 -0.016951 -1.23E-4 0.374069 0.007787 -2.27E-4 2.54E-4 -2.79E-4 -0.008028 0.543819 -0.007954 3.48E-4 0.0 0.0 0.0</array><array dataType="xsd:double" size="16" dictRef="x:floatArr">-0.076004 0.023181 0.011843 -0.013606 0.007944 0.39398 -0.007885 -9.12E-4 7.3E-5 -3.15E-4 -0.007954 0.542648 5.79E-4 0.0 -1.0E-6 0.0</array><array dataType="xsd:double" size="16" dictRef="x:floatArr">0.05374 0.060421 -0.21343 -0.101068 -0.00414 0.007303 0.001459 0.163158 0.005091 0.00207 3.48E-4 5.79E-4 5.036065 0.409768 0.411868 0.409835</array><array dataType="xsd:double" size="16" dictRef="x:floatArr">-0.006679 -0.035529 0.026171 0.005815 6.89E-4 2.46E-4 6.2E-5 -0.03254 -4.2E-4 3.0E-5 0.0 0.0 0.409768 0.569355 -0.027085 -0.052884</array><array dataType="xsd:double" size="16" dictRef="x:floatArr">0.008929 0.028985 -0.015946 5.6E-4 -4.71E-4 7.41E-4 -8.3E-5 -0.065053 4.06E-4 -4.0E-6 0.0 -1.0E-6 0.411868 -0.027085 0.526145 -0.027074</array><array dataType="xsd:double" size="12" dictRef="x:floatArr">-0.006235 -0.035676 0.026037 0.005557 7.38E-4 2.27E-4 6.2E-5 -0.03245 -4.33E-4 3.0E-5 0.0 0.0</array></module><list cmlx:templateRef="popanal"><scalar dataType="xsd:string" dictRef="x:popanal">16  H    0.409835  -0.052884  -0.027074   0.569265</scalar></list><module cmlx:lineCount="40" cmlx:templateRef="mulliken"><module cmlx:lineCount="19" cmlx:templateRef="l601.mullik"><scalar dataType="xsd:string" dictRef="g:title">Mulliken atomic charges:</scalar><scalar dataType="xsd:integer" dictRef="cc:serial">1</scalar><list cmlx:lineCount="16" cmlx:templateRef="row"><array dataType="xsd:integer" dictRef="cc:serial" size="16">1 2 3 4 5 6 7 8 9 10 11 12 13 14 15 16</array><array dataType="xsd:string" dictRef="cc:elementType" size="16">C C C C C C H O H H H H C H H H</array><array dataType="xsd:double" dictRef="x:charge" size="16">-0.133786 -0.327826 0.43227 -0.3781 -0.065255 -0.16378 0.124449 -0.180624 0.119397 0.124719 0.12109 0.12643 -0.243068 0.143 0.158083 0.143</array></list><scalar dataType="xsd:string" dictRef="x:type">Mulliken</scalar><scalar dataType="xsd:double" dictRef="x:charge.sum">0.0</scalar></module><module cmlx:lineCount="19" cmlx:templateRef="l601.mullik"><scalar dataType="xsd:string" dictRef="g:title">Atomic charges with hydrogens summed into heavy atoms:</scalar><scalar dataType="xsd:integer" dictRef="cc:serial">1</scalar><list cmlx:lineCount="16" cmlx:templateRef="row"><array dataType="xsd:integer" dictRef="cc:serial" size="16">1 2 3 4 5 6 7 8 9 10 11 12 13 14 15 16</array><array dataType="xsd:string" dictRef="cc:elementType" size="16">C C C C C C H O H H H H C H H H</array><array dataType="xsd:double" dictRef="x:charge" size="16">-0.009337 -0.327826 0.551667 -0.253381 0.055835 -0.037349 0.0 -0.180624 0.0 0.0 0.0 0.0 0.201015 0.0 0.0 0.0</array></list><scalar dataType="xsd:string" dictRef="x:type">Mulliken</scalar><scalar dataType="xsd:double" dictRef="x:charge.sum">0.0</scalar></module><scalar dataType="xsd:double" dictRef="g:electextent2">979.978</scalar> Charge=     0.0000 electrons</module><module cmlx:lineCount="18" cmlx:templateRef="multipole"><array dataType="xsd:double" size="3" dictRef="cc:dipole">0.7939 1.1418 7.0E-4</array><scalar dataType="xsd:double" dictRef="x:dipole">1.3907</scalar><array dataType="xsd:double" size="3" dictRef="cc:quadrupole">-41.0542 -45.0756 -51.7893</array><array dataType="xsd:double" size="3" dictRef="cc:quadrupole">3.1083 0.0015 0.0</array><array dataType="xsd:double" size="6" dictRef="cc:quadrupole">4.9188 0.8974 -5.8162 3.1083 0.0015 0.0</array><array dataType="xsd:double" size="10" dictRef="cc:octapole">18.5556 -1.7234 -0.0022 -1.881 4.0333 0.0125 8.6331 -0.6305 -0.0060 -0.0032</array><array dataType="xsd:double" size="15" dictRef="cc:hexadecapole">-838.3233 -312.2944 -67.4404 3.2667 -3.0E-4 -1.1741 0.0075 -0.0016 0.0042 -205.5899 -179.0914 -74.1061 -0.0062 -0.0025 0.6689</array></module></module><module cmlx:lineCount="2" cmlx:templateRef="l601.nonmr"> Leave Link  601 at Mon Aug 28 12:38:49 2006, MaxMem=    6291456 cpu:       1.5</module><module cmlx:lineCount="1" cmlx:templateRef="l701"/> ... and contract with generalized density number  0.<module cmlx:lineCount="1" cmlx:templateRef="l702"/><module cmlx:lineCount="1" cmlx:templateRef="l701"/> Integral derivatives from FoFDir, PRISM(SPDF). Symmetry not used in FoFDir. MinBra= 0 MaxBra= 2 Meth= 1. IRaf=       0 NMat=   1 IRICut=       1 DoRegI=T DoRafI=F ISym2E= 0 JSym2E=0.<module cmlx:lineCount="2" cmlx:templateRef="l716.dipole"><array dataType="xsd:double" size="3" dictRef="x:d" cmlx:templateRef="dipole">0.312357568 0.449201397 2.65819461E-4</array> ***** Axes restored to original set *****</module> ------------------------------------------------------------------- Center     Atomic                   Forces (Hartrees/Bohr) Number     Number              X              Y              Z -------------------------------------------------------------------    1          6          -0.002684751   -0.000064278   -0.000215240    2          6           0.001441880   -0.000022803   -0.001519594    3          6          -0.000802781   -0.000014460    0.002777528    4          6           0.002413074    0.000039789    0.001318997    5          6           0.002380136   -0.000002590   -0.001538384    6          6           0.000004174    0.000033274   -0.002618661    7          1          -0.000078513    0.000035885   -0.000471126    8          8          -0.002312196    0.000019989   -0.000161732    9          1           0.000025454    0.000006952    0.000240933   10          1           0.000110465   -0.000008199    0.000082337   11          1           0.000161405   -0.000010659   -0.000029871   12          1          -0.000024904   -0.000007940   -0.000162293   13          6          -0.000510158   -0.000005326    0.003615312   14          1          -0.000101159    0.000041279   -0.000533182   15          1           0.000074765   -0.000005695   -0.000252065   16          1          -0.000096891   -0.000035217   -0.000532959 ------------------------------------------------------------------- Cartesian Forces:  Max     0.003615312 RMS     0.001138216<module cmlx:lineCount="105" cmlx:templateRef="l103"><list cmlx:templateRef="berny"><scalar dataType="xsd:string" dictRef="g:optimization">Internal  Forces:  Max     0.003565461 RMS     0.000961891</scalar></list> Search for a local minimum. Step number   1 out of a maximum of  80 All quantities printed in internal units (Hartrees-Bohrs-Radians) Second derivative matrix not updated -- first step.     Eigenvalues ---    0.01481   0.02130   0.02147   0.02157   0.02186     Eigenvalues ---    0.02190   0.02200   0.02206   0.02215   0.02226     Eigenvalues ---    0.02247   0.10018   0.10641   0.16000   0.16000     Eigenvalues ---    0.16000   0.16000   0.16000   0.16000   0.16000     Eigenvalues ---    0.16000   0.22000   0.22000   0.23483   0.25000     Eigenvalues ---    0.25000   0.34090   0.34092   0.34905   0.35469     Eigenvalues ---    0.35487   0.35594   0.35615   0.35814   0.42368     Eigenvalues ---    0.42493   0.43082   0.46197   0.46452   0.47250     Eigenvalues ---    0.47897   0.526341000.000001000.000001000.00000     Eigenvalues --- 1000.000001000.000001000.000001000.000001000.00000     Eigenvalues --- 1000.000001000.000001000.000001000.000001000.00000     Eigenvalues --- 1000.000001000.000001000.000001000.000001000.00000     Eigenvalues --- 1000.000001000.000001000.000001000.000001000.00000     Eigenvalues --- 1000.000001000.000001000.000001000.000001000.00000<module cmlx:lineCount="5" cmlx:templateRef="rfo"><list cmlx:templateRef="rfo"><scalar dataType="xsd:double" dictRef="g:lambda">-1.44474368E-4</scalar></list><list cmlx:templateRef="nolinear"><scalar dataType="xsd:string" dictRef="g:linear">Linear search</scalar></list><list cmlx:lineCount="3" cmlx:templateRef="iteration"><array dataType="xsd:integer" dictRef="cc:serial" size="3">1 2 3</array><array dataType="xsd:double" dictRef="g:rmscart" size="3">0.00461293 2.37E-6 0.0</array><array dataType="xsd:double" dictRef="g:rmsint" size="3">2.79E-6 9.3E-7 9.3E-7</array></list></module><module cmlx:lineCount="72" cmlx:templateRef="l103.deltas"><list cmlx:lineCount="70" cmlx:templateRef="delta"><array dataType="xsd:string" dictRef="cc:variable" size="70">R1 R2 R3 R4 R5 R6 R7 R8 R9 R10 R11 R12 R13 R14 R15 R16 A1 A2 A3 A4 A5 A6 A7 A8 A9 A10 A11 A12 A13 A14 A15 A16 A17 A18 A19 A20 A21 A22 A23 A24 A25 D1 D2 D3 D4 D5 D6 D7 D8 D9 D10 D11 D12 D13 D14 D15 D16 D17 D18 D19 D20 D21 D22 D23 D24 D25 D26 D27 D28 D29</array><array dataType="xsd:double" dictRef="g:lastval" size="70">2.6439 2.61657 2.04687 2.63656 2.57297 2.6352 2.04373 2.62106 2.0492 2.63595 2.04721 2.04892 2.67568 2.07179 2.0583 2.07176 2.09635 2.06452 2.12231 2.08867 2.01923 2.17529 2.08597 2.11261 2.0846 2.11142 2.07671 2.09506 2.07974 2.10234 2.1011 2.10422 2.08381 2.09515 2.06956 1.9495 1.85087 1.9495 1.90421 1.90419 1.90417 5.0E-5 -3.14121 3.14066 -6.0E-4 -2.1E-4 -3.14155 -3.14079 0.00106 -5.0E-5 -3.1413 3.14118 -7.0E-5 -3.14071 0.00123 2.1E-4 3.14144 3.14147 -4.9E-4 -3.7E-4 3.14121 3.14159 -2.0E-5 3.7E-4 -3.14148 -3.14121 1.3E-4 -1.07006 3.14058 1.06808</array><array dataType="xsd:double" dictRef="cc:deriv" size="70">0.00216 0.00289 3.0E-4 0.00228 0.00357 0.00295 2.4E-4 0.00289 1.3E-4 0.00284 1.5E-4 1.6E-4 0.00235 -2.8E-4 -1.4E-4 -2.7E-4 -1.4E-4 4.5E-4 -3.1E-4 4.0E-4 2.1E-4 -6.0E-4 -9.0E-5 7.0E-5 2.0E-5 -8.0E-5 3.0E-5 5.0E-5 -1.2E-4 2.0E-5 1.1E-4 3.0E-5 -5.0E-5 2.0E-5 9.6E-4 -5.0E-4 -1.4E-4 -5.0E-4 3.0E-4 5.5E-4 3.1E-4 0.0 -1.0E-5 2.0E-5 1.0E-5 0.0 0.0 -2.0E-5 -2.0E-5 0.0 -1.0E-5 1.0E-5 0.0 0.0 -1.0E-5 -1.0E-5 0.0 0.0 1.0E-5 1.0E-5 1.0E-5 0.0 0.0 -1.0E-5 0.0 -1.0E-5 0.0 1.0E-5 1.0E-5 0.0</array><array dataType="xsd:double" dictRef="cc:delta.linear" size="70">0.0 0.0 0.0 0.0 0.0 0.0 0.0 0.0 0.0 0.0 0.0 0.0 0.0 0.0 0.0 0.0 0.0 0.0 0.0 0.0 0.0 0.0 0.0 0.0 0.0 0.0 0.0 0.0 0.0 0.0 0.0 0.0 0.0 0.0 0.0 0.0 0.0 0.0 0.0 0.0 0.0 0.0 0.0 0.0 0.0 0.0 0.0 0.0 0.0 0.0 0.0 0.0 0.0 0.0 0.0 0.0 0.0 0.0 0.0 0.0 0.0 0.0 0.0 0.0 0.0 0.0 0.0 0.0 0.0 0.0</array><array dataType="xsd:double" dictRef="cc:delta.quad" size="70">0.00464 0.00597 8.3E-4 0.00485 0.00677 0.00634 6.7E-4 0.00611 3.8E-4 0.00616 4.3E-4 4.6E-4 0.00545 -8.2E-4 -3.9E-4 -8.0E-4 -7.6E-4 0.00275 -0.00198 0.00136 9.4E-4 -0.0023 -4.7E-4 4.0E-4 7.0E-5 -1.8E-4 5.0E-5 1.4E-4 -2.4E-4 -1.6E-4 4.1E-4 3.0E-4 -3.6E-4 6.0E-5 0.00384 -0.0031 -8.7E-4 -0.00312 0.00187 0.00338 0.00193 -5.0E-5 -4.4E-4 8.3E-4 4.4E-4 2.2E-4 0.0 -6.9E-4 -9.2E-4 6.0E-5 -2.5E-4 4.9E-4 1.9E-4 2.0E-5 -4.0E-4 -2.5E-4 1.7E-4 5.0E-5 4.7E-4 4.2E-4 3.8E-4 0.0 -4.0E-5 -4.1E-4 -1.8E-4 -3.7E-4 -1.4E-4 2.8E-4 2.4E-4 1.5E-4</array><array dataType="xsd:double" dictRef="cc:delta.total" size="70">0.00464 0.00597 8.3E-4 0.00485 0.00677 0.00634 6.7E-4 0.00611 3.8E-4 0.00616 4.3E-4 4.6E-4 0.00545 -8.2E-4 -3.9E-4 -8.0E-4 -7.6E-4 0.00275 -0.00198 0.00136 9.4E-4 -0.0023 -4.7E-4 4.0E-4 7.0E-5 -1.8E-4 5.0E-5 1.3E-4 -2.4E-4 -1.6E-4 4.1E-4 3.0E-4 -3.6E-4 6.0E-5 0.00384 -0.00311 -8.7E-4 -0.00312 0.00187 0.00337 0.00193 -5.0E-5 -4.5E-4 8.3E-4 4.4E-4 2.2E-4 0.0 -6.9E-4 -9.1E-4 6.0E-5 -2.5E-4 4.9E-4 1.9E-4 2.0E-5 -4.0E-4 -2.5E-4 1.7E-4 5.0E-5 4.7E-4 4.2E-4 3.8E-4 0.0 -4.0E-5 -4.1E-4 -1.8E-4 -3.7E-4 -1.4E-4 2.8E-4 2.4E-4 1.5E-4</array><array dataType="xsd:double" dictRef="cc:newval" size="70">2.64854 2.62255 2.0477 2.64141 2.57974 2.64154 2.0444 2.62717 2.04958 2.64212 2.04764 2.04939 2.68113 2.07096 2.05791 2.07096 2.09559 2.06726 2.12033 2.09003 2.02016 2.17299 2.0855 2.11301 2.08468 2.11123 2.07676 2.09519 2.0795 2.10218 2.10151 2.10452 2.08345 2.09521 2.07341 1.94639 1.85 1.94638 1.90608 1.90756 1.90609 0.0 3.14153 3.14149 -1.6E-4 1.0E-5 -3.14155 -3.14148 1.4E-4 1.0E-5 -3.14154 -3.14151 1.2E-4 -3.1407 8.3E-4 -4.0E-5 -3.14158 3.14152 -2.0E-5 5.0E-5 3.14159 3.14159 -6.0E-5 -4.0E-5 3.14153 -3.14158 -1.0E-5 -1.06979 3.14082 1.06823</array></list></module><module cmlx:lineCount="5" cmlx:templateRef="l103.itemconverge"><list cmlx:lineCount="4" cmlx:templateRef="row"><array dataType="xsd:string" dictRef="g:item"/><array dataType="xsd:double" dictRef="g:value" size="4">4.5E-4 3.0E-4 0.0018 0.0012</array><array dataType="xsd:double" dictRef="g:threshold" size="4">0.0 0.0 0.0 0.0</array><array dataType="xsd:string" dictRef="g:converged" size="4">NO NO NO NO</array></list></module><module cmlx:lineCount="1" cmlx:templateRef="preddelta"><list cmlx:templateRef="predicted"><scalar dataType="xsd:double" dictRef="g:predchange">-7.226257E-5</scalar></list></module> GradGradGradGradGradGradGradGradGradGradGradGradGradGradGradGradGradGrad</module><module cmlx:lineCount="22" cmlx:templateRef="l202.orient"><molecule id="a16" cmlx:templateRef="atom"><atomArray><atom id="a1" elementType="C" x3="-0.001393" y3="-2.56E-4" z3="-0.002668"><scalar dataType="xsd:integer" dictRef="cc:serial">1</scalar><scalar dataType="xsd:integer" dictRef="g:atomicType">0</scalar><scalar dataType="xsd:integer" dictRef="compchem:atomicNumber">6</scalar></atom><atom id="a2" elementType="C" x3="3.1E-5" y3="-2.85E-4" z3="1.398877"><scalar dataType="xsd:integer" dictRef="cc:serial">2</scalar><scalar dataType="xsd:integer" dictRef="g:atomicType">0</scalar><scalar dataType="xsd:integer" dictRef="compchem:atomicNumber">6</scalar></atom><atom id="a3" elementType="C" x3="1.214283" y3="-1.06E-4" z3="2.091234"><scalar dataType="xsd:integer" dictRef="cc:serial">3</scalar><scalar dataType="xsd:integer" dictRef="g:atomicType">0</scalar><scalar dataType="xsd:integer" dictRef="compchem:atomicNumber">6</scalar></atom><atom id="a4" elementType="C" x3="2.414746" y3="1.16E-4" z3="1.375092"><scalar dataType="xsd:integer" dictRef="cc:serial">4</scalar><scalar dataType="xsd:integer" dictRef="g:atomicType">0</scalar><scalar dataType="xsd:integer" dictRef="compchem:atomicNumber">6</scalar></atom><atom id="a5" elementType="C" x3="2.418298" y3="1.15E-4" z3="-0.015144"><scalar dataType="xsd:integer" dictRef="cc:serial">5</scalar><scalar dataType="xsd:integer" dictRef="g:atomicType">0</scalar><scalar dataType="xsd:integer" dictRef="compchem:atomicNumber">6</scalar></atom><atom id="a6" elementType="C" x3="1.198931" y3="-5.1E-5" z3="-0.699221"><scalar dataType="xsd:integer" dictRef="cc:serial">6</scalar><scalar dataType="xsd:integer" dictRef="g:atomicType">0</scalar><scalar dataType="xsd:integer" dictRef="compchem:atomicNumber">6</scalar></atom><atom id="a7" elementType="H" x3="-0.954693" y3="-4.94E-4" z3="-0.517843"><scalar dataType="xsd:integer" dictRef="cc:serial">7</scalar><scalar dataType="xsd:integer" dictRef="g:atomicType">0</scalar><scalar dataType="xsd:integer" dictRef="compchem:atomicNumber">1</scalar></atom><atom id="a8" elementType="O" x3="-1.228978" y3="-4.19E-4" z3="1.993139"><scalar dataType="xsd:integer" dictRef="cc:serial">8</scalar><scalar dataType="xsd:integer" dictRef="g:atomicType">0</scalar><scalar dataType="xsd:integer" dictRef="compchem:atomicNumber">8</scalar></atom><atom id="a9" elementType="H" x3="1.240248" y3="-1.72E-4" z3="3.17277"><scalar dataType="xsd:integer" dictRef="cc:serial">9</scalar><scalar dataType="xsd:integer" dictRef="g:atomicType">0</scalar><scalar dataType="xsd:integer" dictRef="compchem:atomicNumber">1</scalar></atom><atom id="a10" elementType="H" x3="3.352205" y3="2.38E-4" z3="1.920531"><scalar dataType="xsd:integer" dictRef="cc:serial">10</scalar><scalar dataType="xsd:integer" dictRef="g:atomicType">0</scalar><scalar dataType="xsd:integer" dictRef="compchem:atomicNumber">1</scalar></atom><atom id="a11" elementType="H" x3="3.353844" y3="2.91E-4" z3="-0.561825"><scalar dataType="xsd:integer" dictRef="cc:serial">11</scalar><scalar dataType="xsd:integer" dictRef="g:atomicType">0</scalar><scalar dataType="xsd:integer" dictRef="compchem:atomicNumber">1</scalar></atom><atom id="a12" elementType="H" x3="1.184661" y3="6.0E-6" z3="-1.783616"><scalar dataType="xsd:integer" dictRef="cc:serial">12</scalar><scalar dataType="xsd:integer" dictRef="g:atomicType">0</scalar><scalar dataType="xsd:integer" dictRef="compchem:atomicNumber">1</scalar></atom><atom id="a13" elementType="C" x3="-1.303043" y3="6.55E-4" z3="3.409998"><scalar dataType="xsd:integer" dictRef="cc:serial">13</scalar><scalar dataType="xsd:integer" dictRef="g:atomicType">0</scalar><scalar dataType="xsd:integer" dictRef="compchem:atomicNumber">6</scalar></atom><atom id="a14" elementType="H" x3="-0.834578" y3="-0.892994" z3="3.83772"><scalar dataType="xsd:integer" dictRef="cc:serial">14</scalar><scalar dataType="xsd:integer" dictRef="g:atomicType">0</scalar><scalar dataType="xsd:integer" dictRef="compchem:atomicNumber">1</scalar></atom><atom id="a15" elementType="H" x3="-2.364112" y3="0.00114" z3="3.655064"><scalar dataType="xsd:integer" dictRef="cc:serial">15</scalar><scalar dataType="xsd:integer" dictRef="g:atomicType">0</scalar><scalar dataType="xsd:integer" dictRef="compchem:atomicNumber">1</scalar></atom><atom id="a16" elementType="H" x3="-0.834057" y3="0.894667" z3="3.836376"><scalar dataType="xsd:integer" dictRef="cc:serial">16</scalar><scalar dataType="xsd:integer" dictRef="g:atomicType">0</scalar><scalar dataType="xsd:integer" dictRef="compchem:atomicNumber">1</scalar></atom></atomArray><formula formalCharge="0" concise="C 7 H 8 O 1"><atomArray elementType="C H O" count="7.0 8.0 1.0"/></formula><bondArray><bond atomRefs2="a1 a2" id="a1_a2" order="2"/><bond atomRefs2="a1 a6" id="a1_a6" order="S"/><bond atomRefs2="a1 a7" id="a1_a7" order="S"/><bond atomRefs2="a2 a3" id="a2_a3" order="S"/><bond atomRefs2="a2 a8" id="a2_a8" order="S"/><bond atomRefs2="a3 a4" id="a3_a4" order="2"/><bond atomRefs2="a3 a9" id="a3_a9" order="S"/><bond atomRefs2="a4 a5" id="a4_a5" order="S"/><bond atomRefs2="a4 a10" id="a4_a10" order="S"/><bond atomRefs2="a5 a6" id="a5_a6" order="2"/><bond atomRefs2="a5 a11" id="a5_a11" order="S"/><bond atomRefs2="a6 a12" id="a6_a12" order="S"/><bond atomRefs2="a8 a13" id="a8_a13" order="S"/><bond atomRefs2="a13 a14" id="a13_a14" order="S"/><bond atomRefs2="a13 a15" id="a13_a15" order="S"/><bond atomRefs2="a13 a16" id="a13_a16" order="S"/></bondArray><property dictRef="cml:molmass"><scalar dataType="xsd:double" units="unit:dalton" xmlns:unit="http://www.xml-cml.org/unit/si/">108.13781999999999</scalar></property></molecule></module><module cmlx:lineCount="39" cmlx:templateRef="l202.distmat"><array dataType="xsd:double" size="135" dictRef="cc:distance">0.0 1.401546 0.0 2.421218 1.397772 0.0 2.781358 2.414832 1.397845 0.0 2.419723 2.801333 2.426207 1.39024 0.0 1.387791 2.41648 2.790497 2.404367 1.398147 0.0 1.083598 2.141334 3.392895 3.864754 3.410245 2.161249 0.0 2.34312 1.365141 2.445229 3.695768 4.163631 3.625403 2.525918 0.0 3.409558 2.164448 1.081848 2.147345 3.398617 3.872212 4.293995 2.736532 0.0 3.865918 3.392521 2.144726 1.084589 2.149191 3.391119 4.949246 4.581759 2.455293 0.0 3.401511 3.884896 3.408291 2.152569 1.083563 2.159289 4.308762 5.246914 4.291211 2.482357 0.0 2.139742 3.395822 3.874963 3.38977 2.156235 1.084488 2.485763 4.482134 4.956697 4.29173 2.489604 0.0 3.652477 2.396375 2.841843 4.238254 5.057665 4.810983 3.943258 1.418795 2.554332 4.887725 6.12062 5.758672 0.0 4.029858 2.727903 2.836423 4.173762 5.120879 5.05137 4.447685 2.086796 2.354611 4.690696 6.139775 6.039386 1.095907 0.0 4.354474 3.267959 3.905186 5.29488 6.028422 5.626284 4.404499 2.012592 3.636485 5.973683 7.10473 6.494076 1.089002 1.781099 0.0 4.028955 2.727278 2.835813 4.172872 5.119789 5.050268 4.446919 2.086783 2.354539 4.68991 6.138616 6.038207 1.095903 1.787662 1.781105</array></module><module cmlx:lineCount="6" cmlx:templateRef="l202.stoich"><scalar dataType="xsd:string" dictRef="cc:formula" cmlx:templateRef="stoich">C7H8O</scalar><scalar dataType="xsd:string" dictRef="cc:frameworkgroup" cmlx:templateRef="framework">C1[X(C7H8O)]</scalar><scalar dataType="xsd:integer" dictRef="cc:degfreedom" cmlx:templateRef="degfreedom">42</scalar><scalar dataType="xsd:string" dictRef="cc:pointgroup">C1</scalar><scalar dataType="xsd:integer" dictRef="cc:operatorcount">1</scalar><scalar dataType="xsd:string" dictRef="cc:largestabelian">C1</scalar><scalar dataType="xsd:integer" dictRef="cc:operatorcount">1</scalar><scalar dataType="xsd:string" dictRef="cc:largestconciseabelian">C1</scalar><scalar dataType="xsd:integer" dictRef="cc:operatorcount">1</scalar></module><module cmlx:lineCount="22" cmlx:templateRef="l202.orient"><molecule id="a16" cmlx:templateRef="atom"><atomArray><atom id="a1" elementType="C" x3="-0.496558" y3="-1.301623" z3="-3.4E-5"><scalar dataType="xsd:integer" dictRef="cc:serial">1</scalar><scalar dataType="xsd:integer" dictRef="g:atomicType">0</scalar><scalar dataType="xsd:integer" dictRef="compchem:atomicNumber">6</scalar></atom><atom id="a2" elementType="C" x3="0.453036" y3="-0.270798" z3="-2.73E-4"><scalar dataType="xsd:integer" dictRef="cc:serial">2</scalar><scalar dataType="xsd:integer" dictRef="g:atomicType">0</scalar><scalar dataType="xsd:integer" dictRef="compchem:atomicNumber">6</scalar></atom><atom id="a3" elementType="C" x3="0.030413" y3="1.061552" z3="-2.83E-4"><scalar dataType="xsd:integer" dictRef="cc:serial">3</scalar><scalar dataType="xsd:integer" dictRef="g:atomicType">0</scalar><scalar dataType="xsd:integer" dictRef="compchem:atomicNumber">6</scalar></atom><atom id="a4" elementType="C" x3="-1.337436" y3="1.34958" z3="-3.8E-5"><scalar dataType="xsd:integer" dictRef="cc:serial">4</scalar><scalar dataType="xsd:integer" dictRef="g:atomicType">0</scalar><scalar dataType="xsd:integer" dictRef="compchem:atomicNumber">6</scalar></atom><atom id="a5" elementType="C" x3="-2.283016" y3="0.330439" z3="1.69E-4"><scalar dataType="xsd:integer" dictRef="cc:serial">5</scalar><scalar dataType="xsd:integer" dictRef="g:atomicType">0</scalar><scalar dataType="xsd:integer" dictRef="compchem:atomicNumber">6</scalar></atom><atom id="a6" elementType="C" x3="-1.851018" y3="-0.999295" z3="1.92E-4"><scalar dataType="xsd:integer" dictRef="cc:serial">6</scalar><scalar dataType="xsd:integer" dictRef="g:atomicType">0</scalar><scalar dataType="xsd:integer" dictRef="compchem:atomicNumber">6</scalar></atom><atom id="a7" elementType="H" x3="-0.145504" y3="-2.32678" z3="-1.27E-4"><scalar dataType="xsd:integer" dictRef="cc:serial">7</scalar><scalar dataType="xsd:integer" dictRef="g:atomicType">0</scalar><scalar dataType="xsd:integer" dictRef="compchem:atomicNumber">1</scalar></atom><atom id="a8" elementType="O" x3="1.759192" y3="-0.667745" z3="-4.09E-4"><scalar dataType="xsd:integer" dictRef="cc:serial">8</scalar><scalar dataType="xsd:integer" dictRef="g:atomicType">0</scalar><scalar dataType="xsd:integer" dictRef="compchem:atomicNumber">8</scalar></atom><atom id="a9" elementType="H" x3="0.744918" y3="1.87388" z3="-5.13E-4"><scalar dataType="xsd:integer" dictRef="cc:serial">9</scalar><scalar dataType="xsd:integer" dictRef="g:atomicType">0</scalar><scalar dataType="xsd:integer" dictRef="compchem:atomicNumber">1</scalar></atom><atom id="a10" elementType="H" x3="-1.656323" y3="2.38623" z3="-6.4E-5"><scalar dataType="xsd:integer" dictRef="cc:serial">10</scalar><scalar dataType="xsd:integer" dictRef="g:atomicType">0</scalar><scalar dataType="xsd:integer" dictRef="compchem:atomicNumber">1</scalar></atom><atom id="a11" elementType="H" x3="-3.341262" y3="0.5633" z3="3.61E-4"><scalar dataType="xsd:integer" dictRef="cc:serial">11</scalar><scalar dataType="xsd:integer" dictRef="g:atomicType">0</scalar><scalar dataType="xsd:integer" dictRef="compchem:atomicNumber">1</scalar></atom><atom id="a12" elementType="H" x3="-2.576056" y3="-1.805791" z3="4.13E-4"><scalar dataType="xsd:integer" dictRef="cc:serial">12</scalar><scalar dataType="xsd:integer" dictRef="g:atomicType">0</scalar><scalar dataType="xsd:integer" dictRef="compchem:atomicNumber">1</scalar></atom><atom id="a13" elementType="C" x3="2.774644" y3="0.32313" z3="4.57E-4"><scalar dataType="xsd:integer" dictRef="cc:serial">13</scalar><scalar dataType="xsd:integer" dictRef="g:atomicType">0</scalar><scalar dataType="xsd:integer" dictRef="compchem:atomicNumber">6</scalar></atom><atom id="a14" elementType="H" x3="2.720485" y3="0.955031" z3="-0.893289"><scalar dataType="xsd:integer" dictRef="cc:serial">14</scalar><scalar dataType="xsd:integer" dictRef="g:atomicType">0</scalar><scalar dataType="xsd:integer" dictRef="compchem:atomicNumber">1</scalar></atom><atom id="a15" elementType="H" x3="3.720544" y3="-0.216498" z3="9.8E-4"><scalar dataType="xsd:integer" dictRef="cc:serial">15</scalar><scalar dataType="xsd:integer" dictRef="g:atomicType">0</scalar><scalar dataType="xsd:integer" dictRef="compchem:atomicNumber">1</scalar></atom><atom id="a16" elementType="H" x3="2.71928" y3="0.954679" z3="0.894372"><scalar dataType="xsd:integer" dictRef="cc:serial">16</scalar><scalar dataType="xsd:integer" dictRef="g:atomicType">0</scalar><scalar dataType="xsd:integer" dictRef="compchem:atomicNumber">1</scalar></atom></atomArray><formula formalCharge="0" concise="C 7 H 8 O 1"><atomArray elementType="C H O" count="7.0 8.0 1.0"/></formula><bondArray><bond atomRefs2="a1 a2" id="a1_a2" order="2"/><bond atomRefs2="a1 a6" id="a1_a6" order="S"/><bond atomRefs2="a1 a7" id="a1_a7" order="S"/><bond atomRefs2="a2 a3" id="a2_a3" order="S"/><bond atomRefs2="a2 a8" id="a2_a8" order="S"/><bond atomRefs2="a3 a4" id="a3_a4" order="2"/><bond atomRefs2="a3 a9" id="a3_a9" order="S"/><bond atomRefs2="a4 a5" id="a4_a5" order="S"/><bond atomRefs2="a4 a10" id="a4_a10" order="S"/><bond atomRefs2="a5 a6" id="a5_a6" order="2"/><bond atomRefs2="a5 a11" id="a5_a11" order="S"/><bond atomRefs2="a6 a12" id="a6_a12" order="S"/><bond atomRefs2="a8 a13" id="a8_a13" order="S"/><bond atomRefs2="a13 a14" id="a13_a14" order="S"/><bond atomRefs2="a13 a15" id="a13_a15" order="S"/><bond atomRefs2="a13 a16" id="a13_a16" order="S"/></bondArray><property dictRef="cml:molmass"><scalar dataType="xsd:double" units="unit:dalton" xmlns:unit="http://www.xml-cml.org/unit/si/">108.13781999999999</scalar></property></molecule></module><module cmlx:lineCount="1" cmlx:templateRef="l202.rotconst"><array dataType="xsd:double" size="3" dictRef="cc:rotconst" cmlx:templateRef="rotconst">5.0566865 1.5585352 1.2004613</array></module><scalar dataType="xsd:integer" dictRef="g:buffer" cmlx:templateRef="buffer">131072</scalar><scalar dataType="xsd:string" dictRef="g:raffenetti" cmlx:templateRef="raff">Raffenetti</scalar><scalar dataType="xsd:string" dictRef="g:twoe" cmlx:templateRef="twoe">Two-electron</scalar><module cmlx:lineCount="12" cmlx:templateRef="l301.basis"><scalar dataType="xsd:string" dictRef="cc:basis">6-311+G(d,p)</scalar><scalar dataType="xsd:string" dictRef="cc:diffuse">(5D, 7F)</scalar><list cmlx:lineCount="1" cmlx:templateRef="symmadapt"><array dataType="xsd:integer" dictRef="cc:adapted" size="1">224</array><array dataType="xsd:string" dictRef="cc:symm" size="1">A</array></list><scalar dataType="xsd:integer" dictRef="cc:basiscount">224</scalar><scalar dataType="xsd:integer" dictRef="g:primbasis">352</scalar><scalar dataType="xsd:integer" dictRef="cc:cartesianbasis">232</scalar><scalar dataType="xsd:integer" dictRef="cc:alphae">29</scalar><scalar dataType="xsd:integer" dictRef="cc:betae">29</scalar> IExCor= 402 DFT=T Ex=B+HF Corr=LYP ExCW=0 ScaHFX=  0.200000 ScaDFX=  0.800000  0.720000  1.000000  0.810000 IRadAn=      0 IRanWt=     -1 IRanGd=            0 ICorTp=0 NAtoms=   16 NActive=   16 NUniq=   16 SFac= 1.00D+00 NAtFMM=   60 Big=F</module> NPDir=0 NMtPBC=     1 NCelOv=     1 NCel=       1 NClECP=     1 NCelD=      1         NCelK=      1 NCelE2=     1 NClLst=     1 CellRange=     0.0.<module cmlx:lineCount="1" cmlx:templateRef="l302.basis"><list cmlx:templateRef="onee"><scalar dataType="xsd:string" dictRef="g:onee">One-electron integrals</scalar></list></module> NBasis=   224 RedAO= T  NBF=   224 NBsUse=   224 1.00D-06 NBFU=   224 Precomputing XC quadrature grid using IXCGrd= 2 IRadAn=           0 IRanWt=          -1 IRanGd=           0. NRdTot=    1031 NPtTot=      131318 NUsed=      138600 NTot=      138632 NSgBfM=   232   232   232   232.<module cmlx:lineCount="1" cmlx:templateRef="l303.basis"><list cmlx:templateRef="l303"><scalar dataType="xsd:integer" dictRef="g:dipdrv">1</scalar></list></module> Initial guess read from the read-write file: Guess basis will be translated and rotated to current coordinates. Initial guess orbital symmetries:       Occupied  (A) (A) (A) (A) (A) (A) (A) (A) (A) (A) (A) (A)                 (A) (A) (A) (A) (A) (A) (A) (A) (A) (A) (A) (A)                 (A) (A) (A) (A) (A)       Virtual   (A) (A) (A) (A) (A) (A) (A) (A) (A) (A) (A) (A)                 (A) (A) (A) (A) (A) (A) (A) (A) (A) (A) (A) (A)                 (A) (A) (A) (A) (A) (A) (A) (A) (A) (A) (A) (A)                 (A) (A) (A) (A) (A) (A) (A) (A) (A) (A) (A) (A)                 (A) (A) (A) (A) (A) (A) (A) (A) (A) (A) (A) (A)                 (A) (A) (A) (A) (A) (A) (A) (A) (A) (A) (A) (A)                 (A) (A) (A) (A) (A) (A) (A) (A) (A) (A) (A) (A)                 (A) (A) (A) (A) (A) (A) (A) (A) (A) (A) (A) (A)                 (A) (A) (A) (A) (A) (A) (A) (A) (A) (A) (A) (A)                 (A) (A) (A) (A) (A) (A) (A) (A) (A) (A) (A) (A)                 (A) (A) (A) (A) (A) (A) (A) (A) (A) (A) (A) (A)                 (A) (A) (A) (A) (A) (A) (A) (A) (A) (A) (A) (A)                 (A) (A) (A) (A) (A) (A) (A) (A) (A) (A) (A) (A)                 (A) (A) (A) (A) (A) (A) (A) (A) (A) (A) (A) (A)                 (A) (A) (A) (A) (A) (A) (A) (A) (A) (A) (A) (A)                 (A) (A) (A) (A) (A) (A) (A) (A) (A) (A) (A) (A)                 (A) (A) (A) The electronic state of the initial guess is 1-A.<module cmlx:lineCount="138" cmlx:templateRef="l502"><list cmlx:templateRef="l502.type"><scalar dataType="xsd:string" dictRef="g:l502.type">Closed</scalar></list> Requested convergence on RMS density matrix=1.00D-08 within 128 cycles. Requested convergence on MAX density matrix=1.00D-06. Requested convergence on             energy=1.00D-06. No special actions if energy rises. Using DIIS extrapolation, IDIIS=  1040. Integral symmetry usage will be decided dynamically.       138599 words used for storage of precomputed grid. IEnd=    346863 IEndB=    346863 NGot=   6291456 MDV=   6015290 LenX=   6015290 Fock matrices will be formed incrementally for  20 cycles.<module cmlx:lineCount="121" cmlx:templateRef="l502.cycle"><list cmlx:templateRef="cycle"><list><scalar dataType="xsd:integer" dictRef="cc:cycle">1</scalar><scalar dataType="xsd:integer" dictRef="g:pass">1</scalar><scalar dataType="xsd:integer" dictRef="g:idiag">1</scalar></list></list><module cmlx:lineCount="1" cmlx:templateRef="l502.e"><list cmlx:templateRef="l502.e"><scalar dataType="xsd:double" dictRef="g:l502.e">-346.867532832592</scalar></list></module> Cycle   2  Pass 1  IDiag  1:<module cmlx:lineCount="1" cmlx:templateRef="l502.ediff"><list cmlx:templateRef="l502.ediff"><list><scalar dataType="xsd:double" dictRef="g:l502.e">-346.867556461173</scalar><scalar dataType="xsd:double" dictRef="g:l502.deltae">-2.3628582E-5</scalar></list></list></module> Cycle   3  Pass 1  IDiag  1:<module cmlx:lineCount="1" cmlx:templateRef="l502.ediff"><list cmlx:templateRef="l502.ediff"><list><scalar dataType="xsd:double" dictRef="g:l502.e">-346.867557471068</scalar><scalar dataType="xsd:double" dictRef="g:l502.deltae">-1.009895E-6</scalar></list></list></module> Cycle   4  Pass 1  IDiag  1:<module cmlx:lineCount="1" cmlx:templateRef="l502.ediff"><list cmlx:templateRef="l502.ediff"><list><scalar dataType="xsd:double" dictRef="g:l502.e">-346.867559862645</scalar><scalar dataType="xsd:double" dictRef="g:l502.deltae">-2.391577E-6</scalar></list></list></module> Cycle   5  Pass 1  IDiag  1:<module cmlx:lineCount="1" cmlx:templateRef="l502.ediff"><list cmlx:templateRef="l502.ediff"><list><scalar dataType="xsd:double" dictRef="g:l502.e">-346.8675599468</scalar><scalar dataType="xsd:double" dictRef="g:l502.deltae">-8.4155E-8</scalar></list></list></module> Cycle   6  Pass 1  IDiag  1:<module cmlx:lineCount="1" cmlx:templateRef="l502.ediff"><list cmlx:templateRef="l502.ediff"><list><scalar dataType="xsd:double" dictRef="g:l502.e">-346.867559954733</scalar><scalar dataType="xsd:double" dictRef="g:l502.deltae">-7.933E-9</scalar></list></list></module> Cycle   7  Pass 1  IDiag  1:                    CP:  8.89D-01<module cmlx:lineCount="1" cmlx:templateRef="l502.ediff"><list cmlx:templateRef="l502.ediff"><list><scalar dataType="xsd:double" dictRef="g:l502.e">-346.867559955337</scalar><scalar dataType="xsd:double" dictRef="g:l502.deltae">-6.04E-10</scalar></list></list></module> Cycle   8  Pass 1  IDiag  1:                    CP:  8.58D-01  8.14D-01<module cmlx:lineCount="1" cmlx:templateRef="l502.ediff"><list cmlx:templateRef="l502.ediff"><list><scalar dataType="xsd:double" dictRef="g:l502.e">-346.867559955489</scalar><scalar dataType="xsd:double" dictRef="g:l502.deltae">-1.52E-10</scalar></list></list></module> Cycle   9  Pass 1  IDiag  1:                    CP:  8.66D-01  8.41D-01  9.93D-01<module cmlx:lineCount="1" cmlx:templateRef="l502.ediff"><list cmlx:templateRef="l502.ediff"><list><scalar dataType="xsd:double" dictRef="g:l502.e">-346.867559955497</scalar><scalar dataType="xsd:double" dictRef="g:l502.deltae">-8.0E-12</scalar></list></list></module> RMSDP=7.76D-09 MaxDP=3.23D-07 DE=-7.62D-12 OVMax= 2.82D-07</module><module cmlx:lineCount="4" cmlx:templateRef="l502.footer"><list cmlx:templateRef="l502"><scalar dataType="xsd:string" dictRef="g:l502">SCF Done:  E(RB+HF-LYP) =  -346.867559955     A.U. after    9 cycles</scalar><scalar dataType="xsd:string" dictRef="g:l502">Convg  =    0.7759D-08             -V/T =  2.0043</scalar><scalar dataType="xsd:string" dictRef="g:l502">S**2   =   0.0000</scalar><scalar dataType="xsd:string" dictRef="g:l502">KE= 3.453663170815D+02 PE=-1.498284064939D+03 EE= 4.605989625162D+02</scalar></list></module></module><module cmlx:lineCount="1" cmlx:templateRef="l701"/> ... and contract with generalized density number  0.<module cmlx:lineCount="1" cmlx:templateRef="l702"/><module cmlx:lineCount="1" cmlx:templateRef="l701"/> Integral derivatives from FoFDir, PRISM(SPDF). Symmetry not used in FoFDir. MinBra= 0 MaxBra= 2 Meth= 1. IRaf=       0 NMat=   1 IRICut=       1 DoRegI=T DoRafI=F ISym2E= 0 JSym2E=0.<module cmlx:lineCount="2" cmlx:templateRef="l716.dipole"><array dataType="xsd:double" size="3" dictRef="x:d" cmlx:templateRef="dipole">0.311602977 0.45152819 4.07192717E-4</array> ***** Axes restored to original set *****</module> ------------------------------------------------------------------- Center     Atomic                   Forces (Hartrees/Bohr) Number     Number              X              Y              Z -------------------------------------------------------------------    1          6          -0.000412586   -0.000010458    0.000531724    2          6           0.001116955    0.000008585   -0.000520982    3          6          -0.000254388    0.000000333    0.000002694    4          6          -0.000088451   -0.000006963   -0.000062395    5          6          -0.000183475    0.000006921    0.000026826    6          6           0.000169473   -0.000002085    0.000189745    7          1           0.000138932    0.000006229   -0.000080674    8          8          -0.000700918    0.000003048   -0.000845374    9          1          -0.000036821    0.000001808   -0.000026769   10          1          -0.000053655    0.000000495   -0.000020091   11          1          -0.000043921   -0.000000176    0.000049949   12          1          -0.000007304   -0.000002358    0.000064763   13          6           0.000425678   -0.000004802    0.001298634   14          1          -0.000047047    0.000038223   -0.000168881   15          1           0.000026115   -0.000001995   -0.000269622   16          1          -0.000048588   -0.000036802   -0.000169547 ------------------------------------------------------------------- Cartesian Forces:  Max     0.001298634 RMS     0.000335390<module cmlx:lineCount="106" cmlx:templateRef="l103"><list cmlx:templateRef="berny"><scalar dataType="xsd:string" dictRef="g:optimization">Internal  Forces:  Max     0.000849719 RMS     0.000188868</scalar></list> Search for a local minimum. Step number   2 out of a maximum of  80 All quantities printed in internal units (Hartrees-Bohrs-Radians) Update second derivatives using D2CorX and points  1  2<module cmlx:lineCount="1" cmlx:templateRef="l103.trust"> Trust test= 9.80D-01 RLast= 1.88D-02 DXMaxT set to 3.00D-01</module>     Eigenvalues ---    0.01481   0.02129   0.02147   0.02157   0.02186     Eigenvalues ---    0.02190   0.02200   0.02206   0.02215   0.02226     Eigenvalues ---    0.02247   0.10049   0.10659   0.15165   0.16000     Eigenvalues ---    0.16000   0.16000   0.16000   0.16000   0.16000     Eigenvalues ---    0.16066   0.21958   0.22001   0.23110   0.24836     Eigenvalues ---    0.25751   0.33967   0.34091   0.34878   0.35472     Eigenvalues ---    0.35494   0.35597   0.35641   0.35824   0.40135     Eigenvalues ---    0.42500   0.42565   0.46301   0.47194   0.47286     Eigenvalues ---    0.51569   0.548321000.000001000.000001000.00000     Eigenvalues --- 1000.000001000.000001000.000001000.000001000.00000     Eigenvalues --- 1000.000001000.000001000.000001000.000001000.00000     Eigenvalues --- 1000.000001000.000001000.000001000.000001000.00000     Eigenvalues --- 1000.000001000.000001000.000001000.000001000.00000     Eigenvalues --- 1000.000001000.000001000.000001000.000001000.00000<module cmlx:lineCount="5" cmlx:templateRef="rfo"> Quartic linear search produced a step of -0.01866. Iteration  1 RMS(Cart)=  0.00226978 RMS(Int)=  0.00000208 Iteration  2 RMS(Cart)=  0.00000303 RMS(Int)=  0.00000028 Iteration  3 RMS(Cart)=  0.00000000 RMS(Int)=  0.00000028</module><module cmlx:lineCount="72" cmlx:templateRef="l103.deltas"><list cmlx:lineCount="70" cmlx:templateRef="delta"><array dataType="xsd:string" dictRef="cc:variable" size="70">R1 R2 R3 R4 R5 R6 R7 R8 R9 R10 R11 R12 R13 R14 R15 R16 A1 A2 A3 A4 A5 A6 A7 A8 A9 A10 A11 A12 A13 A14 A15 A16 A17 A18 A19 A20 A21 A22 A23 A24 A25 D1 D2 D3 D4 D5 D6 D7 D8 D9 D10 D11 D12 D13 D14 D15 D16 D17 D18 D19 D20 D21 D22 D23 D24 D25 D26 D27 D28 D29</array><array dataType="xsd:double" dictRef="g:lastval" size="70">2.64854 2.62255 2.0477 2.64141 2.57974 2.64154 2.0444 2.62717 2.04958 2.64212 2.04764 2.04939 2.68113 2.07096 2.05791 2.07096 2.09559 2.06726 2.12033 2.09003 2.02016 2.17299 2.0855 2.11301 2.08468 2.11123 2.07676 2.09519 2.0795 2.10218 2.10151 2.10452 2.08345 2.09521 2.07341 1.94639 1.85 1.94638 1.90608 1.90756 1.90609 0.0 3.14153 3.14149 -1.6E-4 1.0E-5 -3.14155 -3.14148 1.4E-4 1.0E-5 -3.14154 -3.14151 1.2E-4 -3.1407 8.3E-4 -4.0E-5 -3.14158 3.14152 -2.0E-5 5.0E-5 3.14159 3.14159 -6.0E-5 -4.0E-5 3.14153 -3.14158 -1.0E-5 -1.06979 3.14082 1.06823</array><array dataType="xsd:double" dictRef="cc:deriv" size="70">-5.9E-4 -1.0E-4 -8.0E-5 -3.9E-4 2.3E-4 -2.1E-4 -3.0E-5 -1.8E-4 -6.0E-5 -2.2E-4 -6.0E-5 -6.0E-5 6.9E-4 -1.1E-4 -9.0E-5 -1.1E-4 -2.1E-4 2.4E-4 -3.0E-5 3.4E-4 -7.0E-5 -2.7E-4 -1.1E-4 2.0E-5 8.0E-5 -7.0E-5 4.0E-5 4.0E-5 1.0E-5 -2.0E-5 0.0 4.0E-5 -4.0E-5 0.0 -8.5E-4 -9.0E-5 -3.4E-4 -9.0E-5 1.7E-4 1.8E-4 1.7E-4 0.0 0.0 0.0 1.0E-5 0.0 0.0 0.0 0.0 0.0 0.0 0.0 0.0 -1.0E-5 0.0 0.0 0.0 0.0 0.0 0.0 0.0 0.0 0.0 0.0 0.0 0.0 0.0 -5.0E-5 0.0 5.0E-5</array><array dataType="xsd:double" dictRef="cc:delta.linear" size="70">-9.0E-5 -1.1E-4 -2.0E-5 -9.0E-5 -1.3E-4 -1.2E-4 -1.0E-5 -1.1E-4 -1.0E-5 -1.1E-4 -1.0E-5 -1.0E-5 -1.0E-4 2.0E-5 1.0E-5 1.0E-5 1.0E-5 -5.0E-5 4.0E-5 -3.0E-5 -2.0E-5 4.0E-5 1.0E-5 -1.0E-5 0.0 0.0 0.0 0.0 0.0 0.0 -1.0E-5 -1.0E-5 1.0E-5 0.0 -7.0E-5 6.0E-5 2.0E-5 6.0E-5 -3.0E-5 -6.0E-5 -4.0E-5 0.0 1.0E-5 -2.0E-5 -1.0E-5 0.0 0.0 1.0E-5 2.0E-5 0.0 0.0 -1.0E-5 0.0 0.0 1.0E-5 0.0 0.0 0.0 -1.0E-5 -1.0E-5 -1.0E-5 0.0 0.0 1.0E-5 0.0 1.0E-5 0.0 -1.0E-5 0.0 0.0</array><array dataType="xsd:double" dictRef="cc:delta.quad" size="70">-9.4E-4 2.4E-4 -1.6E-4 -4.8E-4 9.4E-4 4.0E-5 -3.0E-5 1.1E-4 -1.4E-4 2.0E-5 -1.4E-4 -1.4E-4 0.00199 -3.8E-4 -2.8E-4 -3.8E-4 -0.00101 0.0015 -4.9E-4 0.0014 -1.8E-4 -0.00123 -5.2E-4 8.0E-5 4.4E-4 -2.7E-4 1.3E-4 1.5E-4 1.5E-4 -1.6E-4 1.0E-5 2.5E-4 -2.6E-4 1.0E-5 -0.00305 -7.4E-4 -0.00224 -7.5E-4 0.00106 0.00157 0.00107 -4.0E-5 1.1E-4 1.1E-4 2.6E-4 0.0 -1.0E-5 -1.6E-4 -1.7E-4 3.0E-5 1.0E-5 -1.3E-4 -1.5E-4 -3.1E-4 -1.5E-4 2.0E-5 -1.0E-5 4.0E-5 1.0E-5 -6.0E-5 1.0E-5 -4.0E-5 3.0E-5 5.0E-5 6.0E-5 -2.0E-5 -1.0E-5 -2.9E-4 1.9E-4 6.6E-4</array><array dataType="xsd:double" dictRef="cc:delta.total" size="70">-0.00103 1.3E-4 -1.8E-4 -5.7E-4 8.1E-4 -8.0E-5 -4.0E-5 0.0 -1.4E-4 -9.0E-5 -1.5E-4 -1.5E-4 0.00189 -3.7E-4 -2.8E-4 -3.7E-4 -9.9E-4 0.00144 -4.5E-4 0.00138 -1.9E-4 -0.00118 -5.1E-4 7.0E-5 4.4E-4 -2.7E-4 1.2E-4 1.4E-4 1.5E-4 -1.5E-4 0.0 2.5E-4 -2.5E-4 0.0 -0.00312 -6.8E-4 -0.00223 -6.9E-4 0.00103 0.0015 0.00104 -4.0E-5 1.2E-4 1.0E-4 2.6E-4 -1.0E-5 -1.0E-5 -1.5E-4 -1.5E-4 3.0E-5 2.0E-5 -1.4E-4 -1.6E-4 -3.1E-4 -1.4E-4 2.0E-5 -1.0E-5 4.0E-5 0.0 -7.0E-
[...]
DX =    0.0|-DE/DX =    0.0|-DE/DX =    0.0|-DE/DX =    0.0|-DE/DX =    0.0|-DE/DX =    0.0|-DE/DX =    0.0|-DE/DX =    0.0|-DE/DX =    0.0|-DE/DX =    0.0|-DE/DX =    0.0|-DE/DX =    0.0|-DE/DX =    0.0|</array></list> ! D29   D(2,8,13,16)           61.258          -DE/DX =    0.0                 !</module> -------------------------------------------------------------------------------- GradGradGradGradGradGradGradGradGradGradGradGradGradGradGradGradGradGrad</module><module cmlx:lineCount="237" cmlx:templateRef="l9999.archive"><scalar dataType="xsd:string" dictRef="cc:hostname">GINC-PUBLIX</scalar><scalar dataType="xsd:string" dictRef="g:operation">Freq</scalar><scalar dataType="xsd:string" dictRef="cc:method">RB3LYP</scalar><scalar dataType="xsd:string" dictRef="cc:basis">6-311+G(d,p)</scalar><scalar dataType="xsd:string" dictRef="cc:jobname">NOBODY</scalar><scalar dataType="xsd:date" dictRef="cc:date">2006-08-29T00:00:00Z</scalar><scalar dataType="xsd:string" dictRef="g:keyword">#P</scalar><scalar dataType="xsd:string" dictRef="g:keyword">GEOM=ALLCHECK</scalar><scalar dataType="xsd:string" dictRef="g:keyword">GUESS=READ</scalar><scalar dataType="xsd:string" dictRef="g:keyword">SCRF=CHECK</scalar><scalar dataType="xsd:string" dictRef="g:keyword">GENCHK</scalar><scalar dataType="xsd:string" dictRef="g:keyword">RB3LYP/6-311+G(D,P)</scalar><scalar dataType="xsd:string" dictRef="g:keyword">FREQ</scalar><scalar dataType="xsd:string" dictRef="cc:title">OMe basis2</scalar><molecule id="a16"><atomArray><atom id="a1" elementType="C" x3="-0.5183906726" y3="-2.352741E-4" z3="-1.2934452618"><scalar dataType="xsd:integer" dictRef="compchem:atomicNumber">6</scalar></atom><atom id="a2" elementType="C" x3="-0.5164267379" y3="-1.271717E-4" z3="0.1072556262"><scalar dataType="xsd:integer" dictRef="compchem:atomicNumber">6</scalar></atom><atom id="a3" elementType="C" x3="0.6967035649" y3="2.56245E-5" z3="0.8007497903"><scalar dataType="xsd:integer" dictRef="compchem:atomicNumber">6</scalar></atom><atom id="a4" elementType="C" x3="1.8973995572" y3="6.99272E-5" z3="0.08531831"><scalar dataType="xsd:integer" dictRef="compchem:atomicNumber">6</scalar></atom><atom id="a5" elementType="C" x3="1.9012890279" y3="-4.99433E-5" z3="-1.3047715821"><scalar dataType="xsd:integer" dictRef="compchem:atomicNumber">6</scalar></atom><atom id="a6" elementType="C" x3="0.6824585188" y3="-1.993475E-4" z3="-1.9891880847"><scalar dataType="xsd:integer" dictRef="compchem:atomicNumber">6</scalar></atom><atom id="a7" elementType="H" x3="-1.4707751848" y3="-3.319437E-4" z3="-1.8099506332"><scalar dataType="xsd:integer" dictRef="compchem:atomicNumber">1</scalar></atom><atom id="a8" elementType="O" x3="-1.7465008488" y3="-2.057655E-4" z3="0.7013529956"><scalar dataType="xsd:integer" dictRef="compchem:atomicNumber">8</scalar></atom><atom id="a9" elementType="H" x3="0.7217475083" y3="1.014523E-4" z3="1.8821667117"><scalar dataType="xsd:integer" dictRef="compchem:atomicNumber">1</scalar></atom><atom id="a10" elementType="H" x3="2.8346069285" y3="1.854553E-4" z3="0.6309926354"><scalar dataType="xsd:integer" dictRef="compchem:atomicNumber">1</scalar></atom><atom id="a11" elementType="H" x3="2.8369626254" y3="-1.97721E-5" z3="-1.8510317923"><scalar dataType="xsd:integer" dictRef="compchem:atomicNumber">1</scalar></atom><atom id="a12" elementType="H" x3="0.6686872438" y3="-2.874511E-4" z3="-3.0734972131"><scalar dataType="xsd:integer" dictRef="compchem:atomicNumber">1</scalar></atom><atom id="a13" elementType="C" x3="-1.8172411255" y3="5.053852E-4" z3="2.1200991951"><scalar dataType="xsd:integer" dictRef="compchem:atomicNumber">6</scalar></atom><atom id="a14" elementType="H" x3="-1.34801288" y3="-0.8935895976" z3="2.5451826381"><scalar dataType="xsd:integer" dictRef="compchem:atomicNumber">1</scalar></atom><atom id="a15" elementType="H" x3="-2.8781913719" y3="7.589729E-4" z3="2.3649152381"><scalar dataType="xsd:integer" dictRef="compchem:atomicNumber">1</scalar></atom><atom id="a16" elementType="H" x3="-1.347770876" y3="0.8948938062" z3="2.5442904922"><scalar dataType="xsd:integer" dictRef="compchem:atomicNumber">1</scalar></atom></atomArray><formula formalCharge="0" concise="C 7 H 8 O 1" dictRef="cc:formula.calc"/><bondArray><bond atomRefs2="a1 a2" id="a1_a2" order="2"/><bond atomRefs2="a1 a6" id="a1_a6" order="S"/><bond atomRefs2="a1 a7" id="a1_a7" order="S"/><bond atomRefs2="a2 a3" id="a2_a3" order="S"/><bond atomRefs2="a2 a8" id="a2_a8" order="S"/><bond atomRefs2="a3 a4" id="a3_a4" order="2"/><bond atomRefs2="a3 a9" id="a3_a9" order="S"/><bond atomRefs2="a4 a5" id="a4_a5" order="S"/><bond atomRefs2="a4 a10" id="a4_a10" order="S"/><bond atomRefs2="a5 a6" id="a5_a6" order="2"/><bond atomRefs2="a5 a11" id="a5_a11" order="S"/><bond atomRefs2="a6 a12" id="a6_a12" order="S"/><bond atomRefs2="a8 a13" id="a8_a13" order="S"/><bond atomRefs2="a13 a14" id="a13_a14" order="S"/><bond atomRefs2="a13 a15" id="a13_a15" order="S"/><bond atomRefs2="a13 a16" id="a13_a16" order="S"/></bondArray><property dictRef="cml:molmass"><scalar dataType="xsd:double" units="unit:dalton" xmlns:unit="http://www.xml-cml.org/unit/si/">108.13781999999999</scalar></property><formula concise="C 7 H 8 O 1" dictRef="cc:formula.user"/></molecule><scalar dataType="xsd:string" dictRef="cc:version">Sun64-SVR4-Unix-G03RevB.04</scalar><scalar dataType="xsd:string" dictRef="cc:electronicstate">1-A</scalar><scalar dataType="xsd:double" dictRef="cc:hfenergy" units="nonsi:hartree">-346.8675652</scalar><scalar dataType="xsd:double" dictRef="cc:rmsd" units="nonsi:unknown">3.397E-9</scalar><scalar dataType="xsd:double" dictRef="cc:rmsf" units="nonsi:unknown">1.894E-5</scalar><array dataType="xsd:double" size="3" dictRef="cc:dipole" units="nonsi:debye">0.0802156 3.359E-4 0.5434938</array><array dataType="xsd:double" size="144" dictRef="cc:dipolederiv" units="nonsi:unknown">-0.1040663 3.16E-5 0.0723967 6.67E-5 -0.1661456 -4.34E-5 0.3284522 9.3E-6 -0.2030848 1.2138719 -4.54E-5 -0.8393702 1.233E-4 0.0928277 -9.56E-5 -0.5948044 -4.23E-5 0.5108462 -0.3342648 2.01E-5 0.2644665 -5.16E-5 -0.1701921 4.54E-5 -0.1025707 -1.7E-6 -0.0348468 0.1258361 1.12E-5 -0.0870283 1.54E-5 -0.1446729 2.93E-5 0.0381234 3.24E-5 0.1864929 -0.0824176 1.16E-5 -0.0517475 8.7E-6 -0.1675376 -6.0E-6 -0.0930355 -1.42E-5 -0.1920128 0.1842504 2.51E-5 0.0438423 1.96E-5 -0.1376915 4.01E-5 -0.0189451 1.85E-5 0.1300094 -0.0355732 -1.75E-5 -0.0572726 -1.29E-5 0.1494156 -8.9E-6 -0.0538213 -8.0E-6 0.0529903 -1.2407705 5.87E-5 0.7711397 -7.46E-5 -0.2796476 -1.44E-4 0.6848048 -1.632E-4 -1.1338484 0.0876006 -8.4E-6 -9.096E-4 -1.36E-5 0.1480412 -1.29E-5 0.0190534 -1.49E-5 -0.0811373 -0.0697422 -1.91E-5 -0.0667036 -1.7E-5 0.1370084 -2.13E-5 -0.0800987 -1.61E-5 0.0221792 -0.0663404 -1.02E-5 0.0773146 -1.5E-5 0.1516762 -6.7E-6 0.0771351 -5.2E-6 0.0206707 0.0705568 -2.2E-6 -2.155E-4 -9.5E-6 0.136338 -2.38E-5 0.0014657 -2.16E-5 -0.11159 0.2839535 -2.85E-5 -0.0446362 -1.351E-4 0.3397574 2.147E-4 -0.3499362 1.526E-4 0.9272967 0.0430189 0.0937214 -0.0903155 0.0495357 -0.0921488 0.0870217 0.0535464 0.024626 -0.061739 -0.1189176 6.41E-5 0.0992967 4.74E-5 0.0951721 -2.55E-5 0.0370508 -1.84E-5 0.0293514 0.0430045 -0.0938126 -0.0902575 -0.0494874 -0.0922006 -0.0869631 0.0535802 -0.0245332 -0.0615779</array><array dataType="xsd:double" size="6" dictRef="cc:polarizability" units="nonsi:unknown">100.5930159 7.224E-4 53.6751029 -10.9654227 0.0049544 100.5591755</array><scalar dataType="xsd:string" dictRef="cc:pointgroup">C01 [X(C7H8O1)]</scalar><array dataType="xsd:double" size="1176" dictRef="x:unknown">0.74815461 4.328E-5 0.12429219 0.01275109 4.045E-5 0.66717217 -0.11998669 -2.61E-6 0.011938 0.65571251 -8.32E-6 -0.06767448 -2.141E-5 4.622E-5 0.15797777 -0.05442095 -2.307E-5 -0.30246176 0.01975946 6.669E-5 0.68549717 0.0296533 -3.36E-6 -0.06646245 -0.24743514 -2.154E-5 -0.04873263 0.65286495 -9.5E-7 0.00693373 -5.22E-6 -2.336E-5 -0.06433621 -1.683E-5 4.458E-5 0.11897726 -0.02755506 -2.61E-6 -0.0195399 -0.11471257 -1.988E-5 -0.19157868 -0.00546278 4.439E-5 0.73555884 -0.01577489 7.8E-7 0.02445976 -0.05954655 -5.77E-6 -0.02485908 -0.27340111 -8.83E-6 0.11983838 0.70413083 1.25E-6 -0.002458 -1.82E-6 -2.93E-6 5.9925E-4 4.07E-6 -1.296E-5 -0.05629925 1.5E-7 4.845E-5 0.13279048 0.0277473 -2.97E-6 -0.05010667 0.02457016 5.33E-6 0.07122871 0.05797954 -2.43E-6 -0.17696551 0.03546653 4.809E-5 0.68552038 -0.05750462 -1.28E-6 0.02425037 -0.01316727 -2.03E-6 -0.03360483 0.02953471 3.32E-6 0.02774785 -0.1262569 -2.92E-6 0.03181924 0.71173295 -6.66E-6 0.00681101 5.73E-6 -3.3E-6 -0.00459183 -6.46E-6 7.77E-6 0.00674444 -2.9E-7 -7.63E-6 -0.06066537 -2.175E-5 4.292E-5 0.12544233 -0.02008569 3.3E-6 0.06107179 -0.0327234 -5.1E-6 -0.0556978 0.07413418 2.2E-6 -0.02882476 -0.03007089 -2.645E-5 -0.33841393 -0.04242388 4.296E-5 0.67961686 -0.29470668 -1.432E-5 0.06540056 0.03362015 7.34E-6 0.08187958 -0.06388079 -3.53E-6 0.00313926 0.03002141 -3.94E-6 -0.07713581 -0.27511288 -2.134E-5 -0.05263262 0.66103872 -8.42E-6 -0.05725922 -4.09E-6 4.33E-6 0.00118201 4.02E-6 -4.72E-6 -0.00285918 1.3E-7 -6.3E-7 0.00618087 -8.36E-6 -2.633E-5 -0.06095375 -1.33E-5 4.057E-5 0.13460619 0.12643136 1.46E-6 -0.18430044 0.0316523 7.6E-7 -0.02392847 -0.00311625 -5.2E-7 -0.00183688 -0.02940835 -5.19E-6 -0.02918198 -0.1147561 -1.776E-5 -0.17330019 -0.00632289 4.713E-5 0.73422203 -0.27147264 -2.333E-5 -0.11983018 0.00106109 -1.3E-7 0.00183045 0.0012059 -2.7E-7 1.3624E-4 2.9772E-4 1.8E-7 6.5754E-4 -0.00228634 -3.5E-7 0.00403862 -0.01769679 -2.59E-6 -0.01483757 0.28783421 -2.253E-5 -0.0340668 -1.443E-5 -3.14E-6 0.00485393 -5.6E-7 -2.3E-7 0.00508146 -1.15E-6 2.9E-7 -0.00102926 -4.0E-8 -3.7E-7 0.00741823 -2.0E-7 -5.3E-7 0.00241756 -2.1E-7 2.591E-5 0.02396299 -0.1179738 -1.378E-5 -0.12421364 -0.02993881 -3.23E-6 -0.01009112 0.00124018 -6.4E-7 -0.00574336 0.001044 5.0E-8 -8.4761E-4 0.00328092 -2.8E-7 -8.9847E-4 0.01529325 1.68E-6 0.0121212 0.1281507 1.534E-5 0.12617425 -0.00978605 6.4E-7 0.02459616 -0.24757039 -3.725E-5 0.03883135 -0.04986248 -6.24E-6 0.02058183 0.00104291 -1.48E-6 -0.00667994 -0.00526383 -5.0E-8 0.00300982 0.00293936 1.35E-6 -0.0040674 7.7842E-4 1.0E-7 -2.2879E-4 0.38731054 5.46E-6 0.00673044 2.39E-6 -1.646E-5 -0.04242492 -2.626E-5 -2.9E-7 0.00850771 -1.65E-6 -2.55E-6 0.00653907 2.5E-6 -2.57E-6 -0.00115477 -2.81E-6 3.81E-6 0.00439794 -3.31E-6 2.6E-7 -0.00315964 7.3E-7 3.452E-5 0.06745498 0.05776374 2.28E-6 -0.03568925 0.07727889 -7.21E-6 -0.13300453 -0.0074817 -1.75E-6 0.01434574 -7.2589E-4 -1.51E-6 -0.00704123 0.00607604 6.4E-7 0.00309595 -0.00987374 -2.05E-6 -0.0041616 1.9998E-4 1.04E-6 0.00263405 -0.10664042 1.4778E-4 0.46912901 -0.00485277 -1.1E-6 -0.00215539 0.00617818 -1.67E-6 -0.02750724 -0.05827645 -3.11E-6 -0.00925062 0.00479114 2.13E-6 0.02844091 -0.00428905 -7.6E-7 0.00236815 -0.00141696 6.0E-8 1.1186E-4 5.339E-5 -2.1E-7 -0.00144537 0.00147171 1.11E-6 0.00196656 0.05881331 -1.26E-6 0.005534 -5.7E-7 9.7E-7 0.00330977 -4.39E-6 -4.08E-6 -0.03109756 -2.196E-5 1.8E-7 0.00177753 1.33E-6 -5.9E-7 0.00676265 -2.7E-7 -1.0E-7 -8.0827E-4 1.4E-7 -1.0E-8 -2.257E-5 -2.3E-7 7.0E-7 -0.00268975 1.9E-7 2.53E-6 0.02246703 -0.00309686 -7.1E-7 4.8289E-4 0.00254255 -9.9E-7 -0.01199211 -0.01043223 -2.17E-5 -0.33860269 -0.00240004 -1.08E-6 -0.01214049 0.00310881 -1.8E-7 0.00101765 -1.3443E-4 1.1E-7 6.9497E-4 2.537E-4 0.0 -6.3494E-4 3.6069E-4 -3.0E-8 -5.57E-6 0.00619114 2.451E-5 0.36101491 2.0662E-4 1.5E-7 7.7001E-4 -0.00185937 -5.2E-7 0.00402197 -0.01917869 -2.71E-6 -0.01511894 -0.26429274 -2.715E-5 -0.11966971 0.00347976 2.2E-7 0.00207201 0.00177487 -3.6E-7 2.1123E-4 -4.132E-5 5.0E-8 -6.447E-5 -0.00178643 2.0E-8 -4.4142E-4 0.00102478 4.6E-7 1.8734E-4 0.27978288 2.0E-7 -0.00112865 9.0E-8 -3.7E-7 0.00712476 -4.5E-7 -6.1E-7 0.00313896 -5.7E-7 -2.706E-5 -0.03632387 -1.632E-5 -2.55E-6 0.00363987 -1.39E-6 -1.2E-7 0.0070285 -1.06E-6 4.0E-8 -7.548E-4 7.0E-8 1.0E-8 -1.67E-6 2.6E-7 3.5E-7 -0.00405534 4.1E-7 2.984E-5 0.02531797 9.4205E-4 1.3E-7 -5.7162E-4 0.00324035 -3.6E-7 -0.00100582 0.01535824 1.68E-6 0.0108248 -0.1198199 -1.669E-5 -0.12868858 -0.02898478 -3.37E-6 -0.01002262 0.00109858 -9.6E-7 -0.00591789 -8.279E-5 6.0E-8 6.126E-5 9.7E-4 1.2E-7 4.3967E-4 -4.2933E-4 3.4E-7 9.5711E-4 0.12874475 1.869E-5 0.13350168 -0.00280498 -1.0E-6 -0.00396877 1.3579E-4 -7.0E-8 -0.00110093 0.00168821 -4.6E-7 -5.1966E-4 0.00367779 -9.0E-8 -0.00251118 -0.26578146 -8.69E-6 0.121219 -0.01843242 -3.6E-7 0.0162356 -9.1038E-4 -4.0E-8 8.0305E-4 1.65E-6 1.3E-7 2.9528E-4 4.308E-5 -4.0E-8 -1.7895E-4 7.0698E-4 4.3E-7 4.5406E-4 0.2807631 -7.2E-7 0.00635809 -1.03E-6 5.0E-8 -3.7025E-4 -1.7E-7 -8.5E-7 0.0068166 -9.1E-7 2.7E-6 0.00189806 -1.72E-6 -8.81E-6 -0.03299364 2.13E-6 -2.96E-6 0.00175301 2.04E-6 -1.3E-7 4.1285E-4 9.0E-8 4.0E-8 -6.5439E-4 2.8E-7 1.7E-7 5.4301E-4 -1.4E-7 3.0E-7 -0.00411838 4.6E-7 9.87E-6 0.02436189 -0.00304225 -8.0E-7 -8.4613E-4 -0.00104359 -8.0E-8 -0.00107486 -0.00138018 -1.12E-6 -0.00516701 0.02891962 1.33E-6 -0.01088616 0.12105758 1.73E-6 -0.1290451 -0.01505872 -4.5E-7 0.01148337 -7.2889E-4 -5.0E-8 4.0017E-4 1.3848E-4 2.0E-8 2.5782E-4 0.00131985 0.0 -6.422E-4 -4.0194E-4 4.0E-7 0.0010028 -0.13041474 -1.46E-6 0.13372624 0.00411507 1.97E-6 0.02844596 -0.00404577 -9.0E-7 0.00171953 -0.00112224 1.1E-7 2.902E-4 -0.004637 -1.12E-6 -0.00255434 0.00482488 -2.15E-6 -0.02805761 -0.05916635 -1.94E-6 -0.0038822 9.6336E-4 3.1E-7 -5.2704E-4 6.561E-5 6.3E-7 0.00167875 9.791E-5 8.0E-8 1.06E-6 1.966E-5 -1.4E-7 -0.00142581 9.1193E-4 4.4E-7 6.0406E-4 0.05831437 -1.3E-7 0.00347252 1.3E-6 -8.1E-7 0.00799596 -5.2E-7 9.0E-8 -9.4641E-4 -2.0E-8 -1.2E-6 0.00654644 -3.8E-7 -1.0E-7 0.00342003 -3.61E-6 -1.53E-6 -0.03727614 -2.436E-5 3.6E-7 -0.00447894 3.3E-7 6.0E-8 2.4596E-4 0.0 9.0E-8 -8.3207E-4 8.0E-8 0.0 1.1738E-4 -1.7E-7 3.4E-7 -0.00371243 4.2E-7 2.95E-6 0.02573438 -0.00244196 -1.33E-6 -0.01211659 0.00227424 -3.7E-7 0.00153771 1.4489E-4 1.1E-7 6.8432E-4 -0.00338389 -6.6E-7 5.3379E-4 0.00281733 -9.3E-7 -0.01106656 -0.00345332 -2.409E-5 -0.33456417 2.1788E-4 5.0E-7 8.6857E-4 2.6805E-4 -3.9E-7 -0.00123412 1.28E-6 6.0E-8 -8.23E-5 1.5957E-4 -8.0E-8 -6.8507E-4 -2.9964E-4 3.1E-7 7.6762E-4 0.00357139 2.662E-5 0.3552423 -0.00474979 -5.3E-7 -0.00104442 -0.00762742 2.082E-5 0.04258952 -0.0021232 1.96E-6 0.00286973 5.8685E-4 1.6E-7 5.3064E-4 3.8267E-4 8.0E-8 3.4545E-4 -1.4032E-4 -8.5E-7 0.00156118 2.4604E-4 3.2E-7 3.6676E-4 -0.08737506 -1.876E-5 -0.0218876 -0.00185721 6.2E-7 0.00177054 1.0141E-4 0.0 -6.632E-5 1.113E-5 -5.0E-8 2.142E-5 -3.6463E-4 -1.0E-8 1.5248E-4 0.61483674 -3.5E-6 0.00266541 1.16E-6 1.042E-5 -0.00559771 1.93E-6 -4.05E-6 -9.9758E-4 2.79E-6 6.3E-7 2.9681E-4 -2.38E-6 2.1E-7 2.962E-4 1.67E-6 -1.71E-6 0.00161593 7.3E-7 7.0E-8 -6.4329E-4 -3.3E-7 4.8E-7 -0.05875417 -8.903E-5 3.0E-8 -1.5824E-4 -1.09E-6 -3.7E-7 -3.176E-5 9.0E-8 -4.0E-8 -3.1194E-4 3.0E-8 -3.3E-7 -2.6171E-4 3.4E-7 1.217E-5 0.56258479 -9.1499E-4 -2.44E-6 0.00481753 0.02194823 -7.82E-6 -0.03010128 -0.00639255 9.3E-7 0.00624838 -2.7815E-4 -5.9E-7 -0.00245708 -0.00173762 -2.5E-7 0.00139542 3.618E-5 2.9E-7 -0.00129008 7.68E-6 -2.0E-7 -1.9649E-4 0.00952876 -7.014E-5 -0.21593156 -9.0635E-4 5.4E-7 -0.0011148 -6.6927E-4 -3.0E-8 1.7509E-4 -9.122E-5 1.0E-7 -6.707E-5 -5.514E-5 2.9E-7 3.0185E-4 1.7003E-4 -6.416E-5 0.44378005 -2.1355E-4 2.507E-4 4.4403E-4 0.00114096 -0.00144317 2.9686E-4 3.1954E-4 -2.2671E-4 -7.737E-4 -4.3793E-4 4.4718E-4 6.1145E-4 -1.2036E-4 6.008E-5 -6.7458E-4 6.2751E-4 5.507E-5 5.912E-5 -1.773E-5 -7.32E-6 -1.074E-5 0.00346939 -0.00381656 -0.00107564 -9.6204E-4 -0.00107609 6.7591E-4 3.791E-5 -4.125E-5 8.79E-6 1.2E-6 -8.813E-5 -1.582E-5 1.821E-5 -1.753E-5 -2.503E-5 -0.09984275 0.09190694 -0.03761434 0.10080968 -4.368E-4 -2.225E-4 3.2244E-4 0.00193041 6.6448E-4 -9.0815E-4 4.166E-4 1.868E-5 0.00111415 -2.1227E-4 -4.011E-5 -4.6748E-4 -1.0204E-4 -5.579E-5 3.611E-5 1.2998E-4 -1.011E-5 -1.4674E-4 -2.0E-7 -5.02E-6 -9.301E-5 -0.00365021 0.00732856 0.00536597 -4.5053E-4 -1.2836E-4 -6.3084E-4 -4.001E-5 6.35E-6 3.041E-5 -3.5E-7 2.304E-5 -6.303E-5 -2.056E-5 9.3E-6 1.239E-5 0.09046011 -0.22492694 0.07127292 -0.09981839 0.2366931 0.00100906 -5.9564E-4 -0.0015939 -0.00713504 0.00121875 0.00376415 7.6386E-4 -2.1183E-4 7.1092E-4 4.1478E-4 -2.9737E-4 -4.2517E-4 6.4785E-4 3.046E-5 4.6309E-4 -8.9347E-4 -3.3227E-4 1.9456E-4 2.182E-5 2.1776E-4 1.955E-4 -0.0113452 0.02857298 -0.03439952 6.4159E-4 6.5394E-4 1.289E-4 6.693E-5 1.605E-5 -1.697E-5 3.064E-5 7.839E-5 2.261E-5 2.398E-5 6.239E-5 -5.118E-5 -0.03438023 0.06709579 -0.07643789 0.04340963 -0.08269401 0.09668353 -6.355E-5 2.0E-7 -3.938E-5 0.00224736 1.07E-6 -9.9868E-4 -3.0573E-4 1.1E-7 -4.3641E-4 2.3691E-4 2.9E-7 1.1546E-4 -5.17E-5 0.0 1.5657E-4 -9.695E-5 -2.0E-8 6.906E-5 2.82E-6 0.0 2.094E-5 0.00109776 -6.1E-7 0.00394548 1.4208E-4 -2.7E-7 4.7488E-4 -1.425E-5 0.0 -1.667E-5 -1.282E-5 -4.0E-8 4.095E-5 -1.326E-5 -2.0E-8 2.181E-5 -0.31219431 5.932E-5 0.05451561 -0.01126577 -6.7949E-4 0.00148311 0.33156128 9.9E-7 2.3427E-4 -7.0E-7 -2.25E-6 6.2269E-4 -1.13E-6 -8.4E-7 2.9833E-4 1.3E-7 4.3E-7 2.2671E-4 -2.4E-7 1.9E-7 -6.378E-5 4.2E-7 -6.3E-7 -5.51E-6 -1.8E-7 -3.0E-8 1.844E-5 0.0 1.95E-5 3.441E-4 -1.23E-5 -2.5E-7 -4.7225E-4 5.4E-7 3.0E-8 3.431E-5 -3.0E-8 1.0E-8 -2.844E-5 2.0E-8 6.0E-8 -4.351E-5 -3.0E-8 5.361E-5 -0.05075571 -9.51E-6 0.02629114 0.00143899 -0.0055065 -6.579E-5 0.04669726 0.00187935 -6.0E-8 -5.1033E-4 -0.00251744 -6.34E-6 -0.00485879 -9.2382E-4 2.4E-7 -8.2633E-4 3.88E-4 1.3E-7 2.98E-4 5.315E-5 -7.0E-8 1.4486E-4 -4.4826E-4 3.4E-7 -4.2914E-4 -5.703E-5 -1.9E-7 -2.468E-5 0.04203337 -1.146E-5 -0.02406805 1.235E-5 2.0E-7 7.9035E-4 6.51E-5 2.0E-8 -3.69E-5 1.685E-5 0.0 4.532E-5 1.4332E-4 4.0E-8 -8.511E-5 0.04130848 -8.71E-6 -0.05281909 -0.01057134 -0.00148551 0.00403158 -0.06083675 1.972E-5 0.07432404 -2.1342E-4 -2.5017E-4 4.4465E-4 0.00114256 0.00144593 2.9563E-4 3.1922E-4 2.2608E-4 -7.7375E-4 -4.3845E-4 -4.4706E-4 6.122E-4 -1.2056E-4 -6.015E-5 -6.7515E-4 6.2813E-4 -5.514E-5 5.905E-5 -1.776E-5 7.39E-6 -1.075E-5 0.00346689 0.00381187 -0.00107831 -9.6112E-4 0.00107689 6.7588E-4 3.793E-5 4.123E-5 8.79E-6 1.19E-6 8.812E-5 -1.584E-5 1.825E-5 1.744E-5 -2.507E-5 -0.09989014 -0.09198027 -0.03754687 0.00643572 0.01247376 0.00524071 -0.01126989 -0.02629617 -0.01054532 0.10086146 4.381E-4 -2.2202E-4 -3.2427E-4 -0.00193717 6.6477E-4 9.1128E-4 -4.155E-4 1.901E-5 -0.00111273 2.1249E-4 -3.937E-5 4.6682E-4 1.0295E-4 -5.584E-5 -3.567E-5 -1.31E-4 -9.85E-6 1.4708E-4 2.3E-7 -5.16E-6 9.319E-5 0.00363783 0.00729055 -0.0054046 4.5117E-4 -1.2958E-4 6.3113E-4 4.005E-5 6.37E-6 -3.041E-5 3.6E-7 2.29E-5 6.304E-5 2.058E-5 9.23E-6 -1.244E-5 -0.09052962 -0.2250201 -0.07111994 -0.01247597 -0.02079367 -0.00830887 6.8525E-4 0.00145411 0.00149165 0.09990025 0.23680864 0.0010076 5.9579E-4 -0.00159413 -0.00713333 -0.00121872 0.0037675 7.637E-4 2.1249E-4 7.121E-4 4.151E-4 2.9755E-4 -4.2648E-4 6.481E-4 -3.02E-5 4.6381E-4 -8.9415E-4 3.3185E-4 1.9469E-4 2.185E-5 -2.1766E-4 1.953E-4 -0.01135675 -0.02861048 -0.03436682 6.4061E-4 -6.5382E-4 1.283E-4 6.684E-5 -1.61E-5 -1.694E-5 3.063E-5 -7.839E-5 2.257E-5 2.386E-5 -6.239E-5 -5.108E-5 -0.03430766 -0.06693883 -0.07630298 0.00525541 0.00833439 0.00672979 0.00148402 0.00550979 0.00402428 0.04333417 0.08254475 0.09652007</array><array dataType="xsd:double" size="48" dictRef="x:unknown">-4.649E-5 4.9E-7 2.751E-5 4.71E-5 1.21E-6 -6.728E-5 -7.36E-6 -7.7E-7 3.878E-5 3.195E-5 1.01E-6 -2.111E-5 2.652E-5 -7.2E-7 1.23E-6 -2.871E-5 1.1E-6 2.39E-6 3.09E-6 6.0E-7 -2.84E-6 -9.07E-6 -5.56E-6 2.799E-5 1.055E-5 5.0E-8 -2.411E-5 -5.85E-6 -1.1E-7 -1.513E-5 -1.691E-5 -5.0E-8 -3.68E-6 -1.043E-5 -3.2E-7 8.84E-6 -1.505E-5 3.79E-6 1.093E-5 3.92E-6 1.46E-6 5.74E-6 1.115E-5 3.6E-7 4.98E-6 5.59E-6 -2.55E-6 5.76E-6</array></module> YOU CAN WIPE THE SLATE CLEAN, BUT YOU'LL STILL HAVE TO EAT A LITTLE CHALK DUST.<module cmlx:lineCount="3" cmlx:templateRef="jobcpu"><scalar dictRef="cc:jobtime" dataType="xsd:string">PT16541.400S</scalar><scalar dataType="xsd:date" dictRef="cc:jobdatetime.end">2006-08-29T08:00:30Z</scalar><scalar dataType="xsd:string" dictRef="cc:program">Gaussian 03</scalar></module></module>
