 argument  1 = i2_zora_so.nw
                                         
                                         


              Northwest Computational Chemistry Package (NWChem) 6.0
              ------------------------------------------------------


                    Environmental Molecular Sciences Laboratory
                       Pacific Northwest National Laboratory
                                Richland, WA 99352

                              Copyright (c) 1994-2010
                       Pacific Northwest National Laboratory
                            Battelle Memorial Institute

             NWChem is an open-source computational chemistry package
                        distributed under the terms of the
                      Educational Community License (ECL) 2.0
             A copy of the license is included with this distribution
                              in the LICENSE.TXT file

                                  ACKNOWLEDGMENT
                                  --------------

            This software and its documentation were developed at the
            EMSL at Pacific Northwest National Laboratory, a multiprogram
            national laboratory, operated for the U.S. Department of Energy
            by Battelle under Contract Number DE-AC05-76RL01830. Support
            for this work was provided by the Department of Energy Office
            of Biological and Environmental Research, Office of Basic
            Energy Sciences, and the Office of Advanced Scientific Computing.


           Job information
           ---------------

    hostname      = arcen
    program       = /home/d3y133/nwchem-releases/nwchem-6.0-gfortran/bin/LINUX64/nwchem
    date          = Wed Aug 11 17:11:49 2010

    compiled      = Wed_Aug_11_17:10:46_2010
    source        = /home/d3y133/nwchem-releases/nwchem-6.0-gfortran
    nwchem branch = 6.0
    input         = i2_zora_so.nw
    prefix        = i2_zora_so.
    data base     = ./i2_zora_so.db
    status        = startup
    nproc         =        4
    time left     =     -1s



           Memory information
           ------------------

    heap     =   13107201 doubles =    100.0 Mbytes
    stack    =   13107201 doubles =    100.0 Mbytes
    global   =   26214400 doubles =    200.0 Mbytes (distinct from heap & stack)
    total    =   52428802 doubles =    400.0 Mbytes
    verify   = yes
    hardfail = no 


           Directory information
           ---------------------

  0 permanent = .
  0 scratch   = .




                                NWChem Input Module
                                -------------------


 ORDER OF PRIMARY AXIS IS BEING SET TO 4
 D4H symmetry detected


                             Geometry "geometry" -> ""
                             -------------------------

 Output coordinates in a.u. (scale by  1.000000000 to convert to a.u.)

  No.       Tag          Charge          X              Y              Z
 ---- ---------------- ---------- -------------- -------------- --------------
    1 I                   53.0000     0.00000000     0.00000000    -2.52247277
    2 I                   53.0000     0.00000000     0.00000000     2.52247277

      Atomic Mass 
      ----------- 

      I                126.900400


 Effective nuclear repulsion energy (a.u.)     556.7949104164

            Nuclear Dipole moment (a.u.) 
            ----------------------------
        X                 Y               Z
 ---------------- ---------------- ----------------
     0.0000000000     0.0000000000     0.0000000000

      Symmetry information
      --------------------

 Group name             D4h       
 Group number             28
 Group order              16
 No. of unique centers     1

      Symmetry unique atoms

     1


            XYZ format geometry
            -------------------
     2
 geometry
 I                     0.00000000     0.00000000    -1.33483520
 I                     0.00000000     0.00000000     1.33483520

 ==============================================================================
                                internuclear distances
 ------------------------------------------------------------------------------
       center one      |      center two      | atomic units |       a.u.
 ------------------------------------------------------------------------------
    2 I                |   1 I                |     5.04495  |     5.04495
 ------------------------------------------------------------------------------
                         number of included internuclear distances:          1
 ==============================================================================



  library name resolved from: .nwchemrc
  library file name is: </home/d3y133/nwchem-releases/nwchem-6.0-gfortran/QA/../src/basis/libraries/>
  


 Summary of "ao basis" -> "" (spherical)
 ------------------------------------------------------------------------------
       Tag                 Description            Shells   Functions and Types
 ---------------- ------------------------------  ------  ---------------------
 *                     DZVP (DFT Orbital)             on all atoms 


  pbe96 is a nonlocal functional; adding pw91lda local functional. 


                           NWChem Geometry Optimization
                           ----------------------------


 maximum gradient threshold         (gmax) =   0.000450
 rms gradient threshold             (grms) =   0.000300
 maximum cartesian step threshold   (xmax) =   0.001800
 rms cartesian step threshold       (xrms) =   0.001200
 fixed trust radius                (trust) =   0.300000
 maximum step size to saddle      (sadstp) =   0.100000
 energy precision                  (eprec) =   1.0D-07
 maximum number of steps          (nptopt) =  100
 initial hessian option           (inhess) =    0
 line search option               (linopt) =    1
 hessian update option            (modupd) =    1
 saddle point option              (modsad) =    0
 initial eigen-mode to follow     (moddir) =    0
 initial variable to follow       (vardir) =    0
 follow first negative mode     (firstneg) =    T
 apply conjugacy                    (opcg) =    F
 source of zmatrix                         =           


          -------------------
          Energy Minimization
          -------------------


 Using diagonal initial Hessian 

          --------
          Step   0
          --------


                         Geometry "geometry" -> "geometry"
                         ---------------------------------

 Output coordinates in a.u. (scale by  1.000000000 to convert to a.u.)

  No.       Tag          Charge          X              Y              Z
 ---- ---------------- ---------- -------------- -------------- --------------
    1 I                   53.0000     0.00000000     0.00000000    -2.52247277
    2 I                   53.0000     0.00000000     0.00000000     2.52247277

      Atomic Mass 
      ----------- 

      I                126.900400


 Effective nuclear repulsion energy (a.u.)     556.7949104164

            Nuclear Dipole moment (a.u.) 
            ----------------------------
        X                 Y               Z
 ---------------- ---------------- ----------------
     0.0000000000     0.0000000000     0.0000000000

      Symmetry information
      --------------------

 Group name             D4h       
 Group number             28
 Group order              16
 No. of unique centers     1

      Symmetry unique atoms

     1


                                 NWChem DFT Module
                                 -----------------


                      Basis "ao basis" -> "ao basis" (spherical)
                      -----
  I (Iodine)
  ----------
            Exponent  Coefficients 
       -------------- ---------------------------------------------------------
  1 S  2.74845460E+05 -0.001621
  1 S  4.12331880E+04 -0.012398
  1 S  9.36673330E+03 -0.062201
  1 S  2.63840810E+03 -0.216294
  1 S  8.58774400E+02 -0.462395
  1 S  2.96302520E+02 -0.384842

  2 S  5.61837220E+02  0.114228
  2 S  6.90401460E+01 -0.632291
  2 S  2.99806350E+01 -0.442018

  3 S  5.48696840E+01 -0.270799
  3 S  9.99545850E+00  0.842647
  3 S  4.58886780E+00  0.309166

  4 S  9.12082560E+00 -0.341022
  4 S  2.11967870E+00  0.810065
  4 S  9.70892500E-01  0.396754

  5 S  1.58799650E+00  0.262971
  5 S  2.95335600E-01 -0.751041

  6 S  1.16401600E-01  1.000000

  7 P  4.08945540E+03 -0.007237
  7 P  9.67033590E+02 -0.055839
  7 P  3.09442130E+02 -0.234024
  7 P  1.12458860E+02 -0.504702
  7 P  4.31185900E+01 -0.365963

  8 P  1.64646200E+02 -0.025233
  8 P  2.07365830E+01  0.494419
  8 P  8.15583040E+00  0.574146

  9 P  3.71048720E+00  0.429996
  9 P  1.62499900E+00  0.526237
  9 P  7.14621600E-01  0.123406

 10 P  4.62819300E-01  0.353725
 10 P  1.86431200E-01  0.535583

 11 P  7.14835000E-02  1.000000

 12 D  4.17503240E+02 -0.012725
 12 D  1.23614830E+02 -0.091521
 12 D  4.57790390E+01 -0.307099
 12 D  1.83916630E+01 -0.499640
 12 D  7.42179320E+00 -0.308307

 13 D  6.27385860E+00 -0.259301
 13 D  2.35941460E+00 -0.565077
 13 D  8.37796600E-01 -0.352369

 14 D  2.44000000E-01  1.000000



 Summary of "ao basis" -> "ao basis" (spherical)
 ------------------------------------------------------------------------------
       Tag                 Description            Shells   Functions and Types
 ---------------- ------------------------------  ------  ---------------------
 I                     DZVP (DFT Orbital)           14       36   6s5p3d


  WARNING: CD fitting not compatible with spinorbit
  WARNING: disabling CD fitting
  Caching 1-el integrals 

            General Information
            -------------------
          SCF calculation type: DFT
          Wavefunction type:  spin polarized.
          No. of atoms     :     2
          No. of electrons :   106
           Alpha electrons :    53
            Beta electrons :    53
          Charge           :     0
          Spin multiplicity:     1
          Use of symmetry is: off; symmetry adaption is: off
          Maximum number of iterations: 100
          AO basis - number of functions:    72
                     number of shells:    28
          Convergence on energy requested: 1.00D-06
          Convergence on density requested: 1.00D-05
          Convergence on gradient requested: 5.00D-04

              XC Information
              --------------
          PerdewBurkeErnzerhof Exchange Functional  1.000          
            Perdew 1991 LDA Correlation Functional  1.000 local    
           PerdewBurkeErnz. Correlation Functional  1.000 non-local

             Grid Information
             ----------------
          Grid used for XC integration:  xfine     
          Radial quadrature: Mura-Knowles        
          Angular quadrature: Lebedev. 
          Tag              B.-S. Rad. Rad. Pts. Rad. Cut. Ang. Pts.
          ---              ---------- --------- --------- ---------
          I                   1.40      205          11.0      1454
          Grid pruning is: on 
          Number of quadrature shells:   410
          Spatial weights used:  Erf1

          Convergence Information
          -----------------------
          Convergence aids based upon iterative change in 
          total energy or number of iterations. 
          Levelshifting, if invoked, occurs when the 
          HOMO/LUMO gap drops below (HL_TOL): 1.00D-02
          DIIS, if invoked, will attempt to extrapolate 
          using up to (NFOCK): 10 stored Fock matrices.

                    Damping( 0%)  Levelshifting(0.5)       DIIS
                  --------------- ------------------- ---------------
          dE  on:    start            ASAP                start   
          dE off:    2 iters        100 iters           100 iters 


      Screening Tolerance Information
      -------------------------------
          Density screening/tol_rho: 1.00D-10
          AO Gaussian exp screening on grid/accAOfunc:  14
          CD Gaussian exp screening on grid/accCDfunc:  20
          XC Gaussian exp screening on grid/accXCfunc:  20
          Schwarz screening/accCoul: 1.00D-10


 ===============================
  Performing SODFT calculations 
 ===============================


 Performing ZORA calculations


      Superposition of Atomic Density Guess
      -------------------------------------

 Sum of atomic energies:      -13834.25739884

      Non-variational initial energy
      ------------------------------

 Total energy =  -13834.397144
 1-e energy   =  -20126.740296
 2-e energy   =    5735.548241
 HOMO         =      -0.294731
 LUMO         =      -0.123768


 Read atomic ZORA corrections from ./i2_zora_so.zora_so

 dft_zora_read_so: failed to open ./i2_zora_so.zora_so

 Grid_pts file          = ./i2_zora_so.gridpts.0
 Record size in doubles =  12289        No. of grid_pts per rec  =   3070
 Max. records in memory =     55        Max. recs in file   =    140396

 WARNING: error on integrated density =  0.22D-06
 greater than required accuracy of  0.10D-07
 WARNING: error on integrated density =  0.22D-06
 greater than required accuracy of  0.10D-07
 WARNING: error on integrated density =  0.22D-06
 greater than required accuracy of  0.10D-07
 WARNING: error on integrated density =  0.22D-06
 greater than required accuracy of  0.10D-07
 WARNING: error on integrated density =  0.22D-06
 greater than required accuracy of  0.10D-07
 WARNING: error on integrated density =  0.22D-06
 greater than required accuracy of  0.10D-07
 WARNING: error on integrated density =  0.22D-06
 greater than required accuracy of  0.10D-07
 WARNING: error on integrated density =  0.22D-06
 greater than required accuracy of  0.10D-07

 Wrote atomic ZORA corrections to ./i2_zora_so.zora_so

   Time prior to 1st pass:     56.6

 Integral file          = ./i2_zora_so.aoints.0
 Record size in doubles =  65536        No. of integs per rec  =  43688
 Max. records in memory =      4        Max. records in file   =  26322
 No. of bits per label  =      8        No. of bits per value  =     64


 #quartets = 6.318D+04 #integrals = 4.908D+05 #direct =  0.0% #cached =100.0%


File balance: exchanges=     0  moved=     0  time=   0.0

 WARNING: error on integrated density =  0.22D-06
 greater than required accuracy of  0.10D-07

           Memory utilization after 1st SCF pass: 
           Heap Space remaining (MW):       12.16            12162278
          Stack Space remaining (MW):       13.06            13063536

   convergence    iter        energy       DeltaE   RMS-Dens  Diis-err    time
 ---------------- ----- ----------------- --------- --------- ---------  ------
 d= 0,ls=0.0,diis     1 -14340.9153541759 -1.49D+04  1.74D-02  5.97D+01    60.2
                                                     1.74D-02  5.97D+01
 WARNING: error on integrated density =  0.22D-06
 greater than required accuracy of  0.10D-07
 d= 0,ls=0.0,diis     2 -14341.0327496904 -1.17D-01  1.18D-02  1.07D-01    61.9
                                                     1.18D-02  1.07D-01
 WARNING: error on integrated density =  0.22D-06
 greater than required accuracy of  0.10D-07
 d= 0,ls=0.0,diis     3 -14341.0128187278  1.99D-02  5.79D-03  1.55D-01    63.6
                                                     5.79D-03  1.55D-01
 WARNING: error on integrated density =  0.22D-06
 greater than required accuracy of  0.10D-07
 d= 0,ls=0.0,diis     4 -14341.0749185387 -6.21D-02  5.66D-04  1.16D-03    65.3
                                                     5.66D-04  1.16D-03
 WARNING: error on integrated density =  0.22D-06
 greater than required accuracy of  0.10D-07
 d= 0,ls=0.0,diis     5 -14341.0753556187 -4.37D-04  6.43D-05  8.10D-06    67.0
                                                     6.43D-05  8.10D-06
 WARNING: error on integrated density =  0.11D-07
 greater than required accuracy of  0.10D-07
 d= 0,ls=0.0,diis     6 -14341.0753340224  2.16D-05  6.08D-06  2.99D-06    68.7
                                                     6.08D-06  2.99D-06
 WARNING: error on integrated density =  0.11D-07
 greater than required accuracy of  0.10D-07
 d= 0,ls=0.0,diis     7 -14341.0753340454 -2.30D-08  4.79D-07  2.94D-06    70.4
                                                     4.79D-07  2.94D-06
 WARNING: error on integrated density =  0.11D-07
 greater than required accuracy of  0.10D-07


         Total DFT energy = -14341.075334045237
      One electron energy = -20641.248329948237
           Coulomb energy =   6095.415681653818
    Exchange-Corr. energy =   -352.037596167235
 Nuclear repulsion energy =    556.794910416416

       Scaling correction =    183.158721952951

 Numeric. integr. density =    106.000001206686

     Total iterative time =     16.0s



                       DFT Final Molecular Orbital Analysis
                       ------------------------------------

 Vector   93  Occ=1.000000D+00  E=-6.798164D-01
              MO Center= -3.3D-10,  4.4D-08,  2.7D-08, r^2= 5.1D-03
  Bfn.     Coefficient        Function     Bfn.     Coefficient        Function
  ---- -------------------  ------------     ---- -------------------  ------------
   113   0.000000-0.518965  2 I  s                 77   0.000000-0.518940  1 I  s          
   112   0.000000-0.372878  2 I  s                 76   0.000000-0.372861  1 I  s          
   114   0.000000 0.219132  2 I  s                 78   0.000000 0.219124  1 I  s          
   111   0.000000 0.170836  2 I  s                 75   0.000000 0.170829  1 I  s          

 Vector   94  Occ=1.000000D+00  E=-6.798164D-01
              MO Center= -9.9D-08,  4.9D-07,  2.5D-05, r^2= 1.1D+00
  Bfn.     Coefficient        Function     Bfn.     Coefficient        Function
  ---- -------------------  ------------     ---- -------------------  ------------
    41  -0.366970-0.366957  2 I  s                  5  -0.366953-0.366940  1 I  s          
    40  -0.263669-0.263660  2 I  s                  4  -0.263657-0.263648  1 I  s          
    42   0.154953 0.154948  2 I  s                  6   0.154946 0.154940  1 I  s          
    39   0.120802 0.120798  2 I  s                  3   0.120796 0.120792  1 I  s          

 Vector   95  Occ=1.000000D+00  E=-5.922942D-01
              MO Center= -3.7D-08,  3.2D-07, -2.9D-06, r^2= 3.5D-01
  Bfn.     Coefficient        Function     Bfn.     Coefficient        Function
  ---- -------------------  ------------     ---- -------------------  ------------
    77  -0.000001 0.528894  1 I  s                113   0.000001-0.528877  2 I  s          
    76  -0.000001 0.360218  1 I  s                112   0.000001-0.360205  2 I  s          
     5   0.189162 0.189163  1 I  s                 41  -0.189157-0.189158  2 I  s          
    78   0.000000-0.212193  1 I  s                114   0.000000 0.212185  2 I  s          
     4   0.128834 0.128834  1 I  s                 40  -0.128830-0.128830  2 I  s          

 Vector   96  Occ=1.000000D+00  E=-5.922942D-01
              MO Center= -1.5D-07,  2.9D-07, -1.6D-05, r^2= 1.4D+00
  Bfn.     Coefficient        Function     Bfn.     Coefficient        Function
  ---- -------------------  ------------     ---- -------------------  ------------
     5   0.373988 0.373981  1 I  s                 41  -0.373976-0.373970  2 I  s          
     4   0.254714 0.254710  1 I  s                 40  -0.254705-0.254701  2 I  s          
    77  -0.000002-0.267516  1 I  s                113   0.000002 0.267509  2 I  s          
     6  -0.150045-0.150042  1 I  s                 42   0.150039 0.150036  2 I  s          
    76  -0.000002-0.182199  1 I  s                112   0.000002 0.182193  2 I  s          

 Vector   97  Occ=1.000000D+00  E=-3.585529D-01
              MO Center= -3.4D-08,  7.7D-07,  5.6D-06, r^2= 1.4D+00
  Bfn.     Coefficient        Function     Bfn.     Coefficient        Function
  ---- -------------------  ------------     ---- -------------------  ------------
    54   0.382160 0.382145  2 I  pz                18  -0.382150-0.382135  1 I  pz         
   126   0.000007 0.345971  2 I  pz                90  -0.000007-0.345965  1 I  pz         
    51  -0.212934-0.212926  2 I  pz                15   0.212930 0.212921  1 I  pz         
   123  -0.000004-0.192771  2 I  pz                87   0.000004 0.192768  1 I  pz         

 Vector   98  Occ=1.000000D+00  E=-3.585529D-01
              MO Center= -6.5D-08, -5.8D-07, -1.6D-07, r^2= 5.7D-01
  Bfn.     Coefficient        Function     Bfn.     Coefficient        Function
  ---- -------------------  ------------     ---- -------------------  ------------
   126   0.000002 0.540445  2 I  pz                90  -0.000002-0.540432  1 I  pz         
    54  -0.244640-0.244638  2 I  pz                18   0.244635 0.244633  1 I  pz         
   123  -0.000001-0.301128  2 I  pz                87   0.000001 0.301122  1 I  pz         
    51   0.136310 0.136309  2 I  pz                15  -0.136308-0.136307  1 I  pz         

 Vector   99  Occ=1.000000D+00  E=-2.973370D-01
              MO Center= -1.1D-07, -1.7D-06,  3.0D-05, r^2= 1.2D+00
  Bfn.     Coefficient        Function     Bfn.     Coefficient        Function
  ---- -------------------  ------------     ---- -------------------  ------------
    53  -0.385468-0.000001  2 I  py                52  -0.000003-0.385468  2 I  px         
    17  -0.385440-0.000001  1 I  py                16  -0.000003-0.385440  1 I  px         
   124  -0.174253-0.174252  2 I  px               125   0.174253-0.174252  2 I  py         
    88  -0.174243-0.174242  1 I  px                89   0.174243-0.174243  1 I  py         
    50   0.207712 0.000001  2 I  py                49   0.000002 0.207712  2 I  px         

 Vector  100  Occ=1.000000D+00  E=-2.973369D-01
              MO Center= -3.3D-08,  7.0D-07,  1.1D-05, r^2= 4.9D-01
  Bfn.     Coefficient        Function     Bfn.     Coefficient        Function
  ---- -------------------  ------------     ---- -------------------  ------------
   125   0.272564-0.272566  2 I  py               124  -0.272563-0.272566  2 I  px         
    89   0.272549-0.272551  1 I  py                88  -0.272548-0.272551  1 I  px         
    52  -0.000001 0.246433  2 I  px                53   0.246433-0.000001  2 I  py         
    16  -0.000001 0.246414  1 I  px                17   0.246414-0.000001  1 I  py         
   122  -0.146873 0.146874  2 I  py               121   0.146873 0.146874  2 I  px         

 Vector  101  Occ=1.000000D+00  E=-2.821906D-01
              MO Center=  7.8D-08, -9.9D-09,  1.1D-06, r^2= 6.5D-02
  Bfn.     Coefficient        Function     Bfn.     Coefficient        Function
  ---- -------------------  ------------     ---- -------------------  ------------
   124   0.306132-0.306133  2 I  px               125  -0.306134-0.306131  2 I  py         
    88   0.306116-0.306117  1 I  px                89  -0.306118-0.306114  1 I  py         
   121  -0.171784 0.171785  2 I  px               122   0.171786 0.171784  2 I  py         
    85  -0.171776 0.171776  1 I  px                86   0.171777 0.171775  1 I  py         

 Vector  102  Occ=1.000000D+00  E=-2.821906D-01
              MO Center=  7.3D-07,  2.2D-07,  2.8D-05, r^2= 1.6D+00
  Bfn.     Coefficient        Function     Bfn.     Coefficient        Function
  ---- -------------------  ------------     ---- -------------------  ------------
    52   0.432936-0.000001  2 I  px                53  -0.000001 0.432936  2 I  py         
    16   0.432914-0.000001  1 I  px                17  -0.000001 0.432914  1 I  py         
    49  -0.242940 0.000000  2 I  px                50   0.000000-0.242940  2 I  py         
    13  -0.242928 0.000001  1 I  px                14   0.000001-0.242928  1 I  py         

 Vector  103  Occ=1.000000D+00  E=-2.376609D-01
              MO Center= -6.6D-08, -5.4D-07, -2.5D-05, r^2= 1.2D+00
  Bfn.     Coefficient        Function     Bfn.     Coefficient        Function
  ---- -------------------  ------------     ---- -------------------  ------------
    17   0.393875-0.000001  1 I  py                16  -0.000001 0.393875  1 I  px         
    53  -0.393852 0.000001  2 I  py                52   0.000001-0.393852  2 I  px         
    88  -0.216699-0.216702  1 I  px                89   0.216699-0.216702  1 I  py         
   124   0.216689 0.216692  2 I  px               125  -0.216688 0.216692  2 I  py         
    14  -0.209104 0.000001  1 I  py                13   0.000000-0.209104  1 I  px         

 Vector  104  Occ=1.000000D+00  E=-2.376608D-01
              MO Center= -1.0D-07, -4.6D-07, -1.4D-05, r^2= 7.5D-01
  Bfn.     Coefficient        Function     Bfn.     Coefficient        Function
  ---- -------------------  ------------     ---- -------------------  ------------
    89   0.278511-0.278509  1 I  py                88  -0.278511-0.278509  1 I  px         
   125  -0.278498 0.278496  2 I  py               124   0.278498 0.278496  2 I  px         
    16  -0.000002-0.306462  1 I  px                17  -0.306462-0.000002  1 I  py         
    52   0.000002 0.306444  2 I  px                53   0.306444 0.000001  2 I  py         
    86  -0.147858 0.147857  1 I  py                85   0.147858 0.147857  1 I  px         

 Vector  105  Occ=1.000000D+00  E=-2.224450D-01
              MO Center= -2.8D-08,  8.9D-08, -3.6D-06, r^2= 2.8D-01
  Bfn.     Coefficient        Function     Bfn.     Coefficient        Function
  ---- -------------------  ------------     ---- -------------------  ------------
    88  -0.317657 0.317657  1 I  px                89   0.317659 0.317655  1 I  py         
   124   0.317646-0.317646  2 I  px               125  -0.317648-0.317644  2 I  py         
    85   0.174733-0.174733  1 I  px                86  -0.174734-0.174732  1 I  py         
   121  -0.174726 0.174727  2 I  px               122   0.174727 0.174725  2 I  py         
    17   0.000002 0.181096  1 I  py                16   0.181096 0.000002  1 I  px         

 Vector  106  Occ=1.000000D+00  E=-2.224450D-01
              MO Center=  7.3D-07,  7.9D-08, -2.3D-05, r^2= 1.7D+00
  Bfn.     Coefficient        Function     Bfn.     Coefficient        Function
  ---- -------------------  ------------     ---- -------------------  ------------
    16  -0.449235 0.000002  1 I  px                17   0.000002-0.449235  1 I  py         
    52   0.449219-0.000002  2 I  px                53  -0.000002 0.449219  2 I  py         
    13   0.247110-0.000001  1 I  px                14  -0.000001 0.247110  1 I  py         
    49  -0.247101 0.000001  2 I  px                50   0.000001-0.247101  2 I  py         
    89   0.128054 0.128055  1 I  py                88  -0.128053 0.128056  1 I  px         

 Vector  107  Occ=0.000000D+00  E=-1.661039D-01
              MO Center= -3.2D-07, -1.0D-06, -9.3D-06, r^2= 1.7D+00
  Bfn.     Coefficient        Function     Bfn.     Coefficient        Function
  ---- -------------------  ------------     ---- -------------------  ------------
    18   0.456345 0.456357  1 I  pz                54   0.456338 0.456351  2 I  pz         
    90   0.000005-0.377129  1 I  pz               126   0.000005-0.377124  2 I  pz         
    15  -0.236188-0.236194  1 I  pz                51  -0.236183-0.236190  2 I  pz         
    21   0.188098 0.188103  1 I  pz                57   0.188095 0.188101  2 I  pz         
    87  -0.000003 0.195188  1 I  pz               123  -0.000003 0.195186  2 I  pz         

 Vector  108  Occ=0.000000D+00  E=-1.661039D-01
              MO Center= -4.9D-08,  1.3D-06,  5.9D-07, r^2= 6.0D-01
  Bfn.     Coefficient        Function     Bfn.     Coefficient        Function
  ---- -------------------  ------------     ---- -------------------  ------------
    90  -0.000024 0.645379  1 I  pz               126  -0.000024 0.645368  2 I  pz         
    18   0.266660 0.266680  1 I  pz                54   0.266658 0.266677  2 I  pz         
    87   0.000012-0.334024  1 I  pz               123   0.000012-0.334019  2 I  pz         
   129  -0.000010 0.266014  2 I  pz                93  -0.000010 0.266011  1 I  pz         
    15  -0.138014-0.138024  1 I  pz                51  -0.138012-0.138022  2 I  pz         

 Vector  109  Occ=0.000000D+00  E= 1.097846D-01
              MO Center=  3.3D-07, -4.2D-06,  5.5D-05, r^2= 9.5D-01
  Bfn.     Coefficient        Function     Bfn.     Coefficient        Function
  ---- -------------------  ------------     ---- -------------------  ------------
   129   0.000041-0.641645  2 I  pz                93  -0.000041 0.641178  1 I  pz         
   126  -0.000029 0.456473  2 I  pz                90   0.000029-0.456222  1 I  pz         
    57   0.273765 0.273800  2 I  pz                21  -0.273648-0.273683  1 I  pz         
   106   0.000020-0.310532  1 I  d  0             142   0.000020-0.310487  2 I  d  0       
    54  -0.194768-0.194793  2 I  pz                18   0.194702 0.194727  1 I  pz         

 Vector  110  Occ=0.000000D+00  E= 1.097846D-01
              MO Center= -7.7D-07, -2.2D-07,  2.6D-04, r^2= 2.6D+00
  Bfn.     Coefficient        Function     Bfn.     Coefficient        Function
  ---- -------------------  ------------     ---- -------------------  ------------
    57  -0.453210-0.454247  2 I  pz                21   0.452845 0.453882  1 I  pz         
    54   0.322416 0.323154  2 I  pz                18  -0.322219-0.322956  1 I  pz         
   129   0.000443-0.387169  2 I  pz                93  -0.000442 0.387039  1 I  pz         
    34  -0.219330-0.219832  1 I  d  0              70  -0.219295-0.219797  2 I  d  0       
   126  -0.000315 0.275451  2 I  pz                90   0.000315-0.275377  1 I  pz         

 Vector  111  Occ=0.000000D+00  E= 1.129434D-01
              MO Center= -1.7D-06,  1.9D-05, -1.3D-04, r^2= 3.2D+00
  Bfn.     Coefficient        Function     Bfn.     Coefficient        Function
  ---- -------------------  ------------     ---- -------------------  ------------
    21  -0.704931-0.704911  1 I  pz                57  -0.704814-0.704794  2 I  pz         
    93  -0.000012-0.891777  1 I  pz               129  -0.000012-0.891558  2 I  pz         
    18   0.373882 0.373871  1 I  pz                54   0.373798 0.373788  2 I  pz         
    90   0.000007 0.472988  1 I  pz               126   0.000007 0.472832  2 I  pz         
     6  -0.277652-0.277644  1 I  s                 42   0.277648 0.277641  2 I  s          

 Vector  112  Occ=0.000000D+00  E= 1.129436D-01
              MO Center= -6.6D-07, -1.4D-05, -1.8D-04, r^2= 2.6D+00
  Bfn.     Coefficient        Function     Bfn.     Coefficient        Function
  ---- -------------------  ------------     ---- -------------------  ------------
    93   0.000028-0.996896  1 I  pz               129   0.000028-0.996757  2 I  pz         
    21   0.630573 0.630609  1 I  pz                57   0.630399 0.630435  2 I  pz         
    90  -0.000015 0.528732  1 I  pz               126  -0.000015 0.528633  2 I  pz         
    18  -0.334450-0.334470  1 I  pz                54  -0.334326-0.334345  2 I  pz         
    78   0.000011-0.392654  1 I  s                114  -0.000011 0.392649  2 I  s          

 Vector  113  Occ=0.000000D+00  E= 1.490598D-01
              MO Center=  5.5D-08, -6.3D-07,  5.7D-05, r^2= 3.2D+00
  Bfn.     Coefficient        Function     Bfn.     Coefficient        Function
  ---- -------------------  ------------     ---- -------------------  ------------
    53   0.556008-0.000018  2 I  py                52  -0.000006 0.556008  2 I  px         
    17   0.555963-0.000016  1 I  py                16  -0.000005 0.555963  1 I  px         
    56  -0.545193 0.000018  2 I  py                55   0.000007-0.545193  2 I  px         
    20  -0.545125 0.000016  1 I  py                19   0.000005-0.545125  1 I  px         
   129  -0.000002-0.218136  2 I  pz                93  -0.000002-0.218117  1 I  pz         

 Vector  114  Occ=0.000000D+00  E= 1.490598D-01
              MO Center=  2.8D-09, -5.6D-07,  5.0D-06, r^2= 5.0D-01
  Bfn.     Coefficient        Function     Bfn.     Coefficient        Function
  ---- -------------------  ------------     ---- -------------------  ------------
   125   0.393217-0.393074  2 I  py               124  -0.393091-0.393200  2 I  px         
    89   0.393206-0.393065  1 I  py                88  -0.393080-0.393191  1 I  px         
   128  -0.385562 0.385421  2 I  py               127   0.385439 0.385545  2 I  px         
    92  -0.385549 0.385411  1 I  py                91   0.385425 0.385534  1 I  px         
    21  -0.154217-0.154267  1 I  pz                57  -0.154214-0.154264  2 I  pz         

 Vector  115  Occ=0.000000D+00  E= 1.577150D-01
              MO Center= -1.4D-06, -1.3D-07,  1.7D-05, r^2= 9.6D-01
  Bfn.     Coefficient        Function     Bfn.     Coefficient        Function
  ---- -------------------  ------------     ---- -------------------  ------------
   124  -0.356466 0.356475  2 I  px               125   0.356467 0.356474  2 I  py         
    88  -0.356435 0.356447  1 I  px                89   0.356436 0.356446  1 I  py         
   127   0.350338-0.350346  2 I  px               128  -0.350339-0.350345  2 I  py         
    91   0.350294-0.350305  1 I  px                92  -0.350295-0.350305  1 I  py         
    53   0.000010 0.302511  2 I  py                52   0.302511 0.000010  2 I  px         

 Vector  116  Occ=0.000000D+00  E= 1.577150D-01
              MO Center= -5.0D-06,  1.2D-07,  4.7D-05, r^2= 2.7D+00
  Bfn.     Coefficient        Function     Bfn.     Coefficient        Function
  ---- -------------------  ------------     ---- -------------------  ------------
    52  -0.504125-0.000006  2 I  px                53  -0.000006-0.504125  2 I  py         
    16  -0.504083-0.000008  1 I  px                17  -0.000008-0.504083  1 I  py         
    55   0.495458 0.000005  2 I  px                56   0.000005 0.495458  2 I  py         
    19   0.495399 0.000008  1 I  px                20   0.000008 0.495399  1 I  py         
   125   0.213900 0.213915  2 I  py               124  -0.213900 0.213915  2 I  px         

 Vector  117  Occ=0.000000D+00  E= 1.680328D-01
              MO Center= -3.3D-09,  5.1D-07,  9.7D-06, r^2= 5.0D-01
  Bfn.     Coefficient        Function     Bfn.     Coefficient        Function
  ---- -------------------  ------------     ---- -------------------  ------------
   141   0.288176-0.288171  2 I  d -1             143   0.288172 0.288176  2 I  d  1       
   105  -0.288161 0.288158  1 I  d -1             107  -0.288156-0.288163  1 I  d  1       
    71  -0.000021 0.237884  2 I  d  1              69  -0.237884 0.000017  2 I  d -1       
    35   0.000022-0.237875  1 I  d  1              33   0.237875-0.000018  1 I  d -1       

 Vector  118  Occ=0.000000D+00  E= 1.680328D-01
              MO Center=  7.2D-08, -9.7D-07,  3.8D-05, r^2= 1.5D+00
  Bfn.     Coefficient        Function     Bfn.     Coefficient        Function
  ---- -------------------  ------------     ---- -------------------  ------------
    69   0.407538-0.000013  2 I  d -1              71  -0.000007-0.407538  2 I  d  1       
    33  -0.407520 0.000011  1 I  d -1              35   0.000009 0.407520  1 I  d  1       
   143   0.168231 0.168189  2 I  d  1             141   0.168223-0.168197  2 I  d -1       
   107  -0.168224-0.168182  1 I  d  1             105  -0.168216 0.168190  1 I  d -1       

 Vector  119  Occ=0.000000D+00  E= 1.703933D-01
              MO Center= -2.2D-07, -2.3D-08,  3.0D-06, r^2= 8.1D-01
  Bfn.     Coefficient        Function     Bfn.     Coefficient        Function
  ---- -------------------  ------------     ---- -------------------  ------------
   143   0.250351-0.250375  2 I  d  1             141   0.250351 0.250375  2 I  d -1       
   107  -0.250345 0.250377  1 I  d  1             105  -0.250344-0.250377  1 I  d -1       
    69  -0.000005 0.297685  2 I  d -1              71  -0.297685 0.000005  2 I  d  1       
    33   0.000014-0.297679  1 I  d -1              35   0.297679-0.000014  1 I  d  1       

 Vector  120  Occ=0.000000D+00  E= 1.703933D-01
              MO Center=  2.2D-07, -8.8D-08, -3.8D-07, r^2= 1.1D+00
  Bfn.     Coefficient        Function     Bfn.     Coefficient        Function
  ---- -------------------  ------------     ---- -------------------  ------------
    71   0.354067 0.000020  2 I  d  1              69  -0.000020-0.354067  2 I  d -1       
    35  -0.354064-0.000027  1 I  d  1              33   0.000027 0.354064  1 I  d -1       
   141   0.210495 0.210495  2 I  d -1             143   0.210495-0.210495  2 I  d  1       
   105  -0.210498-0.210485  1 I  d -1             107  -0.210498 0.210485  1 I  d  1       

 Vector  121  Occ=0.000000D+00  E= 1.736059D-01
              MO Center=  1.1D-07, -2.2D-05, -6.2D-05, r^2= 2.7D+00
  Bfn.     Coefficient        Function     Bfn.     Coefficient        Function
  ---- -------------------  ------------     ---- -------------------  ------------
    20   0.646506-0.000025  1 I  py                19   0.000004 0.646506  1 I  px         
    56  -0.646472 0.000027  2 I  py                55  -0.000002-0.646471  2 I  px         
    91   0.357368 0.357329  1 I  px                92  -0.357352 0.357345  1 I  py         
   127  -0.357355-0.357321  2 I  px               128   0.357338-0.357337  2 I  py         
    17  -0.459188 0.000014  1 I  py                16  -0.000007-0.459188  1 I  px         

 Vector  122  Occ=0.000000D+00  E= 1.736059D-01
              MO Center=  3.5D-07,  2.3D-05, -3.6D-05, r^2= 1.6D+00
  Bfn.     Coefficient        Function     Bfn.     Coefficient        Function
  ---- -------------------  ------------     ---- -------------------  ------------
    92  -0.449894 0.464279  1 I  py                91   0.464294 0.449879  1 I  px         
   128   0.449882-0.464265  2 I  py               127  -0.464281-0.449865  2 I  px         
    19  -0.007944-0.505311  1 I  px                20  -0.505310 0.007976  1 I  py         
    55   0.007947 0.505283  2 I  px                56   0.505283-0.007971  2 I  py         
    89   0.319537-0.329759  1 I  py                88  -0.329765-0.319532  1 I  px         

 Vector  123  Occ=0.000000D+00  E= 1.829466D-01
              MO Center=  8.6D-07,  1.6D-08, -2.5D-05, r^2= 1.6D+00
  Bfn.     Coefficient        Function     Bfn.     Coefficient        Function
  ---- -------------------  ------------     ---- -------------------  ------------
    91  -0.456876 0.456897  1 I  px                92   0.456875 0.456898  1 I  py         
   127   0.456847-0.456869  2 I  px               128  -0.456846-0.456870  2 I  py         
    20  -0.000007-0.502424  1 I  py                19  -0.502424-0.000007  1 I  px         
    56   0.000007 0.502394  2 I  py                55   0.502394 0.000007  2 I  px         
    88   0.334524-0.334540  1 I  px                89  -0.334523-0.334541  1 I  py         

 Vector  124  Occ=0.000000D+00  E= 1.829466D-01
              MO Center=  5.7D-07, -8.8D-08, -3.6D-05, r^2= 2.7D+00
  Bfn.     Coefficient        Function     Bfn.     Coefficient        Function
  ---- -------------------  ------------     ---- -------------------  ------------
    19  -0.646135-0.000016  1 I  px                20  -0.000016-0.646135  1 I  py         
    55   0.646095 0.000017  2 I  px                56   0.000017 0.646095  2 I  py         
    92  -0.355261-0.355273  1 I  py                91   0.355262-0.355272  1 I  px         
   128   0.355240 0.355252  2 I  py               127  -0.355241 0.355251  2 I  px         
    16   0.473099 0.000012  1 I  px                17   0.000012 0.473099  1 I  py         

 Vector  125  Occ=0.000000D+00  E= 2.126292D-01
              MO Center=  2.7D-06, -3.6D-06, -3.4D-06, r^2= 1.1D+00
  Bfn.     Coefficient        Function     Bfn.     Coefficient        Function
  ---- -------------------  ------------     ---- -------------------  ------------
   114  -0.000006-1.118228  2 I  s                 78  -0.000006-1.118208  1 I  s          
   113  -0.000006-1.069102  2 I  s                 77  -0.000006-1.069101  1 I  s          
    42  -0.577213-0.577207  2 I  s                  6  -0.577189-0.577182  1 I  s          
    41  -0.551854-0.551848  2 I  s                  5  -0.551841-0.551835  1 I  s          
    93   0.000002 0.282753  1 I  pz               129  -0.000002-0.282715  2 I  pz         

 Vector  126  Occ=0.000000D+00  E= 2.126292D-01
              MO Center=  3.6D-06,  4.2D-06, -1.0D-05, r^2= 2.1D+00
  Bfn.     Coefficient        Function     Bfn.     Coefficient        Function
  ---- -------------------  ------------     ---- -------------------  ------------
    42   0.790702 0.790722  2 I  s                  6   0.790677 0.790697  1 I  s          
    41   0.755964 0.755983  2 I  s                  5   0.755954 0.755973  1 I  s          
   114   0.000010-0.816293  2 I  s                 78   0.000010-0.816269  1 I  s          
   113   0.000010-0.780430  2 I  s                 77   0.000010-0.780421  1 I  s          
    21  -0.199933-0.199938  1 I  pz                57   0.199909 0.199914  2 I  pz         

 Vector  127  Occ=0.000000D+00  E= 2.400849D-01
              MO Center=  3.9D-08,  1.1D-07,  9.9D-06, r^2= 6.5D-01
  Bfn.     Coefficient        Function     Bfn.     Coefficient        Function
  ---- -------------------  ------------     ---- -------------------  ------------
   140   0.000000 0.415683  2 I  d -2             144   0.415682 0.000000  2 I  d  2       
   104   0.000000 0.415663  1 I  d -2             108   0.415662 0.000000  1 I  d  2       
    68   0.211346 0.211346  2 I  d -2              72  -0.211342 0.211342  2 I  d  2       
    32   0.211337 0.211337  1 I  d -2              36  -0.211332 0.211332  1 I  d  2       

 Vector  128  Occ=0.000000D+00  E= 2.400849D-01
              MO Center= -1.2D-07,  1.3D-07,  1.9D-05, r^2= 1.2D+00
  Bfn.     Coefficient        Function     Bfn.     Coefficient        Function
  ---- -------------------  ------------     ---- -------------------  ------------
    72  -0.293932 0.293932  2 I  d  2              68   0.293932 0.293931  2 I  d -2       
    36  -0.293919 0.293919  1 I  d  2              32   0.293918 0.293918  1 I  d -2       
   140   0.000000-0.298888  2 I  d -2             144  -0.298884 0.000000  2 I  d  2       
   104   0.000000-0.298874  1 I  d -2             108  -0.298870 0.000000  1 I  d  2       

 Vector  129  Occ=0.000000D+00  E= 2.437942D-01
              MO Center= -2.6D-09, -1.6D-09,  2.2D-07, r^2= 1.3D-02
  Bfn.     Coefficient        Function     Bfn.     Coefficient        Function
  ---- -------------------  ------------     ---- -------------------  ------------
   144  -0.510287 0.000000  2 I  d  2             140   0.000000 0.510285  2 I  d -2       
   108  -0.510260 0.000000  1 I  d  2             104   0.000000 0.510257  1 I  d -2       
   139  -0.173276 0.000000  2 I  d  2             135   0.000000 0.173275  2 I  d -2       
   103  -0.173267 0.000000  1 I  d  2              99   0.000000 0.173266  1 I  d -2       

 Vector  130  Occ=0.000000D+00  E= 2.437942D-01
              MO Center= -3.6D-07, -2.6D-07,  3.2D-05, r^2= 1.9D+00
  Bfn.     Coefficient        Function     Bfn.     Coefficient        Function
  ---- -------------------  ------------     ---- -------------------  ------------
    72  -0.360827 0.360827  2 I  d  2              68  -0.360825-0.360825  2 I  d -2       
    36  -0.360809 0.360809  1 I  d  2              32  -0.360807-0.360807  1 I  d -2       
    67  -0.122525 0.122525  2 I  d  2              63  -0.122524-0.122524  2 I  d -2       
    31  -0.122519 0.122519  1 I  d  2              27  -0.122518-0.122518  1 I  d -2       

 Vector  131  Occ=0.000000D+00  E= 2.990663D-01
              MO Center=  1.0D-07,  2.4D-09, -9.7D-06, r^2= 6.7D-01
  Bfn.     Coefficient        Function     Bfn.     Coefficient        Function
  ---- -------------------  ------------     ---- -------------------  ------------
   104   0.000000-0.437393  1 I  d -2             108  -0.437387 0.000000  1 I  d  2       
   140   0.000000 0.437374  2 I  d -2             144   0.437368 0.000000  2 I  d  2       
    36  -0.220461 0.220461  1 I  d  2              32   0.220461 0.220461  1 I  d -2       
    72   0.220452-0.220452  2 I  d  2              68  -0.220452-0.220452  2 I  d -2       

 Vector  132  Occ=0.000000D+00  E= 2.990663D-01
              MO Center=  1.5D-07,  2.9D-07, -1.9D-05, r^2= 1.3D+00
  Bfn.     Coefficient        Function     Bfn.     Coefficient        Function
  ---- -------------------  ------------     ---- -------------------  ------------
    32  -0.309283-0.309283  1 I  d -2              36   0.309279-0.309279  1 I  d  2       
    68   0.309270 0.309270  2 I  d -2              72  -0.309267 0.309267  2 I  d  2       
   108  -0.311781 0.000000  1 I  d  2             104   0.000000-0.311778  1 I  d -2       
   144   0.311768 0.000000  2 I  d  2             140   0.000000 0.311764  2 I  d -2       

 Vector  133  Occ=0.000000D+00  E= 3.029479D-01
              MO Center=  2.0D-09, -3.3D-09, -2.5D-07, r^2= 1.5D-02
  Bfn.     Coefficient        Function     Bfn.     Coefficient        Function
  ---- -------------------  ------------     ---- -------------------  ------------
   108   0.535142 0.000000  1 I  d  2             104   0.000000-0.535139  1 I  d -2       
   144  -0.535116 0.000000  2 I  d  2             140   0.000000 0.535112  2 I  d -2       
   103   0.178465 0.000000  1 I  d  2              99   0.000000-0.178464  1 I  d -2       
   139  -0.178456 0.000000  2 I  d  2             135   0.000000 0.178455  2 I  d -2       

 Vector  134  Occ=0.000000D+00  E= 3.029479D-01
              MO Center= -1.2D-07, -4.9D-08, -3.2D-05, r^2= 2.0D+00
  Bfn.     Coefficient        Function     Bfn.     Coefficient        Function
  ---- -------------------  ------------     ---- -------------------  ------------
    36  -0.378402 0.378402  1 I  d  2              32  -0.378399-0.378399  1 I  d -2       
    72   0.378385-0.378385  2 I  d  2              68   0.378382 0.378382  2 I  d -2       
    31  -0.126194 0.126194  1 I  d  2              27  -0.126193-0.126193  1 I  d -2       
    67   0.126188-0.126188  2 I  d  2              63   0.126187 0.126187  2 I  d -2       

 Vector  135  Occ=0.000000D+00  E= 3.371141D-01
              MO Center=  1.7D-07, -8.5D-07, -2.2D-07, r^2= 1.1D+00
  Bfn.     Coefficient        Function     Bfn.     Coefficient        Function
  ---- -------------------  ------------     ---- -------------------  ------------
    78   0.000045 1.185185  1 I  s                114  -0.000045-1.185166  2 I  s          
     6  -0.811055-0.810993  1 I  s                 42   0.811034 0.810973  2 I  s          
    77   0.000034 0.902234  1 I  s                113  -0.000034-0.902206  2 I  s          
     5  -0.617426-0.617379  1 I  s                 41   0.617396 0.617349  2 I  s          
    93   0.000017 0.451281  1 I  pz               129   0.000017 0.451264  2 I  pz         

 Vector  136  Occ=0.000000D+00  E= 3.371143D-01
              MO Center=  2.3D-07,  5.0D-07, -2.8D-07, r^2= 1.2D+00
  Bfn.     Coefficient        Function     Bfn.     Coefficient        Function
  ---- -------------------  ------------     ---- -------------------  ------------
     6  -0.838019-0.838085  1 I  s                 42   0.838002 0.838068  2 I  s          
    78   0.000045-1.146956  1 I  s                114  -0.000045 1.146932  2 I  s          
     5  -0.637953-0.638003  1 I  s                 41   0.637927 0.637977  2 I  s          
    77   0.000034-0.873133  1 I  s                113  -0.000034 0.873099  2 I  s          
    21  -0.319093-0.319118  1 I  pz                57  -0.319077-0.319102  2 I  pz         

 Vector  137  Occ=0.000000D+00  E= 3.574708D-01
              MO Center=  4.5D-08, -6.7D-07, -7.1D-06, r^2= 1.9D+00
  Bfn.     Coefficient        Function     Bfn.     Coefficient        Function
  ---- -------------------  ------------     ---- -------------------  ------------
    54  -0.458634-0.458893  2 I  pz                18   0.458625 0.458884  1 I  pz         
    41  -0.420928-0.421166  2 I  s                  5  -0.420879-0.421117  1 I  s          
    57   0.411543 0.411776  2 I  pz                21  -0.411519-0.411752  1 I  pz         
    34  -0.360009-0.360213  1 I  d  0              70  -0.359990-0.360193  2 I  d  0       
    42  -0.221036-0.221161  2 I  s                  6  -0.220971-0.221096  1 I  s          

 Vector  138  Occ=0.000000D+00  E= 3.574708D-01
              MO Center=  1.9D-07,  1.1D-06, -4.0D-06, r^2= 4.0D-01
  Bfn.     Coefficient        Function     Bfn.     Coefficient        Function
  ---- -------------------  ------------     ---- -------------------  ------------
   126   0.000039-0.648785  2 I  pz                90  -0.000039 0.648780  1 I  pz         
   113   0.000036-0.595454  2 I  s                 77   0.000036-0.595379  1 I  s          
   129  -0.000035 0.582176  2 I  pz                93   0.000035-0.582138  1 I  pz         
   106   0.000031-0.509264  1 I  d  0             142   0.000031-0.509256  2 I  d  0       
   114   0.000019-0.312689  2 I  s                 78   0.000019-0.312581  1 I  s          

 Vector  139  Occ=0.000000D+00  E= 4.195632D-01
              MO Center=  1.1D-07, -9.4D-08, -5.6D-06, r^2= 2.2D+00
  Bfn.     Coefficient        Function     Bfn.     Coefficient        Function
  ---- -------------------  ------------     ---- -------------------  ------------
    35  -0.000084 0.607551  1 I  d  1              33  -0.607551 0.000044  1 I  d -1       
    71  -0.000084 0.607546  2 I  d  1              69  -0.607546 0.000044  2 I  d -1       
    55  -0.000046 0.328726  2 I  px                56   0.328726-0.000024  2 I  py         
    19   0.000045-0.328725  1 I  px                20  -0.328725 0.000023  1 I  py         
    30  -0.000025 0.182874  1 I  d  1              28  -0.182874 0.000013  1 I  d -1       

 Vector  140  Occ=0.000000D+00  E= 4.195632D-01
              MO Center=  9.1D-09,  9.4D-08, -8.8D-07, r^2= 9.5D-02
  Bfn.     Coefficient        Function     Bfn.     Coefficient        Function
  ---- -------------------  ------------     ---- -------------------  ------------
   107  -0.429902-0.429304  1 I  d  1             105  -0.429397 0.429809  1 I  d -1       
   143  -0.429899-0.429300  2 I  d  1             141  -0.429393 0.429806  2 I  d -1       
    91   0.232606 0.232283  1 I  px                92  -0.232332 0.232556  1 I  py         
   127  -0.232606-0.232282  2 I  px               128   0.232333-0.232556  2 I  py         
   102  -0.129402-0.129221  1 I  d  1             100  -0.129249 0.129374  1 I  d -1       

 Vector  141  Occ=0.000000D+00  E= 4.217513D-01
              MO Center= -1.1D-07, -7.0D-09, -4.0D-06, r^2= 1.0D+00
  Bfn.     Coefficient        Function     Bfn.     Coefficient        Function
  ---- -------------------  ------------     ---- -------------------  ------------
   107   0.326961-0.326998  1 I  d  1             105   0.326960 0.326998  1 I  d -1       
   143   0.326958-0.326995  2 I  d  1             141   0.326958 0.326995  2 I  d -1       
    33  -0.000072-0.413572  1 I  d -1              35   0.413572 0.000072  1 I  d  1       
    69  -0.000072-0.413569  2 I  d -1              71   0.413569 0.000072  2 I  d  1       
    91  -0.177643 0.177663  1 I  px                92   0.177643 0.177663  1 I  py         

 Vector  142  Occ=0.000000D+00  E= 4.217513D-01
              MO Center= -1.1D-07,  2.2D-08, -4.4D-06, r^2= 1.3D+00
  Bfn.     Coefficient        Function     Bfn.     Coefficient        Function
  ---- -------------------  ------------     ---- -------------------  ------------
    35   0.462419 0.000035  1 I  d  1              33  -0.000035-0.462419  1 I  d -1       
    71   0.462415 0.000035  2 I  d  1              69  -0.000035-0.462415  2 I  d -1       
   105  -0.292383-0.292496  1 I  d -1             107  -0.292383 0.292496  1 I  d  1       
   141  -0.292381-0.292494  2 I  d -1             143  -0.292381 0.292493  2 I  d  1       
    19  -0.251239-0.000019  1 I  px                20  -0.000019-0.251239  1 I  py         

 Vector  143  Occ=0.000000D+00  E= 6.596793D-01
              MO Center=  3.5D-07, -6.3D-07, -2.1D-06, r^2= 1.6D+00
  Bfn.     Coefficient        Function     Bfn.     Coefficient        Function
  ---- -------------------  ------------     ---- -------------------  ------------
     6   1.494938 1.495045  1 I  s                 42  -1.494933-1.495040  2 I  s          
   114  -0.000073 2.032328  2 I  s                 78   0.000073-2.032327  1 I  s          
     5   0.820039 0.820097  1 I  s                 41  -0.820033-0.820091  2 I  s          
   113  -0.000040 1.114818  2 I  s                 77   0.000040-1.114817  1 I  s          
    57   0.588773 0.588815  2 I  pz                21   0.588773 0.588815  1 I  pz         


   alpha - beta orbital overlaps 
   ----------------------------- 


   alpha      1      2      3      4      5      6      7      8      9     10
    beta      1      2      3      4      5      5      7      8      9     10
 overlap   1.148  1.512  1.902  1.770  0.651  0.266  1.253  1.253  1.252  1.741


   alpha     11     12     13     14     15     16     17     18     19     20
    beta     11     12     13     14     15     16     17     18     16     17
 overlap   1.741  1.717  1.695  1.695  1.569  0.890  0.890  0.433  0.213  0.213


   alpha     21     22     23     24     25     26     27     28     29     30
    beta     18     22     23     24     25     26     27     28     29     30
 overlap   0.043  1.161  1.161  1.161  1.161  1.161  1.155  1.155  1.157  1.155


   alpha     31     32     33     34     35     36     37     38     39     40
    beta     31     27     53     18     52     31     37     38     39     40
 overlap   1.155  0.011  0.044  0.030  0.044  0.011  1.148  1.512  1.902  1.770


   alpha     41     42     43     44     45     46     47     48     49     50
    beta     41     41     43     44     45     46     47     48     49     50
 overlap   0.651  0.266  1.253  1.253  1.252  1.741  1.741  1.717  1.695  1.695


   alpha     51     52     53     54     55     56     57     58     59     60
    beta     51     52     53     54     52     53     54     58     59     60
 overlap   1.569  0.890  0.890  0.433  0.213  0.213  0.043  1.161  1.161  1.161


   alpha     61     62     63     64     65     66     67     68     69     70
    beta     61     62     63     64     65     66     67     63     17     54
 overlap   1.161  1.161  1.155  1.155  1.157  1.155  1.155  0.011  0.044  0.030


   alpha     71     72
    beta     16     67
 overlap   0.044  0.011

     --------------------------
     Expectation value of S2:  
     --------------------------
      <S2> =      0.0186 (Exact =     0.0000)


     Multipole analysis of the density
     ---------------------------------

     L   x y z        total         alpha         beta         nuclear
     -   - - -        -----         -----         ----         -------
     0   0 0 0      0.000000    -53.000000    -53.000000    106.000000

     1   1 0 0     -0.000001     -0.000001     -0.000001      0.000000
     1   0 1 0     -0.000001     -0.000001     -0.000001      0.000000
     1   0 0 1     -0.000113     -0.000060     -0.000053      0.000000

     2   2 0 0    -41.911617    -20.955808    -20.955809      0.000000
     2   1 1 0     -0.000003     -0.000002     -0.000002      0.000000
     2   1 0 1     -0.000001      0.000000     -0.000001      0.000000
     2   0 2 0    -41.911617    -20.955808    -20.955809      0.000000
     2   0 1 1     -0.000001      0.000000     -0.000001      0.000000
     2   0 0 2    -36.140950   -355.302524   -355.302527    674.464101


 Parallel integral file used      12 records with       0 large values

  WARNING: CD fitting not compatible with spinorbit
  WARNING: disabling CD fitting


                            NWChem DFT Gradient Module
                            --------------------------



  charge          =   0.00
  wavefunction    = open shell


 Read molecular orbitals from ./i2_zora_so.movecs

  Using symmetry

 Read molecular orbitals from ./i2_zora_so.movecs



                         sodft ENERGY GRADIENTS

    atom               coordinates                        gradient
                 x          y          z           x          y          z
   1 I       0.000000   0.000000  -2.522473    0.000000   0.000000   0.007945
   2 I       0.000000   0.000000   2.522473    0.000000   0.000000  -0.007945

                 ----------------------------------------
                 |  Time  |  1-e(secs)   |  2-e(secs)   |
                 ----------------------------------------
                 |  CPU   |       0.00   |       3.49   |
                 ----------------------------------------
                 |  WALL  |       0.01   |       3.49   |
                 ----------------------------------------

@ Step       Energy      Delta E   Gmax     Grms     Xrms     Xmax   Walltime
@ ---- ---------------- -------- -------- -------- -------- -------- --------
@    0  -14341.07533405  0.0D+00  0.00795  0.00459  0.00000  0.00000     78.4
                                                       ok       ok  


                                 NWChem DFT Module
                                 -----------------


  WARNING: CD fitting not compatible with spinorbit
  WARNING: disabling CD fitting
                                  Spin-Orbit DFT
                                  --------------


  Caching 1-el integrals 

            General Information
            -------------------
          SCF calculation type: DFT
          Wavefunction type:  spin polarized.
          No. of atoms     :     2
          No. of electrons :   106
           Alpha electrons :    53
            Beta electrons :    53
          Charge           :     0
          Spin multiplicity:     1
          Use of symmetry is: off; symmetry adaption is: off
          Maximum number of iterations: 100
          AO basis - number of functions:    72
                     number of shells:    28
          Convergence on energy requested: 1.00D-06
          Convergence on density requested: 1.00D-05
          Convergence on gradient requested: 5.00D-04

              XC Information
              --------------
          PerdewBurkeErnzerhof Exchange Functional  1.000          
            Perdew 1991 LDA Correlation Functional  1.000 local    
           PerdewBurkeErnz. Correlation Functional  1.000 non-local

             Grid Information
             ----------------
          Grid used for XC integration:  xfine     
          Radial quadrature: Mura-Knowles        
          Angular quadrature: Lebedev. 
          Tag              B.-S. Rad. Rad. Pts. Rad. Cut. Ang. Pts.
          ---              ---------- --------- --------- ---------
          I                   1.40      205          11.0      1454
          Grid pruning is: on 
          Number of quadrature shells:   410
          Spatial weights used:  Erf1

          Convergence Information
          -----------------------
          Convergence aids based upon iterative change in 
          total energy or number of iterations. 
          Levelshifting, if invoked, occurs when the 
          HOMO/LUMO gap drops below (HL_TOL): 1.00D-02
          DIIS, if invoked, will attempt to extrapolate 
          using up to (NFOCK): 10 stored Fock matrices.

                    Damping( 0%)  Levelshifting(0.5)       DIIS
                  --------------- ------------------- ---------------
          dE  on:    start            ASAP                start   
          dE off:    2 iters        100 iters           100 iters 


      Screening Tolerance Information
      -------------------------------
          Density screening/tol_rho: 1.00D-10
          AO Gaussian exp screening on grid/accAOfunc:  14
          CD Gaussian exp screening on grid/accCDfunc:  20
          XC Gaussian exp screening on grid/accXCfunc:  20
          Schwarz screening/accCoul: 1.00D-10


 ===============================
  Performing SODFT calculations 
 ===============================


 Performing ZORA calculations


 Read molecular orbitals from ./i2_zora_so.movecs


 Read atomic ZORA corrections from ./i2_zora_so.zora_so

   Time prior to 1st pass:     78.1

 Integral file          = ./i2_zora_so.aoints.0
 Record size in doubles =  65536        No. of integs per rec  =  43688
 Max. records in memory =      4        Max. records in file   =  26325
 No. of bits per label  =      8        No. of bits per value  =     64


 #quartets = 6.282D+04 #integrals = 4.892D+05 #direct =  0.0% #cached =100.0%


File balance: exchanges=     0  moved=     0  time=   0.0


 Grid_pts file          = ./i2_zora_so.gridpts.0
 Record size in doubles =  12289        No. of grid_pts per rec  =   3070
 Max. records in memory =     55        Max. recs in file   =    140396

 WARNING: error on integrated density =  0.37D-04
 greater than required accuracy of  0.10D-07

           Memory utilization after 1st SCF pass: 
           Heap Space remaining (MW):       12.16            12162278
          Stack Space remaining (MW):       13.06            13063536

   convergence    iter        energy       DeltaE   RMS-Dens  Diis-err    time
 ---------------- ----- ----------------- --------- --------- ---------  ------
 d= 0,ls=0.0,diis     1 -14341.0724149214 -1.49D+04  1.84D-04  7.40D-03    81.8
                                                     1.84D-04  7.40D-03
 WARNING: error on integrated density =  0.22D-06
 greater than required accuracy of  0.10D-07
 d= 0,ls=0.0,diis     2 -14341.0755344566 -3.12D-03  2.13D-04  5.98D-05    83.4
                                                     2.13D-04  5.98D-05
 WARNING: error on integrated density =  0.22D-06
 greater than required accuracy of  0.10D-07
 d= 0,ls=0.0,diis     3 -14341.0755169559  1.75D-05  1.23D-04  1.03D-04    85.0
                                                     1.23D-04  1.03D-04
 WARNING: error on integrated density =  0.11D-07
 greater than required accuracy of  0.10D-07
 d= 0,ls=0.0,diis     4 -14341.0755340635 -1.71D-05  2.77D-06  2.89D-06    86.7
                                                     2.77D-06  2.89D-06
 WARNING: error on integrated density =  0.11D-07
 greater than required accuracy of  0.10D-07
 d= 0,ls=0.0,diis     5 -14341.0755340640 -5.51D-10  1.53D-06  2.89D-06    88.4
                                                     1.53D-06  2.89D-06
 WARNING: error on integrated density =  0.11D-07
 greater than required accuracy of  0.10D-07


         Total DFT energy = -14341.075534066340
      One electron energy = -20634.260405239671
           Coulomb energy =   6091.908608472819
    Exchange-Corr. energy =   -352.033134784255
 Nuclear repulsion energy =    553.309397484767

       Scaling correction =    183.158844759404

 Numeric. integr. density =    106.000001207245

     Total iterative time =     12.4s



                       DFT Final Molecular Orbital Analysis
                       ------------------------------------

 Vector   93  Occ=1.000000D+00  E=-6.777943D-01
              MO Center= -1.7D-09,  6.6D-08, -2.8D-07, r^2= 9.3D-03
  Bfn.     Coefficient        Function     Bfn.     Coefficient        Function
  ---- -------------------  ------------     ---- -------------------  ------------
    77   0.000002 0.518939  1 I  s                113   0.000002 0.518917  2 I  s          
    76   0.000001 0.372826  1 I  s                112   0.000001 0.372811  2 I  s          
    78  -0.000001-0.220176  1 I  s                114  -0.000001-0.220169  2 I  s          
    75  -0.000001-0.170774  1 I  s                111  -0.000001-0.170767  2 I  s          

 Vector   94  Occ=1.000000D+00  E=-6.777943D-01
              MO Center= -2.4D-07,  3.2D-07, -2.2D-05, r^2= 1.1D+00
  Bfn.     Coefficient        Function     Bfn.     Coefficient        Function
  ---- -------------------  ------------     ---- -------------------  ------------
     5  -0.366952-0.366940  1 I  s                 41  -0.366935-0.366923  2 I  s          
     4  -0.263632-0.263623  1 I  s                 40  -0.263622-0.263613  2 I  s          
     6   0.155690 0.155684  1 I  s                 42   0.155686 0.155681  2 I  s          
     3   0.120757 0.120753  1 I  s                 39   0.120752 0.120748  2 I  s          

 Vector   95  Occ=1.000000D+00  E=-5.931760D-01
              MO Center= -6.1D-08,  4.0D-07,  4.3D-06, r^2= 3.3D-01
  Bfn.     Coefficient        Function     Bfn.     Coefficient        Function
  ---- -------------------  ------------     ---- -------------------  ------------
   113  -0.000002-0.532276  2 I  s                 77   0.000002 0.532262  1 I  s          
   112  -0.000001-0.362675  2 I  s                 76   0.000001 0.362664  1 I  s          
    41  -0.183956-0.183954  2 I  s                  5   0.183950 0.183949  1 I  s          
   114   0.000001 0.213618  2 I  s                 78  -0.000001-0.213611  1 I  s          
    40  -0.125341-0.125340  2 I  s                  4   0.125337 0.125336  1 I  s          

 Vector   96  Occ=1.000000D+00  E=-5.931759D-01
              MO Center= -2.6D-07,  6.5D-08,  1.4D-05, r^2= 1.4D+00
  Bfn.     Coefficient        Function     Bfn.     Coefficient        Function
  ---- -------------------  ------------     ---- -------------------  ------------
    41   0.376381 0.376370  2 I  s                  5  -0.376372-0.376360  1 I  s          
    40   0.256454 0.256446  2 I  s                  4  -0.256446-0.256438  1 I  s          
   113  -0.000004-0.260152  2 I  s                 77   0.000004 0.260144  1 I  s          
    42  -0.151053-0.151049  2 I  s                  6   0.151048 0.151043  1 I  s          
   112  -0.000003-0.177259  2 I  s                 76   0.000003 0.177253  1 I  s          

 Vector   97  Occ=1.000000D+00  E=-3.577445D-01
              MO Center= -6.4D-08,  8.4D-07, -3.2D-06, r^2= 1.4D+00
  Bfn.     Coefficient        Function     Bfn.     Coefficient        Function
  ---- -------------------  ------------     ---- -------------------  ------------
    18   0.382108 0.382094  1 I  pz                54  -0.382102-0.382088  2 I  pz         
    90   0.000007 0.346498  1 I  pz               126  -0.000007-0.346489  2 I  pz         
    15  -0.212679-0.212671  1 I  pz                51   0.212676 0.212668  2 I  pz         
    87  -0.000004-0.192858  1 I  pz               123   0.000004 0.192854  2 I  pz         

 Vector   98  Occ=1.000000D+00  E=-3.577445D-01
              MO Center= -7.9D-08, -6.9D-07, -4.3D-06, r^2= 5.8D-01
  Bfn.     Coefficient        Function     Bfn.     Coefficient        Function
  ---- -------------------  ------------     ---- -------------------  ------------
    90   0.000002 0.540373  1 I  pz               126  -0.000002-0.540363  2 I  pz         
    18  -0.245011-0.245010  1 I  pz                54   0.245006 0.245004  2 I  pz         
    87  -0.000001-0.300769  1 I  pz               123   0.000001 0.300764  2 I  pz         
    15   0.136372 0.136371  1 I  pz                51  -0.136369-0.136368  2 I  pz         

 Vector   99  Occ=1.000000D+00  E=-2.964283D-01
              MO Center= -1.5D-07, -1.1D-06, -1.4D-05, r^2= 1.2D+00
  Bfn.     Coefficient        Function     Bfn.     Coefficient        Function
  ---- -------------------  ------------     ---- -------------------  ------------
    17  -0.385750-0.000011  1 I  py                16   0.000007-0.385750  1 I  px         
    53  -0.385738-0.000011  2 I  py                52   0.000007-0.385738  2 I  px         
    88  -0.174139-0.174147  1 I  px                89   0.174147-0.174138  1 I  py         
   124  -0.174130-0.174137  2 I  px               125   0.174138-0.174129  2 I  py         
    14   0.207798 0.000006  1 I  py                13  -0.000004 0.207798  1 I  px         

 Vector  100  Occ=1.000000D+00  E=-2.964283D-01
              MO Center= -5.2D-08,  2.5D-08, -5.7D-06, r^2= 4.9D-01
  Bfn.     Coefficient        Function     Bfn.     Coefficient        Function
  ---- -------------------  ------------     ---- -------------------  ------------
    89  -0.272768 0.272771  1 I  py                88   0.272768 0.272770  1 I  px         
   125  -0.272753 0.272757  2 I  py               124   0.272754 0.272756  2 I  px         
    16   0.000001-0.246273  1 I  px                17  -0.246273 0.000001  1 I  py         
    52   0.000001-0.246265  2 I  px                53  -0.246265 0.000001  2 I  py         
    86   0.146936-0.146937  1 I  py                85  -0.146936-0.146937  1 I  px         

 Vector  101  Occ=1.000000D+00  E=-2.812518D-01
              MO Center=  7.5D-08, -1.2D-08, -1.3D-06, r^2= 6.3D-02
  Bfn.     Coefficient        Function     Bfn.     Coefficient        Function
  ---- -------------------  ------------     ---- -------------------  ------------
    88   0.306510-0.306529  1 I  px                89  -0.306530-0.306508  1 I  py         
   124   0.306492-0.306511  2 I  px               125  -0.306513-0.306490  2 I  py         
    85  -0.171955 0.171966  1 I  px                86   0.171967 0.171954  1 I  py         
   121  -0.171945 0.171956  2 I  px               122   0.171957 0.171945  2 I  py         

 Vector  102  Occ=1.000000D+00  E=-2.812518D-01
              MO Center=  7.3D-07,  1.6D-07, -3.4D-05, r^2= 1.7D+00
  Bfn.     Coefficient        Function     Bfn.     Coefficient        Function
  ---- -------------------  ------------     ---- -------------------  ------------
    16  -0.433484 0.000001  1 I  px                17   0.000001-0.433484  1 I  py         
    52  -0.433458 0.000001  2 I  px                53   0.000001-0.433458  2 I  py         
    13   0.243189-0.000001  1 I  px                14  -0.000001 0.243189  1 I  py         
    49   0.243175-0.000001  2 I  px                50  -0.000001 0.243175  2 I  py         

 Vector  103  Occ=1.000000D+00  E=-2.382976D-01
              MO Center= -9.8D-08, -1.4D-07,  1.2D-05, r^2= 1.2D+00
  Bfn.     Coefficient        Function     Bfn.     Coefficient        Function
  ---- -------------------  ------------     ---- -------------------  ------------
    53   0.393977 0.000000  2 I  py                52  -0.000001 0.393977  2 I  px         
    17  -0.393968 0.000000  1 I  py                16   0.000001-0.393968  1 I  px         
   125   0.216147-0.216150  2 I  py               124  -0.216147-0.216151  2 I  px         
    88   0.216139 0.216143  1 I  px                89  -0.216139 0.216143  1 I  py         
    50  -0.209218 0.000000  2 I  py                49   0.000000-0.209218  2 I  px         

 Vector  104  Occ=1.000000D+00  E=-2.382975D-01
              MO Center= -1.2D-07, -8.2D-07,  7.8D-06, r^2= 7.5D-01
  Bfn.     Coefficient        Function     Bfn.     Coefficient        Function
  ---- -------------------  ------------     ---- -------------------  ------------
   125   0.278587-0.278585  2 I  py               124  -0.278586-0.278585  2 I  px         
    89  -0.278576 0.278574  1 I  py                88   0.278576 0.278575  1 I  px         
    53  -0.305679-0.000002  2 I  py                52  -0.000002-0.305679  2 I  px         
    16   0.000002 0.305672  1 I  px                17   0.305672 0.000002  1 I  py         
   122  -0.147941 0.147940  2 I  py               121   0.147941 0.147940  2 I  px         

 Vector  105  Occ=1.000000D+00  E=-2.231008D-01
              MO Center= -3.1D-08,  8.1D-08,  4.6D-06, r^2= 2.6D-01
  Bfn.     Coefficient        Function     Bfn.     Coefficient        Function
  ---- -------------------  ------------     ---- -------------------  ------------
   124   0.319277-0.319282  2 I  px               125  -0.319284-0.319275  2 I  py         
    88  -0.319263 0.319268  1 I  px                89   0.319270 0.319260  1 I  py         
   121  -0.175670 0.175673  2 I  px               122   0.175674 0.175669  2 I  py         
    85   0.175662-0.175665  1 I  px                86  -0.175666-0.175661  1 I  py         
    52  -0.174486-0.000002  2 I  px                53  -0.000002-0.174486  2 I  py         

 Vector  106  Occ=1.000000D+00  E=-2.231008D-01
              MO Center=  7.6D-07,  3.3D-08,  3.0D-05, r^2= 1.8D+00
  Bfn.     Coefficient        Function     Bfn.     Coefficient        Function
  ---- -------------------  ------------     ---- -------------------  ------------
    52   0.451530-0.000002  2 I  px                53  -0.000002 0.451530  2 I  py         
    16  -0.451509 0.000002  1 I  px                17   0.000002-0.451509  1 I  py         
    49  -0.248438 0.000001  2 I  px                50   0.000001-0.248438  2 I  py         
    13   0.248426-0.000001  1 I  px                14  -0.000001 0.248426  1 I  py         
   124   0.123377-0.123382  2 I  px               125  -0.123380-0.123379  2 I  py         

 Vector  107  Occ=0.000000D+00  E=-1.686674D-01
              MO Center= -3.6D-07, -1.1D-06,  3.6D-06, r^2= 1.7D+00
  Bfn.     Coefficient        Function     Bfn.     Coefficient        Function
  ---- -------------------  ------------     ---- -------------------  ------------
    54  -0.457131-0.457145  2 I  pz                18  -0.457126-0.457141  1 I  pz         
   126  -0.000006 0.375271  2 I  pz                90  -0.000006 0.375266  1 I  pz         
    51   0.236945 0.236953  2 I  pz                15   0.236943 0.236951  1 I  pz         
    21  -0.185106-0.185112  1 I  pz                57  -0.185105-0.185111  2 I  pz         
   123   0.000003-0.194515  2 I  pz                87   0.000003-0.194512  1 I  pz         

 Vector  108  Occ=0.000000D+00  E=-1.686673D-01
              MO Center= -6.1D-08,  1.3D-06,  5.4D-06, r^2= 5.9D-01
  Bfn.     Coefficient        Function     Bfn.     Coefficient        Function
  ---- -------------------  ------------     ---- -------------------  ------------
   126   0.000015-0.646490  2 I  pz                90   0.000015-0.646485  1 I  pz         
    54  -0.265351-0.265363  2 I  pz                18  -0.265347-0.265359  1 I  pz         
   123  -0.000008 0.335097  2 I  pz                87  -0.000008 0.335093  1 I  pz         
   129   0.000006-0.261785  2 I  pz                93   0.000006-0.261780  1 I  pz         
    51   0.137540 0.137546  2 I  pz                15   0.137538 0.137544  1 I  pz         

 Vector  109  Occ=0.000000D+00  E= 1.107928D-01
              MO Center=  3.2D-07, -4.9D-06, -1.8D-04, r^2= 1.1D+00
  Bfn.     Coefficient        Function     Bfn.     Coefficient        Function
  ---- -------------------  ------------     ---- -------------------  ------------
    93  -0.000045 0.621533  1 I  pz               129   0.000045-0.621019  2 I  pz         
    90   0.000032-0.445182  1 I  pz               126  -0.000032 0.444904  2 I  pz         
    21  -0.293931-0.293974  1 I  pz                57   0.293557 0.293599  2 I  pz         
   142   0.000022-0.304016  2 I  d  0             106   0.000022-0.303970  1 I  d  0       
    18   0.210519 0.210550  1 I  pz                54  -0.210321-0.210351  2 I  pz         

 Vector  110  Occ=0.000000D+00  E= 1.107928D-01
              MO Center= -8.2D-07, -2.5D-06, -2.2D-04, r^2= 2.4D+00
  Bfn.     Coefficient        Function     Bfn.     Coefficient        Function
  ---- -------------------  ------------     ---- -------------------  ------------
    21  -0.438839-0.440090  1 I  pz                57   0.438526 0.439776  2 I  pz         
    18   0.314329 0.315225  1 I  pz                54  -0.314160-0.315056  2 I  pz         
    93   0.000592-0.415740  1 I  pz               129  -0.000591 0.415153  2 I  pz         
    70   0.214663 0.215275  2 I  d  0              34   0.214636 0.215248  1 I  d  0       
    90  -0.000424 0.297756  1 I  pz               126   0.000423-0.297444  2 I  pz         

 Vector  111  Occ=0.000000D+00  E= 1.128761D-01
              MO Center= -1.8D-06,  2.3D-05,  2.7D-04, r^2= 3.2D+00
  Bfn.     Coefficient        Function     Bfn.     Coefficient        Function
  ---- -------------------  ------------     ---- -------------------  ------------
    57   0.701366 0.701351  2 I  pz                21   0.701124 0.701109  1 I  pz         
   129   0.000009 0.893477  2 I  pz                93   0.000009 0.893280  1 I  pz         
    54  -0.373126-0.373118  2 I  pz                18  -0.372952-0.372944  1 I  pz         
   126  -0.000005-0.475319  2 I  pz                90  -0.000005-0.475178  1 I  pz         
     6   0.268032 0.268027  1 I  s                 42  -0.268005-0.267999  2 I  s          

 Vector  112  Occ=0.000000D+00  E= 1.128762D-01
              MO Center= -7.9D-07, -1.6D-05,  1.1D-04, r^2= 2.6D+00
  Bfn.     Coefficient        Function     Bfn.     Coefficient        Function
  ---- -------------------  ------------     ---- -------------------  ------------
   129  -0.000032 0.991890  2 I  pz                93  -0.000032 0.991509  1 I  pz         
    57  -0.631749-0.631790  2 I  pz                21  -0.631638-0.631679  1 I  pz         
   126   0.000017-0.527688  2 I  pz                90   0.000017-0.527415  1 I  pz         
    54   0.336080 0.336102  2 I  pz                18   0.336001 0.336023  1 I  pz         
    78  -0.000012 0.379052  1 I  s                114   0.000012-0.379012  2 I  s          

 Vector  113  Occ=0.000000D+00  E= 1.490666D-01
              MO Center=  5.7D-09, -5.0D-06, -2.8D-05, r^2= 2.9D+00
  Bfn.     Coefficient        Function     Bfn.     Coefficient        Function
  ---- -------------------  ------------     ---- -------------------  ------------
    17  -0.536471 0.000016  1 I  py                16   0.000004-0.536471  1 I  px         
    53  -0.536446 0.000017  2 I  py                52   0.000005-0.536446  2 I  px         
    20   0.521446-0.000016  1 I  py                19  -0.000004 0.521446  1 I  px         
    56   0.521412-0.000018  2 I  py                55  -0.000006 0.521412  2 I  px         
    89  -0.172653 0.172657  1 I  py                88   0.172657 0.172653  1 I  px         

 Vector  114  Occ=0.000000D+00  E= 1.490667D-01
              MO Center=  4.4D-08,  3.4D-06, -8.0D-06, r^2= 7.4D-01
  Bfn.     Coefficient        Function     Bfn.     Coefficient        Function
  ---- -------------------  ------------     ---- -------------------  ------------
    89   0.379400-0.379305  1 I  py                88  -0.379319-0.379386  1 I  px         
   125   0.379363-0.379265  2 I  py               124  -0.379282-0.379346  2 I  px         
    92  -0.368781 0.368689  1 I  py                91   0.368703 0.368768  1 I  px         
   128  -0.368724 0.368629  2 I  py               127   0.368646 0.368708  2 I  px         
    17  -0.244164-0.000026  1 I  py                16   0.000026-0.244164  1 I  px         

 Vector  115  Occ=0.000000D+00  E= 1.579965D-01
              MO Center= -2.0D-06, -1.1D-07, -1.2D-05, r^2= 1.1D+00
  Bfn.     Coefficient        Function     Bfn.     Coefficient        Function
  ---- -------------------  ------------     ---- -------------------  ------------
    88   0.354603-0.354613  1 I  px                89  -0.354604-0.354613  1 I  py         
   124   0.354587-0.354594  2 I  px               125  -0.354587-0.354593  2 I  py         
    92   0.343167 0.343175  1 I  py                91  -0.343166 0.343176  1 I  px         
   127  -0.343142 0.343149  2 I  px               128   0.343143 0.343148  2 I  py         
    16  -0.331330-0.000008  1 I  px                17  -0.000008-0.331330  1 I  py         

 Vector  116  Occ=0.000000D+00  E= 1.579965D-01
              MO Center= -5.2D-06,  1.0D-07, -2.8D-05, r^2= 2.5D+00
[...]
   108   0.511535 0.000000  1 I  d  2             104   0.000000-0.511532  1 I  d -2       
   139   0.173499 0.000000  2 I  d  2             135   0.000000-0.173498  2 I  d -2       
   103   0.173492 0.000000  1 I  d  2              99   0.000000-0.173491  1 I  d -2       

 Vector  130  Occ=0.000000D+00  E= 2.457721D-01
              MO Center= -2.6D-07, -1.7D-07,  2.3D-05, r^2= 1.9D+00
  Bfn.     Coefficient        Function     Bfn.     Coefficient        Function
  ---- -------------------  ------------     ---- -------------------  ------------
    72  -0.361724 0.361724  2 I  d  2              68  -0.361721-0.361721  2 I  d -2       
    36  -0.361711 0.361711  1 I  d  2              32  -0.361709-0.361709  1 I  d -2       
    67  -0.122682 0.122682  2 I  d  2              63  -0.122681-0.122681  2 I  d -2       
    31  -0.122678 0.122678  1 I  d  2              27  -0.122677-0.122677  1 I  d -2       

 Vector  131  Occ=0.000000D+00  E= 2.973798D-01
              MO Center=  9.9D-08,  1.8D-08, -6.0D-06, r^2= 6.3D-01
  Bfn.     Coefficient        Function     Bfn.     Coefficient        Function
  ---- -------------------  ------------     ---- -------------------  ------------
   104   0.000000 0.443380  1 I  d -2             108   0.443373 0.000000  1 I  d  2       
   140   0.000000-0.443367  2 I  d -2             144  -0.443360 0.000000  2 I  d  2       
    36   0.212997-0.212997  1 I  d  2              32  -0.212996-0.212996  1 I  d -2       
    72  -0.212991 0.212991  2 I  d  2              68   0.212990 0.212990  2 I  d -2       

 Vector  132  Occ=0.000000D+00  E= 2.973798D-01
              MO Center=  2.0D-07,  3.1D-07, -1.3D-05, r^2= 1.4D+00
  Bfn.     Coefficient        Function     Bfn.     Coefficient        Function
  ---- -------------------  ------------     ---- -------------------  ------------
    32   0.313516 0.313516  1 I  d -2              36  -0.313512 0.313512  1 I  d  2       
    68  -0.313508-0.313508  2 I  d -2              72   0.313504-0.313504  2 I  d  2       
   108   0.301225 0.000000  1 I  d  2             104   0.000000 0.301221  1 I  d -2       
   144  -0.301216 0.000000  2 I  d  2             140   0.000000-0.301212  2 I  d -2       

 Vector  133  Occ=0.000000D+00  E= 3.012528D-01
              MO Center=  2.1D-09, -2.6D-09, -1.4D-07, r^2= 1.2D-02
  Bfn.     Coefficient        Function     Bfn.     Coefficient        Function
  ---- -------------------  ------------     ---- -------------------  ------------
   108  -0.534412 0.000000  1 I  d  2             104   0.000000 0.534408  1 I  d -2       
   144   0.534393 0.000000  2 I  d  2             140   0.000000-0.534389  2 I  d -2       
   103  -0.178393 0.000000  1 I  d  2              99   0.000000 0.178392  1 I  d -2       
   139   0.178387 0.000000  2 I  d  2             135   0.000000-0.178385  2 I  d -2       

 Vector  134  Occ=0.000000D+00  E= 3.012528D-01
              MO Center= -8.3D-08, -7.6D-09, -2.3D-05, r^2= 2.0D+00
  Bfn.     Coefficient        Function     Bfn.     Coefficient        Function
  ---- -------------------  ------------     ---- -------------------  ------------
    36  -0.377886 0.377886  1 I  d  2              32  -0.377883-0.377883  1 I  d -2       
    72   0.377873-0.377873  2 I  d  2              68   0.377870 0.377870  2 I  d -2       
    31  -0.126143 0.126143  1 I  d  2              27  -0.126142-0.126142  1 I  d -2       
    67   0.126139-0.126139  2 I  d  2              63   0.126138 0.126138  2 I  d -2       

 Vector  135  Occ=0.000000D+00  E= 3.321240D-01
              MO Center=  1.8D-07, -8.4D-07,  1.6D-06, r^2= 1.1D+00
  Bfn.     Coefficient        Function     Bfn.     Coefficient        Function
  ---- -------------------  ------------     ---- -------------------  ------------
    78  -0.000042-1.157045  1 I  s                114   0.000042 1.157030  2 I  s          
     6   0.789504 0.789446  1 I  s                 42  -0.789486-0.789428  2 I  s          
    77  -0.000032-0.888477  1 I  s                113   0.000032 0.888454  2 I  s          
     5   0.606251 0.606207  1 I  s                 41  -0.606222-0.606178  2 I  s          
    93  -0.000016-0.437460  1 I  pz               129  -0.000016-0.437442  2 I  pz         

 Vector  136  Occ=0.000000D+00  E= 3.321242D-01
              MO Center=  2.5D-07,  5.0D-07,  1.5D-06, r^2= 1.2D+00
  Bfn.     Coefficient        Function     Bfn.     Coefficient        Function
  ---- -------------------  ------------     ---- -------------------  ------------
     6   0.818118 0.818191  1 I  s                 42  -0.818104-0.818176  2 I  s          
    78  -0.000049 1.116481  1 I  s                114   0.000049-1.116462  2 I  s          
     5   0.628223 0.628278  1 I  s                 41  -0.628199-0.628255  2 I  s          
    77  -0.000038 0.857330  1 I  s                113   0.000038-0.857300  2 I  s          
    21   0.309319 0.309347  1 I  pz                57   0.309302 0.309329  2 I  pz         

 Vector  137  Occ=0.000000D+00  E= 3.484989D-01
              MO Center=  1.7D-07, -4.3D-07, -9.4D-06, r^2= 2.0D+00
  Bfn.     Coefficient        Function     Bfn.     Coefficient        Function
  ---- -------------------  ------------     ---- -------------------  ------------
    54  -0.474850-0.475076  2 I  pz                18   0.474838 0.475064  1 I  pz         
    57   0.422890 0.423091  2 I  pz                21  -0.422866-0.423067  1 I  pz         
    41  -0.416505-0.416703  2 I  s                  5  -0.416455-0.416653  1 I  s          
    34  -0.362707-0.362880  1 I  d  0              70  -0.362684-0.362856  2 I  d  0       
    42  -0.216301-0.216404  2 I  s                  6  -0.216237-0.216340  1 I  s          

 Vector  138  Occ=0.000000D+00  E= 3.484989D-01
              MO Center=  1.8D-07,  9.9D-07, -3.3D-06, r^2= 3.1D-01
  Bfn.     Coefficient        Function     Bfn.     Coefficient        Function
  ---- -------------------  ------------     ---- -------------------  ------------
   126   0.000025-0.671695  2 I  pz                90  -0.000025 0.671686  1 I  pz         
   129  -0.000022 0.598199  2 I  pz                93   0.000022-0.598164  1 I  pz         
   113   0.000022-0.589168  2 I  s                 77   0.000022-0.589097  1 I  s          
   106   0.000019-0.513057  1 I  d  0             142   0.000019-0.513045  2 I  d  0       
   114   0.000011-0.305973  2 I  s                 78   0.000011-0.305874  1 I  s          

 Vector  139  Occ=0.000000D+00  E= 4.138626D-01
              MO Center=  1.3D-07,  7.0D-08, -3.7D-06, r^2= 2.3D+00
  Bfn.     Coefficient        Function     Bfn.     Coefficient        Function
  ---- -------------------  ------------     ---- -------------------  ------------
    35  -0.000092 0.611614  1 I  d  1              33  -0.611614 0.000053  1 I  d -1       
    71  -0.000092 0.611611  2 I  d  1              69  -0.611611 0.000053  2 I  d -1       
    55  -0.000051 0.333030  2 I  px                56   0.333030-0.000029  2 I  py         
    19   0.000050-0.333029  1 I  px                20  -0.333029 0.000028  1 I  py         
    30  -0.000028 0.185569  1 I  d  1              28  -0.185569 0.000016  1 I  d -1       

 Vector  140  Occ=0.000000D+00  E= 4.138626D-01
              MO Center=  5.6D-09,  1.3D-08, -4.8D-07, r^2= 1.1D-02
  Bfn.     Coefficient        Function     Bfn.     Coefficient        Function
  ---- -------------------  ------------     ---- -------------------  ------------
   107   0.435384 0.429550  1 I  d  1             105   0.429653-0.435282  1 I  d -1       
   143   0.435381 0.429548  2 I  d  1             141   0.429651-0.435280  2 I  d -1       
   127   0.237071 0.233893  2 I  px               128  -0.233950 0.237014  2 I  py         
    91  -0.237070-0.233894  1 I  px                92   0.233950-0.237015  1 I  py         
   102   0.132099 0.130329  1 I  d  1             100   0.130361-0.132068  1 I  d -1       

 Vector  141  Occ=0.000000D+00  E= 4.160742D-01
              MO Center= -5.4D-08,  4.9D-09, -2.8D-06, r^2= 1.0D+00
  Bfn.     Coefficient        Function     Bfn.     Coefficient        Function
  ---- -------------------  ------------     ---- -------------------  ------------
   107   0.325512-0.325554  1 I  d  1             105   0.325512 0.325554  1 I  d -1       
   143   0.325510-0.325552  2 I  d  1             141   0.325510 0.325552  2 I  d -1       
    33  -0.000071-0.404535  1 I  d -1              35   0.404535 0.000071  1 I  d  1       
    69  -0.000071-0.404532  2 I  d -1              71   0.404532 0.000071  2 I  d  1       
    91  -0.178238 0.178260  1 I  px                92   0.178237 0.178260  1 I  py         

 Vector  142  Occ=0.000000D+00  E= 4.160742D-01
              MO Center= -4.7D-08,  3.5D-08, -3.2D-06, r^2= 1.3D+00
  Bfn.     Coefficient        Function     Bfn.     Coefficient        Function
  ---- -------------------  ------------     ---- -------------------  ------------
    35   0.460373 0.000037  1 I  d  1              33  -0.000037-0.460373  1 I  d -1       
    71   0.460370 0.000037  2 I  d  1              69  -0.000037-0.460370  2 I  d -1       
   105  -0.285993-0.286105  1 I  d -1             107  -0.285993 0.286105  1 I  d  1       
   141  -0.285992-0.286103  2 I  d -1             143  -0.285992 0.286103  2 I  d  1       
    19  -0.252082-0.000020  1 I  px                20  -0.000020-0.252082  1 I  py         

 Vector  143  Occ=0.000000D+00  E= 6.549145D-01
              MO Center=  3.5D-07, -6.5D-07, -1.0D-06, r^2= 1.6D+00
  Bfn.     Coefficient        Function     Bfn.     Coefficient        Function
  ---- -------------------  ------------     ---- -------------------  ------------
     6  -1.452227-1.452338  1 I  s                 42   1.452223 1.452334  2 I  s          
   114   0.000076-1.985963  2 I  s                 78  -0.000076 1.985961  1 I  s          
     5  -0.816589-0.816651  1 I  s                 41   0.816584 0.816647  2 I  s          
   113   0.000043-1.116708  2 I  s                 77  -0.000043 1.116705  1 I  s          
    57  -0.582773-0.582818  2 I  pz                21  -0.582773-0.582817  1 I  pz         


   alpha - beta orbital overlaps 
   ----------------------------- 


   alpha      1      2      3      4      5      6      7      8      9     10
    beta      1      2      3      4      5      5      7      8      9     10
 overlap   1.148  1.512  1.902  1.770  0.651  0.267  1.253  1.253  1.252  1.740


   alpha     11     12     13     14     15     16     17     18     19     20
    beta     11     12     13     14     15     16     17     18     16     17
 overlap   1.740  1.717  1.695  1.695  1.568  0.889  0.889  0.431  0.212  0.212


   alpha     21     22     23     24     25     26     27     28     29     30
    beta     18     22     23     24     25     26     27     28     29     30
 overlap   0.045  1.161  1.161  1.161  1.161  1.161  1.155  1.155  1.157  1.155


   alpha     31     32     33     34     35     36     37     38     39     40
    beta     31     27     53     18     52     31     37     38     39     40
 overlap   1.155  0.011  0.042  0.029  0.042  0.011  1.148  1.512  1.902  1.770


   alpha     41     42     43     44     45     46     47     48     49     50
    beta     41     41     43     44     45     46     47     48     49     50
 overlap   0.651  0.267  1.253  1.253  1.252  1.740  1.740  1.717  1.695  1.695


   alpha     51     52     53     54     55     56     57     58     59     60
    beta     51     52     53     54     52     53     54     58     59     60
 overlap   1.568  0.889  0.889  0.431  0.212  0.212  0.045  1.161  1.161  1.161


   alpha     61     62     63     64     65     66     67     68     69     70
    beta     61     62     63     64     65     66     67     63     17     54
 overlap   1.161  1.161  1.155  1.155  1.157  1.155  1.155  0.011  0.042  0.029


   alpha     71     72
    beta     16     67
 overlap   0.042  0.011

     --------------------------
     Expectation value of S2:  
     --------------------------
      <S2> =      0.0205 (Exact =     0.0000)


     Multipole analysis of the density
     ---------------------------------

     L   x y z        total         alpha         beta         nuclear
     -   - - -        -----         -----         ----         -------
     0   0 0 0      0.000000    -53.000000    -53.000000    106.000000

     1   1 0 0      0.000002      0.000001      0.000001      0.000000
     1   0 1 0      0.000002      0.000001      0.000001      0.000000
     1   0 0 1     -0.000082     -0.000044     -0.000038      0.000000

     2   2 0 0    -41.950961    -20.975480    -20.975481      0.000000
     2   1 1 0     -0.000002     -0.000001     -0.000001      0.000000
     2   1 0 1      0.000001      0.000001      0.000000      0.000000
     2   0 2 0    -41.950961    -20.975480    -20.975481      0.000000
     2   0 1 1      0.000001      0.000001      0.000000      0.000000
     2   0 0 2    -36.045360   -364.737041   -364.737044    693.428725


 Parallel integral file used      13 records with       0 large values

  WARNING: CD fitting not compatible with spinorbit
  WARNING: disabling CD fitting


                            NWChem DFT Gradient Module
                            --------------------------



  charge          =   0.00
  wavefunction    = open shell


 Read molecular orbitals from ./i2_zora_so.movecs

  Using symmetry

 Read molecular orbitals from ./i2_zora_so.movecs



                         sodft ENERGY GRADIENTS

    atom               coordinates                        gradient
                 x          y          z           x          y          z
   1 I       0.000000   0.000000  -2.557690    0.000000   0.000000  -0.000190
   2 I       0.000000   0.000000   2.557690    0.000000   0.000000   0.000190

                 ----------------------------------------
                 |  Time  |  1-e(secs)   |  2-e(secs)   |
                 ----------------------------------------
                 |  CPU   |       0.00   |       3.47   |
                 ----------------------------------------
                 |  WALL  |       0.01   |       3.47   |
                 ----------------------------------------

  Step       Energy      Delta E   Gmax     Grms     Xrms     Xmax   Walltime
  ---- ---------------- -------- -------- -------- -------- -------- --------
@    3  -14341.07561915 -2.5D-09  0.00019  0.00011  0.00038  0.00066    166.1
                                     ok       ok       ok       ok  


      ----------------------
      Optimization converged
      ----------------------


  Step       Energy      Delta E   Gmax     Grms     Xrms     Xmax   Walltime
  ---- ---------------- -------- -------- -------- -------- -------- --------
@    3  -14341.07561915 -2.5D-09  0.00019  0.00011  0.00038  0.00066    166.1
                                     ok       ok       ok       ok  



                         Geometry "geometry" -> "geometry"
                         ---------------------------------

 Output coordinates in a.u. (scale by  1.000000000 to convert to a.u.)

  No.       Tag          Charge          X              Y              Z
 ---- ---------------- ---------- -------------- -------------- --------------
    1 I                   53.0000     0.00000000     0.00000000    -2.55769045
    2 I                   53.0000     0.00000000     0.00000000     2.55769045

      Atomic Mass 
      ----------- 

      I                126.900400


 Effective nuclear repulsion energy (a.u.)     549.1282190326

            Nuclear Dipole moment (a.u.) 
            ----------------------------
        X                 Y               Z
 ---------------- ---------------- ----------------
     0.0000000000     0.0000000000     0.0000000000

      Symmetry information
      --------------------

 Group name             D4h       
 Group number             28
 Group order              16
 No. of unique centers     1

      Symmetry unique atoms

     1

 ==============================================================================
                                internuclear distances
 ------------------------------------------------------------------------------
       center one      |      center two      | atomic units |       a.u.
 ------------------------------------------------------------------------------
    2 I                |   1 I                |     5.11538  |     5.11538
 ------------------------------------------------------------------------------
                         number of included internuclear distances:          1
 ==============================================================================




 Task  times  cpu:      164.9s     wall:      166.1s
 Summary of allocated global arrays
-----------------------------------
  No active global arrays



                         GA Statistics for process    0
                         ------------------------------

       create   destroy   get      put      acc     scatter   gather  read&inc
calls: 9021     9021     2.38e+05 3.70e+04 3.02e+04    4        0     2266     
number of processes/call 1.12e+00 1.91e+00 1.00e+00 4.00e+00 0.00e+00
bytes total:             7.84e+08 1.97e+08 6.63e+07 3.39e+03 0.00e+00 1.81e+04
bytes remote:            3.26e+08 1.34e+08 4.40e+07 2.53e+03 0.00e+00 0.00e+00
Max memory consumed for GA by this process: 3307392 bytes
MA_summarize_allocated_blocks: starting scan ...
MA_summarize_allocated_blocks: scan completed: 0 heap blocks, 0 stack blocks
MA usage statistics:

	allocation statistics:
					      heap	     stack
					      ----	     -----
	current number of blocks	         0	         0
	maximum number of blocks	        25	        53
	current total bytes		         0	         0
	maximum total bytes		   7558752	  39083456
	maximum total K-bytes		      7559	     39084
	maximum total M-bytes		         8	        40


                                NWChem Input Module
                                -------------------





                                     CITATION
                                     --------
                Please cite the following reference when publishing
                           results obtained with NWChem:

                 M. Valiev, E.J. Bylaska, N. Govind, K. Kowalski,
              T.P. Straatsma, H.J.J. van Dam, D. Wang, J. Nieplocha,
                        E. Apra, T.L. Windus, W.A. de Jong
                 "NWChem: a comprehensive and scalable open-source
                  solution for large scale molecular simulations"
                      Comput. Phys. Commun. 181, 1477 (2010)
                           doi:10.1016/j.cpc.2010.04.018

                              AUTHORS & CONTRIBUTORS
                              ----------------------
      E. J. Bylaska, W. A. de Jong, N. Govind, K. Kowalski, T. P. Straatsma,
     M. Valiev, H. J. J. Van Dam, D. Wang, E. Apra, T. L. Windus, J. Hammond,
     J. Autschbach, P. Nichols, S. Hirata, M. T. Hackler, Y. Zhao, P.-D. Fan,
      R. J. Harrison, M. Dupuis, D. M. A. Smith, K. Glaesemann, J. Nieplocha,
      V. Tipparaju, M. Krishnan, A. Vazquez-Mayagoitia, L. Jensen, M. Swart,
      Q. Wu, T. Van Voorhis, A. A. Auer, M. Nooijen, L. D. Crosby, E. Brown,
             G. Cisneros, G. I. Fann, H. Fruchtl, J. Garza, K. Hirao,
        R. Kendall, J. A. Nichols, K. Tsemekhman, K. Wolinski, J. Anchell,
       D. Bernholdt, P. Borowski, T. Clark, D. Clerc, H. Dachsel, M. Deegan,
        K. Dyall, D. Elwood, E. Glendening, M. Gutowski, A. Hess, J. Jaffe,
        B. Johnson, J. Ju, R. Kobayashi, R. Kutteh, Z. Lin, R. Littlefield,
    X. Long, B. Meng, T. Nakajima, S. Niu, L. Pollack, M. Rosing, G. Sandrone,
       M. Stave, H. Taylor, G. Thomas, J. H. van Lenthe, A. Wong, Z. Zhang.

 Total times  cpu:      164.9s     wall:      166.1s
