 argument  1 = h2o_sto3g.nw



============================== echo of input deck ==============================
echo
start molecule

title "HF SCF calculation on water with STO-3G basis"

geometry units angstrom
O      0.00000000     0.00000000     0.11726921
H      0.75698224     0.00000000    -0.46907685
H     -0.75698224     0.00000000    -0.46907685
end

basis
  O library sto-3g
  H library sto-3g
end

task scf
================================================================================


                                         
                                         


              Northwest Computational Chemistry Package (NWChem) 6.1
              ------------------------------------------------------


                    Environmental Molecular Sciences Laboratory
                       Pacific Northwest National Laboratory
                                Richland, WA 99352

                              Copyright (c) 1994-2010
                       Pacific Northwest National Laboratory
                            Battelle Memorial Institute

             NWChem is an open-source computational chemistry package
                        distributed under the terms of the
                      Educational Community License (ECL) 2.0
             A copy of the license is included with this distribution
                              in the LICENSE.TXT file

                                  ACKNOWLEDGMENT
                                  --------------

            This software and its documentation were developed at the
            EMSL at Pacific Northwest National Laboratory, a multiprogram
            national laboratory, operated for the U.S. Department of Energy
            by Battelle under Contract Number DE-AC05-76RL01830. Support
            for this work was provided by the Department of Energy Office
            of Biological and Environmental Research, Office of Basic
            Energy Sciences, and the Office of Advanced Scientific Computing.


           Job information
           ---------------

    hostname      = jmhts-MacBook-Air.local
    program       = nwchem
    date          = Wed Mar 14 11:38:24 2012

    compiled      = Sat_Mar_03_17:07:28_2012
    source        = /Users/jmht/Documents/quixote/nwchem/nwchem-src-2012-Mar-01
    nwchem branch = Development
    input         = h2o_sto3g.nw
    prefix        = molecule.
    data base     = ./molecule.db
    status        = startup
    nproc         =        1
    time left     =     -1s



           Memory information
           ------------------

    heap     =   13107201 doubles =    100.0 Mbytes
    stack    =   13107201 doubles =    100.0 Mbytes
    global   =   26214400 doubles =    200.0 Mbytes (distinct from heap & stack)
    total    =   52428802 doubles =    400.0 Mbytes
    verify   = yes
    hardfail = no 


           Directory information
           ---------------------

  0 permanent = .
  0 scratch   = .




                                NWChem Input Module
                                -------------------


                   HF SCF calculation on water with STO-3G basis
                   ---------------------------------------------

 Scaling coordinates for geometry "geometry" by  1.889725989
 (inverse scale =  0.529177249)

 C2V symmetry detected

          ------
          auto-z
          ------


                             Geometry "geometry" -> ""
                             -------------------------

 Output coordinates in angstroms (scale by  1.889725989 to convert to a.u.)

  No.       Tag          Charge          X              Y              Z
 ---- ---------------- ---------- -------------- -------------- --------------
    1 O                    8.0000     0.00000000     0.00000000     0.11726921
    2 H                    1.0000     0.75698224     0.00000000    -0.46907685
    3 H                    1.0000    -0.75698224     0.00000000    -0.46907685

      Atomic Mass 
      ----------- 

      O                 15.994910
      H                  1.007825


 Effective nuclear repulsion energy (a.u.)       9.1920946687

            Nuclear Dipole moment (a.u.) 
            ----------------------------
        X                 Y               Z
 ---------------- ---------------- ----------------
     0.0000000000     0.0000000000     0.0000000000

      Symmetry information
      --------------------

 Group name             C2v       
 Group number             16
 Group order               4
 No. of unique centers     2

      Symmetry unique atoms

     1    2



                                Z-matrix (autoz)
                                -------- 

 Units are Angstrom for bonds and degrees for angles

      Type          Name      I     J     K     L     M      Value
      ----------- --------  ----- ----- ----- ----- ----- ----------
    1 Stretch                  1     2                       0.95751
    2 Stretch                  1     3                       0.95751
    3 Bend                     2     1     3               104.47845


            XYZ format geometry
            -------------------
     3
 geometry
 O                     0.00000000     0.00000000     0.11726921
 H                     0.75698224     0.00000000    -0.46907685
 H                    -0.75698224     0.00000000    -0.46907685

 ==============================================================================
                                internuclear distances
 ------------------------------------------------------------------------------
       center one      |      center two      | atomic units |  angstroms
 ------------------------------------------------------------------------------
    2 H                |   1 O                |     1.80943  |     0.95751
    3 H                |   1 O                |     1.80943  |     0.95751
 ------------------------------------------------------------------------------
                         number of included internuclear distances:          2
 ==============================================================================



 ==============================================================================
                                 internuclear angles
 ------------------------------------------------------------------------------
        center 1       |       center 2       |       center 3       |  degrees
 ------------------------------------------------------------------------------
    2 H                |   1 O                |   3 H                |   104.48
 ------------------------------------------------------------------------------
                            number of included internuclear angles:          1
 ==============================================================================



                      Basis "ao basis" -> "" (cartesian)
                      -----
  O (Oxygen)
  ----------
            Exponent  Coefficients 
       -------------- ---------------------------------------------------------
  1 S  1.30709320E+02  0.154329
  1 S  2.38088610E+01  0.535328
  1 S  6.44360830E+00  0.444635

  2 S  5.03315130E+00 -0.099967
  2 S  1.16959610E+00  0.399513
  2 S  3.80389000E-01  0.700115

  3 P  5.03315130E+00  0.155916
  3 P  1.16959610E+00  0.607684
  3 P  3.80389000E-01  0.391957

  H (Hydrogen)
  ------------
            Exponent  Coefficients 
       -------------- ---------------------------------------------------------
  1 S  3.42525091E+00  0.154329
  1 S  6.23913730E-01  0.535328
  1 S  1.68855400E-01  0.444635



 Summary of "ao basis" -> "" (cartesian)
 ------------------------------------------------------------------------------
       Tag                 Description            Shells   Functions and Types
 ---------------- ------------------------------  ------  ---------------------
 O                           sto-3g                  3        5   2s1p
 H                           sto-3g                  1        1   1s


                                 NWChem SCF Module
                                 -----------------


                   HF SCF calculation on water with STO-3G basis



  ao basis        = "ao basis"
  functions       =     7
  atoms           =     3
  closed shells   =     5
  open shells     =     0
  charge          =   0.00
  wavefunction    = RHF 
  input vectors   = atomic
  output vectors  = ./molecule.movecs
  use symmetry    = T
  symmetry adapt  = T


 Summary of "ao basis" -> "ao basis" (cartesian)
 ------------------------------------------------------------------------------
       Tag                 Description            Shells   Functions and Types
 ---------------- ------------------------------  ------  ---------------------
 O                           sto-3g                  3        5   2s1p
 H                           sto-3g                  1        1   1s


      Symmetry analysis of basis
      --------------------------

        a1          4
        a2          0
        b1          2
        b2          1


 Forming initial guess at       0.1s


      Superposition of Atomic Density Guess
      -------------------------------------

 Sum of atomic energies:         -74.71095592

      Non-variational initial energy
      ------------------------------

 Total energy =     -74.683500
 1-e energy   =    -121.780484
 2-e energy   =      37.904889
 HOMO         =      -0.258445
 LUMO         =       0.505071


      Symmetry analysis of molecular orbitals - initial
      -------------------------------------------------

  Numbering of irreducible representations: 

     1 a1          2 a2          3 b1          4 b2      

  Orbital symmetries:

     1 a1          2 a1          3 b1          4 a1          5 b2      
     6 a1          7 b1      


 Starting SCF solution at       0.2s



 ----------------------------------------------
         Quadratically convergent ROHF

 Convergence threshold     :          1.000E-04
 Maximum no. of iterations :           30
 Final Fock-matrix accuracy:          1.000E-07
 ----------------------------------------------


 #quartets = 7.900D+01 #integrals = 1.640D+02 #direct =  0.0% #cached =100.0%


 Integral file          = ./molecule.aoints.0
 Record size in doubles =  65536        No. of integs per rec  =  43688
 Max. records in memory =      2        Max. records in file   = 149054
 No. of bits per label  =      8        No. of bits per value  =     64


              iter       energy          gnorm     gmax       time
             ----- ------------------- --------- --------- --------
                 1      -74.9243813595  6.49D-01  5.52D-01      0.1
                 2      -74.9621547150  1.36D-01  1.01D-01      0.1
                 3      -74.9629674753  2.06D-02  1.64D-02      0.1
                 4      -74.9629856144  5.45D-05  4.16D-05      0.1


       Final RHF  results 
       ------------------ 

         Total SCF energy =    -74.962985614357
      One-electron energy =   -122.365883795384
      Two-electron energy =     38.210803512371
 Nuclear repulsion energy =      9.192094668657

        Time for solution =      0.0s



       Symmetry analysis of molecular orbitals - final
       -----------------------------------------------

  Numbering of irreducible representations: 

     1 a1          2 a2          3 b1          4 b2      

  Orbital symmetries:

     1 a1          2 a1          3 b1          4 a1          5 b2      
     6 a1          7 b1      

             Final eigenvalues
             -----------------

              1      
    1  -20.2418
    2   -1.2683
    3   -0.6177
    4   -0.4531
    5   -0.3913
    6    0.6054
    7    0.7419

                       ROHF Final Molecular Orbital Analysis
                       -------------------------------------

 Vector    2  Occ=2.000000D+00  E=-1.268298D+00  Symmetry=a1
              MO Center= -2.8D-17, -9.9D-19, -7.2D-02, r^2= 5.4D-01
   Bfn.  Coefficient  Atom+Function         Bfn.  Coefficient  Atom+Function  
  ----- ------------  ---------------      ----- ------------  ---------------
     2      0.833587  1 O  s                  1     -0.232793  1 O  s          
     6      0.158700  2 H  s                  7      0.158700  3 H  s          

 Vector    3  Occ=2.000000D+00  E=-6.177034D-01  Symmetry=b1
              MO Center=  2.8D-17, -1.0D-51, -1.4D-01, r^2= 8.3D-01
   Bfn.  Coefficient  Atom+Function         Bfn.  Coefficient  Atom+Function  
  ----- ------------  ---------------      ----- ------------  ---------------
     3      0.606495  1 O  px                 6      0.445042  2 H  s          
     7     -0.445042  3 H  s          

 Vector    4  Occ=2.000000D+00  E=-4.530557D-01  Symmetry=a1
              MO Center=  0.0D+00,  2.0D-35,  1.6D-01, r^2= 6.2D-01
   Bfn.  Coefficient  Atom+Function         Bfn.  Coefficient  Atom+Function  
  ----- ------------  ---------------      ----- ------------  ---------------
     5      0.776552  1 O  pz                 2      0.536883  1 O  s          
     6     -0.277990  2 H  s                  7     -0.277990  3 H  s          

 Vector    5  Occ=2.000000D+00  E=-3.912526D-01  Symmetry=b2
              MO Center= -5.2D-33, -4.4D-18,  1.2D-01, r^2= 4.2D-01
   Bfn.  Coefficient  Atom+Function         Bfn.  Coefficient  Atom+Function  
  ----- ------------  ---------------      ----- ------------  ---------------
     4      1.000000  1 O  py         

 Vector    6  Occ=0.000000D+00  E= 6.054409D-01  Symmetry=a1
              MO Center=  6.1D-16,  5.3D-18, -3.9D-01, r^2= 1.1D+00
   Bfn.  Coefficient  Atom+Function         Bfn.  Coefficient  Atom+Function  
  ----- ------------  ---------------      ----- ------------  ---------------
     2      0.884136  1 O  s                  6     -0.796892  2 H  s          
     7     -0.796892  3 H  s                  5     -0.742518  1 O  pz         

 Vector    7  Occ=0.000000D+00  E= 7.419112D-01  Symmetry=b1
              MO Center= -7.2D-16,  3.1D-33, -2.3D-01, r^2= 1.0D+00
   Bfn.  Coefficient  Atom+Function         Bfn.  Coefficient  Atom+Function  
  ----- ------------  ---------------      ----- ------------  ---------------
     3      0.990301  1 O  px                 6     -0.838447  2 H  s          
     7      0.838447  3 H  s          


 center of mass
 --------------
 x =   0.00000000 y =   0.00000000 z =   0.09760123

 moments of inertia (a.u.)
 ------------------
           2.197735387303           0.000000000000           0.000000000000
           0.000000000000           6.322357589609           0.000000000000
           0.000000000000           0.000000000000           4.124622202307

  Mulliken analysis of the total density
  --------------------------------------

    Atom       Charge   Shell Charges
 -----------   ------   -------------------------------------------------------
    1 O    8     8.37   2.00  1.83  4.54
    2 H    1     0.82   0.82
    3 H    1     0.82   0.82

       Multipole analysis of the density wrt the origin
       ------------------------------------------------

     L   x y z        total         open         nuclear
     -   - - -        -----         ----         -------
     0   0 0 0     -0.000000      0.000000     10.000000

     1   1 0 0      0.000000      0.000000      0.000000
     1   0 1 0      0.000000      0.000000      0.000000
     1   0 0 1     -0.678952      0.000000      0.000000

     2   2 0 0     -3.240572      0.000000      4.092598
     2   1 1 0     -0.000000      0.000000      0.000000
     2   1 0 1      0.000000      0.000000      0.000000
     2   0 2 0     -4.531209      0.000000      0.000000
     2   0 1 1     -0.000000      0.000000      0.000000
     2   0 0 2     -4.009700      0.000000      1.964381


 Parallel integral file used       1 records with       0 large values


 Task  times  cpu:        0.1s     wall:        0.2s
 Summary of allocated global arrays
-----------------------------------
  No active global arrays



                         GA Statistics for process    0
                         ------------------------------

       create   destroy   get      put      acc     scatter   gather  read&inc
calls:  235      235     1563      724     1048        0        0        0     
number of processes/call 1.00e+00 1.00e+00 1.00e+00 0.00e+00 0.00e+00
bytes total:             1.64e+05 9.47e+04 5.15e+04 0.00e+00 0.00e+00 0.00e+00
bytes remote:            0.00e+00 0.00e+00 0.00e+00 0.00e+00 0.00e+00 0.00e+00
Max memory consumed for GA by this process: 5448 bytes
MA_summarize_allocated_blocks: starting scan ...
MA_summarize_allocated_blocks: scan completed: 0 heap blocks, 0 stack blocks
MA usage statistics:

	allocation statistics:
					      heap	     stack
					      ----	     -----
	current number of blocks	         0	         0
	maximum number of blocks	        18	        14
	current total bytes		         0	         0
	maximum total bytes		   1053744	  22509032
	maximum total K-bytes		      1054	     22510
	maximum total M-bytes		         2	        23


                                NWChem Input Module
                                -------------------





                                     CITATION
                                     --------
                Please cite the following reference when publishing
                           results obtained with NWChem:

                 M. Valiev, E.J. Bylaska, N. Govind, K. Kowalski,
              T.P. Straatsma, H.J.J. van Dam, D. Wang, J. Nieplocha,
                        E. Apra, T.L. Windus, W.A. de Jong
                 "NWChem: a comprehensive and scalable open-source
                  solution for large scale molecular simulations"
                      Comput. Phys. Commun. 181, 1477 (2010)
                           doi:10.1016/j.cpc.2010.04.018

                              AUTHORS & CONTRIBUTORS
                              ----------------------
      E. J. Bylaska, W. A. de Jong, N. Govind, K. Kowalski, T. P. Straatsma,
     M. Valiev, H. J. J. van Dam, D. Wang, E. Apra, T. L. Windus, J. Hammond,
    J. Autschbach, F. Aquino, J. Mullin, P. Nichols, S. Hirata, M. T. Hackler,
   Y. Zhao, P.-D. Fan, R. J. Harrison, M. Dupuis, D. M. A. Smith, K. Glaesemann,
    J. Nieplocha, V. Tipparaju, M. Krishnan, A. Vazquez-Mayagoitia, L. Jensen,
      M. Swart, Q. Wu, T. Van Voorhis, A. A. Auer, M. Nooijen, L. D. Crosby,
        E. Brown, G. Cisneros, G. I. Fann, H. Fruchtl, J. Garza, K. Hirao,
        R. Kendall, J. A. Nichols, K. Tsemekhman, K. Wolinski, J. Anchell,
       D. Bernholdt, P. Borowski, T. Clark, D. Clerc, H. Dachsel, M. Deegan,
        K. Dyall, D. Elwood, E. Glendening, M. Gutowski, A. Hess, J. Jaffe,
        B. Johnson, J. Ju, R. Kobayashi, R. Kutteh, Z. Lin, R. Littlefield,
    X. Long, B. Meng, T. Nakajima, S. Niu, R. Peverati, L. Pollack, M. Rosing,
          G. Sandrone, M. Stave, H. Taylor, G. Thomas, J. H. van Lenthe,
                                A. Wong, Z. Zhang.

 Total times  cpu:        0.1s     wall:        0.3s
