 argument  1 = h2o_sto3g_opt.nw



============================== echo of input deck ==============================
echo
start molecule

title "HF SCF optimisation  on water with STO-3G basis"

geometry units angstrom
O      0.00000000     0.00000000     0.11726921
H      0.75698224     0.00000000    -0.46907685
H     -0.75698224     0.00000000    -0.46907685
end

basis
  O library sto-3g
  H library sto-3g
end

task scf optimize
================================================================================


                                         
                                         


              Northwest Computational Chemistry Package (NWChem) 6.1
              ------------------------------------------------------


                    Environmental Molecular Sciences Laboratory
                       Pacific Northwest National Laboratory
                                Richland, WA 99352

                              Copyright (c) 1994-2010
                       Pacific Northwest National Laboratory
                            Battelle Memorial Institute

             NWChem is an open-source computational chemistry package
                        distributed under the terms of the
                      Educational Community License (ECL) 2.0
             A copy of the license is included with this distribution
                              in the LICENSE.TXT file

                                  ACKNOWLEDGMENT
                                  --------------

            This software and its documentation were developed at the
            EMSL at Pacific Northwest National Laboratory, a multiprogram
            national laboratory, operated for the U.S. Department of Energy
            by Battelle under Contract Number DE-AC05-76RL01830. Support
            for this work was provided by the Department of Energy Office
            of Biological and Environmental Research, Office of Basic
            Energy Sciences, and the Office of Advanced Scientific Computing.


           Job information
           ---------------

    hostname      = jmhts-MacBook-Air.local
    program       = nwchem
    date          = Wed Mar 14 17:21:44 2012

    compiled      = Sat_Mar_03_17:07:28_2012
    source        = /Users/jmht/Documents/quixote/nwchem/nwchem-src-2012-Mar-01
    nwchem branch = Development
    input         = h2o_sto3g_opt.nw
    prefix        = molecule.
    data base     = ./molecule.db
    status        = startup
    nproc         =        1
    time left     =     -1s



           Memory information
           ------------------

    heap     =   13107201 doubles =    100.0 Mbytes
    stack    =   13107201 doubles =    100.0 Mbytes
    global   =   26214400 doubles =    200.0 Mbytes (distinct from heap & stack)
    total    =   52428802 doubles =    400.0 Mbytes
    verify   = yes
    hardfail = no 


           Directory information
           ---------------------

  0 permanent = .
  0 scratch   = .




                                NWChem Input Module
                                -------------------


                  HF SCF optimisation  on water with STO-3G basis
                  -----------------------------------------------

 Scaling coordinates for geometry "geometry" by  1.889725989
 (inverse scale =  0.529177249)

 C2V symmetry detected

          ------
          auto-z
          ------


                             Geometry "geometry" -> ""
                             -------------------------

 Output coordinates in angstroms (scale by  1.889725989 to convert to a.u.)

  No.       Tag          Charge          X              Y              Z
 ---- ---------------- ---------- -------------- -------------- --------------
    1 O                    8.0000     0.00000000     0.00000000     0.11726921
    2 H                    1.0000     0.75698224     0.00000000    -0.46907685
    3 H                    1.0000    -0.75698224     0.00000000    -0.46907685

      Atomic Mass 
      ----------- 

      O                 15.994910
      H                  1.007825


 Effective nuclear repulsion energy (a.u.)       9.1920946687

            Nuclear Dipole moment (a.u.) 
            ----------------------------
        X                 Y               Z
 ---------------- ---------------- ----------------
     0.0000000000     0.0000000000     0.0000000000

      Symmetry information
      --------------------

 Group name             C2v       
 Group number             16
 Group order               4
 No. of unique centers     2

      Symmetry unique atoms

     1    2



                                Z-matrix (autoz)
                                -------- 

 Units are Angstrom for bonds and degrees for angles

      Type          Name      I     J     K     L     M      Value
      ----------- --------  ----- ----- ----- ----- ----- ----------
    1 Stretch                  1     2                       0.95751
    2 Stretch                  1     3                       0.95751
    3 Bend                     2     1     3               104.47845


            XYZ format geometry
            -------------------
     3
 geometry
 O                     0.00000000     0.00000000     0.11726921
 H                     0.75698224     0.00000000    -0.46907685
 H                    -0.75698224     0.00000000    -0.46907685

 ==============================================================================
                                internuclear distances
 ------------------------------------------------------------------------------
       center one      |      center two      | atomic units |  angstroms
 ------------------------------------------------------------------------------
    2 H                |   1 O                |     1.80943  |     0.95751
    3 H                |   1 O                |     1.80943  |     0.95751
 ------------------------------------------------------------------------------
                         number of included internuclear distances:          2
 ==============================================================================



 ==============================================================================
                                 internuclear angles
 ------------------------------------------------------------------------------
        center 1       |       center 2       |       center 3       |  degrees
 ------------------------------------------------------------------------------
    2 H                |   1 O                |   3 H                |   104.48
 ------------------------------------------------------------------------------
                            number of included internuclear angles:          1
 ==============================================================================



                      Basis "ao basis" -> "" (cartesian)
                      -----
  O (Oxygen)
  ----------
            Exponent  Coefficients 
       -------------- ---------------------------------------------------------
  1 S  1.30709320E+02  0.154329
  1 S  2.38088610E+01  0.535328
  1 S  6.44360830E+00  0.444635

  2 S  5.03315130E+00 -0.099967
  2 S  1.16959610E+00  0.399513
  2 S  3.80389000E-01  0.700115

  3 P  5.03315130E+00  0.155916
  3 P  1.16959610E+00  0.607684
  3 P  3.80389000E-01  0.391957

  H (Hydrogen)
  ------------
            Exponent  Coefficients 
       -------------- ---------------------------------------------------------
  1 S  3.42525091E+00  0.154329
  1 S  6.23913730E-01  0.535328
  1 S  1.68855400E-01  0.444635



 Summary of "ao basis" -> "" (cartesian)
 ------------------------------------------------------------------------------
       Tag                 Description            Shells   Functions and Types
 ---------------- ------------------------------  ------  ---------------------
 O                           sto-3g                  3        5   2s1p
 H                           sto-3g                  1        1   1s




                           NWChem Geometry Optimization
                           ----------------------------




                  HF SCF optimisation  on water with STO-3G basis


 maximum gradient threshold         (gmax) =   0.000450
 rms gradient threshold             (grms) =   0.000300
 maximum cartesian step threshold   (xmax) =   0.001800
 rms cartesian step threshold       (xrms) =   0.001200
 fixed trust radius                (trust) =   0.300000
 maximum step size to saddle      (sadstp) =   0.100000
 energy precision                  (eprec) =   1.0D-07
 maximum number of steps          (nptopt) =   20
 initial hessian option           (inhess) =    0
 line search option               (linopt) =    1
 hessian update option            (modupd) =    1
 saddle point option              (modsad) =    0
 initial eigen-mode to follow     (moddir) =    0
 initial variable to follow       (vardir) =    0
 follow first negative mode     (firstneg) =    T
 apply conjugacy                    (opcg) =    F
 source of zmatrix                         =   autoz   


          -------------------
          Energy Minimization
          -------------------


 Names of Z-matrix variables 
    1              2              3         

 Variables with the same non-blank name are constrained to be equal


 Using diagonal initial Hessian 
 Scaling for Hessian diagonals: bonds = 1.00  angles = 0.25  torsions = 0.10

          --------
          Step   0
          --------


                         Geometry "geometry" -> "geometry"
                         ---------------------------------

 Output coordinates in angstroms (scale by  1.889725989 to convert to a.u.)

  No.       Tag          Charge          X              Y              Z
 ---- ---------------- ---------- -------------- -------------- --------------
    1 O                    8.0000     0.00000000     0.00000000     0.11726921
    2 H                    1.0000     0.75698224     0.00000000    -0.46907685
    3 H                    1.0000    -0.75698224     0.00000000    -0.46907685

      Atomic Mass 
      ----------- 

      O                 15.994910
      H                  1.007825


 Effective nuclear repulsion energy (a.u.)       9.1920946687

            Nuclear Dipole moment (a.u.) 
            ----------------------------
        X                 Y               Z
 ---------------- ---------------- ----------------
     0.0000000000     0.0000000000     0.0000000000

      Symmetry information
      --------------------

 Group name             C2v       
 Group number             16
 Group order               4
 No. of unique centers     2

      Symmetry unique atoms

     1    2

                                 NWChem SCF Module
                                 -----------------


                  HF SCF optimisation  on water with STO-3G basis



  ao basis        = "ao basis"
  functions       =     7
  atoms           =     3
  closed shells   =     5
  open shells     =     0
  charge          =   0.00
  wavefunction    = RHF 
  input vectors   = atomic
  output vectors  = ./molecule.movecs
  use symmetry    = T
  symmetry adapt  = T


 Summary of "ao basis" -> "ao basis" (cartesian)
 ------------------------------------------------------------------------------
       Tag                 Description            Shells   Functions and Types
 ---------------- ------------------------------  ------  ---------------------
 O                           sto-3g                  3        5   2s1p
 H                           sto-3g                  1        1   1s


      Symmetry analysis of basis
      --------------------------

        a1          4
        a2          0
        b1          2
        b2          1


 Forming initial guess at       0.0s


      Superposition of Atomic Density Guess
      -------------------------------------

 Sum of atomic energies:         -74.71095592

      Non-variational initial energy
      ------------------------------

 Total energy =     -74.683500
 1-e energy   =    -121.780484
 2-e energy   =      37.904889
 HOMO         =      -0.258445
 LUMO         =       0.505071


      Symmetry analysis of molecular orbitals - initial
      -------------------------------------------------

  Numbering of irreducible representations: 

     1 a1          2 a2          3 b1          4 b2      

  Orbital symmetries:

     1 a1          2 a1          3 b1          4 a1          5 b2      
     6 a1          7 b1      


 Starting SCF solution at       0.1s



 ----------------------------------------------
         Quadratically convergent ROHF

 Convergence threshold     :          1.000E-04
 Maximum no. of iterations :           30
 Final Fock-matrix accuracy:          1.000E-07
 ----------------------------------------------


 #quartets = 7.900D+01 #integrals = 1.640D+02 #direct =  0.0% #cached =100.0%


 Integral file          = ./molecule.aoints.0
 Record size in doubles =  65536        No. of integs per rec  =  43688
 Max. records in memory =      2        Max. records in file   = 148936
 No. of bits per label  =      8        No. of bits per value  =     64


              iter       energy          gnorm     gmax       time
             ----- ------------------- --------- --------- --------
                 1      -74.9243813595  6.49D-01  5.52D-01      0.1
                 2      -74.9621547150  1.36D-01  1.01D-01      0.1
                 3      -74.9629674753  2.06D-02  1.64D-02      0.1
                 4      -74.9629856144  5.45D-05  4.16D-05      0.1


       Final RHF  results 
       ------------------ 

         Total SCF energy =    -74.962985614357
      One-electron energy =   -122.365883795384
      Two-electron energy =     38.210803512371
 Nuclear repulsion energy =      9.192094668657

        Time for solution =      0.0s



       Symmetry analysis of molecular orbitals - final
       -----------------------------------------------

  Numbering of irreducible representations: 

     1 a1          2 a2          3 b1          4 b2      

  Orbital symmetries:

     1 a1          2 a1          3 b1          4 a1          5 b2      
     6 a1          7 b1      

             Final eigenvalues
             -----------------

              1      
    1  -20.2418
    2   -1.2683
    3   -0.6177
    4   -0.4531
    5   -0.3913
    6    0.6054
    7    0.7419

                       ROHF Final Molecular Orbital Analysis
                       -------------------------------------

 Vector    2  Occ=2.000000D+00  E=-1.268298D+00  Symmetry=a1
              MO Center= -2.8D-17, -9.9D-19, -7.2D-02, r^2= 5.4D-01
   Bfn.  Coefficient  Atom+Function         Bfn.  Coefficient  Atom+Function  
  ----- ------------  ---------------      ----- ------------  ---------------
     2      0.833587  1 O  s                  1     -0.232793  1 O  s          
     6      0.158700  2 H  s                  7      0.158700  3 H  s          

 Vector    3  Occ=2.000000D+00  E=-6.177034D-01  Symmetry=b1
              MO Center=  2.8D-17, -1.0D-51, -1.4D-01, r^2= 8.3D-01
   Bfn.  Coefficient  Atom+Function         Bfn.  Coefficient  Atom+Function  
  ----- ------------  ---------------      ----- ------------  ---------------
     3      0.606495  1 O  px                 6      0.445042  2 H  s          
     7     -0.445042  3 H  s          

 Vector    4  Occ=2.000000D+00  E=-4.530557D-01  Symmetry=a1
              MO Center=  0.0D+00,  2.0D-35,  1.6D-01, r^2= 6.2D-01
   Bfn.  Coefficient  Atom+Function         Bfn.  Coefficient  Atom+Function  
  ----- ------------  ---------------      ----- ------------  ---------------
     5      0.776552  1 O  pz                 2      0.536883  1 O  s          
     6     -0.277990  2 H  s                  7     -0.277990  3 H  s          

 Vector    5  Occ=2.000000D+00  E=-3.912526D-01  Symmetry=b2
              MO Center= -5.2D-33, -4.4D-18,  1.2D-01, r^2= 4.2D-01
   Bfn.  Coefficient  Atom+Function         Bfn.  Coefficient  Atom+Function  
  ----- ------------  ---------------      ----- ------------  ---------------
     4      1.000000  1 O  py         

 Vector    6  Occ=0.000000D+00  E= 6.054409D-01  Symmetry=a1
              MO Center=  6.1D-16,  5.3D-18, -3.9D-01, r^2= 1.1D+00
   Bfn.  Coefficient  Atom+Function         Bfn.  Coefficient  Atom+Function  
  ----- ------------  ---------------      ----- ------------  ---------------
     2      0.884136  1 O  s                  6     -0.796892  2 H  s          
     7     -0.796892  3 H  s                  5     -0.742518  1 O  pz         

 Vector    7  Occ=0.000000D+00  E= 7.419112D-01  Symmetry=b1
              MO Center= -7.2D-16,  3.1D-33, -2.3D-01, r^2= 1.0D+00
   Bfn.  Coefficient  Atom+Function         Bfn.  Coefficient  Atom+Function  
  ----- ------------  ---------------      ----- ------------  ---------------
     3      0.990301  1 O  px                 6     -0.838447  2 H  s          
     7      0.838447  3 H  s          


 center of mass
 --------------
 x =   0.00000000 y =   0.00000000 z =   0.09760123

 moments of inertia (a.u.)
 ------------------
           2.197735387303           0.000000000000           0.000000000000
           0.000000000000           6.322357589609           0.000000000000
           0.000000000000           0.000000000000           4.124622202307

  Mulliken analysis of the total density
  --------------------------------------

    Atom       Charge   Shell Charges
 -----------   ------   -------------------------------------------------------
    1 O    8     8.37   2.00  1.83  4.54
    2 H    1     0.82   0.82
    3 H    1     0.82   0.82

       Multipole analysis of the density wrt the origin
       ------------------------------------------------

     L   x y z        total         open         nuclear
     -   - - -        -----         ----         -------
     0   0 0 0     -0.000000      0.000000     10.000000

     1   1 0 0      0.000000      0.000000      0.000000
     1   0 1 0      0.000000      0.000000      0.000000
     1   0 0 1     -0.678952      0.000000      0.000000

     2   2 0 0     -3.240572      0.000000      4.092598
     2   1 1 0     -0.000000      0.000000      0.000000
     2   1 0 1      0.000000      0.000000      0.000000
     2   0 2 0     -4.531209      0.000000      0.000000
     2   0 1 1     -0.000000      0.000000      0.000000
     2   0 0 2     -4.009700      0.000000      1.964381


 Parallel integral file used       1 records with       0 large values

                              NWChem Gradients Module
                              -----------------------


                  HF SCF optimisation  on water with STO-3G basis


  wavefunction    =   RHF     

  Using symmetry


                         RHF ENERGY GRADIENTS

    atom               coordinates                        gradient
                 x          y          z           x          y          z
   1 O       0.000000   0.000000   0.221607    0.000000   0.000000  -0.061840
   2 H       1.430489   0.000000  -0.886427   -0.023949   0.000000   0.030920
   3 H      -1.430489   0.000000  -0.886427    0.023949   0.000000   0.030920

                 ----------------------------------------
                 |  Time  |  1-e(secs)   |  2-e(secs)   |
                 ----------------------------------------
                 |  CPU   |       0.00   |       0.00   |
                 ----------------------------------------
                 |  WALL  |       0.00   |       0.00   |
                 ----------------------------------------

@ Step       Energy      Delta E   Gmax     Grms     Xrms     Xmax   Walltime
@ ---- ---------------- -------- -------- -------- -------- -------- --------
@    0     -74.96298561  0.0D+00  0.03787  0.03139  0.00000  0.00000      0.2
                                                                    



                                Z-matrix (autoz)
                                -------- 

 Units are Angstrom for bonds and degrees for angles

      Type          Name      I     J     K     L     M      Value     Gradient
      ----------- --------  ----- ----- ----- ----- ----- ---------- ----------
    1 Stretch                  1     2                       0.95751   -0.03787
    2 Stretch                  1     3                       0.95751   -0.03787
    3 Bend                     2     1     3               104.47845    0.00936

                                 NWChem SCF Module
                                 -----------------


                  HF SCF optimisation  on water with STO-3G basis



  ao basis        = "ao basis"
  functions       =     7
  atoms           =     3
  closed shells   =     5
  open shells     =     0
  charge          =   0.00
  wavefunction    = RHF 
  input vectors   = ./molecule.movecs
  output vectors  = ./molecule.movecs
  use symmetry    = T
  symmetry adapt  = T


 Summary of "ao basis" -> "ao basis" (cartesian)
 ------------------------------------------------------------------------------
       Tag                 Description            Shells   Functions and Types
 ---------------- ------------------------------  ------  ---------------------
 O                           sto-3g                  3        5   2s1p
 H                           sto-3g                  1        1   1s


      Symmetry analysis of basis
      --------------------------

        a1          4
        a2          0
        b1          2
        b2          1


 Forming initial guess at       0.2s


 Loading old vectors from job with title :

HF SCF optimisation  on water with STO-3G basis


      Symmetry analysis of molecular orbitals - initial
      -------------------------------------------------

  Numbering of irreducible representations: 

     1 a1          2 a2          3 b1          4 b2      

  Orbital symmetries:

     1 a1          2 a1          3 b1          4 a1          5 b2      
     6 a1          7 b1      


 Starting SCF solution at       0.2s



 ----------------------------------------------
         Quadratically convergent ROHF

 Convergence threshold     :          1.000E-04
 Maximum no. of iterations :           30
 Final Fock-matrix accuracy:          1.000E-07
 ----------------------------------------------


 #quartets = 7.900D+01 #integrals = 1.640D+02 #direct =  0.0% #cached =100.0%


 Integral file          = ./molecule.aoints.0
 Record size in doubles =  65536        No. of integs per rec  =  43688
 Max. records in memory =      2        Max. records in file   = 148936
 No. of bits per label  =      8        No. of bits per value  =     64


              iter       energy          gnorm     gmax       time
             ----- ------------------- --------- --------- --------
                 1      -74.9631387575  1.16D-01  9.34D-02      0.1
                 2      -74.9647154510  6.37D-03  4.58D-03      0.1
                 3      -74.9647184181  6.79D-07  5.46D-07      0.1


       Final RHF  results 
       ------------------ 

         Total SCF energy =    -74.964718418072
      One-electron energy =   -121.462734827331
      Two-electron energy =     37.794538223922
 Nuclear repulsion energy =      8.703478185337

        Time for solution =      0.0s



       Symmetry analysis of molecular orbitals - final
       -----------------------------------------------

  Numbering of irreducible representations: 

     1 a1          2 a2          3 b1          4 b2      

  Orbital symmetries:

     1 a1          2 a1          3 b1          4 a1          5 b2      
     6 a1          7 b1      

             Final eigenvalues
             -----------------

              1      
    1  -20.2563
    2   -1.2481
    3   -0.5800
    4   -0.4599
    5   -0.3925
    6    0.5619
    7    0.6633

                       ROHF Final Molecular Orbital Analysis
                       -------------------------------------

 Vector    2  Occ=2.000000D+00  E=-1.248068D+00  Symmetry=a1
              MO Center= -4.2D-17, -9.4D-19, -1.7D-02, r^2= 5.4D-01
   Bfn.  Coefficient  Atom+Function         Bfn.  Coefficient  Atom+Function  
  ----- ------------  ---------------      ----- ------------  ---------------
     2      0.853015  1 O  s                  1     -0.234730  1 O  s          
     6      0.153310  2 H  s                  7      0.153310  3 H  s          

 Vector    3  Occ=2.000000D+00  E=-5.800290D-01  Symmetry=b1
              MO Center=  2.8D-17, -5.6D-37, -1.3D-01, r^2= 8.6D-01
   Bfn.  Coefficient  Atom+Function         Bfn.  Coefficient  Atom+Function  
  ----- ------------  ---------------      ----- ------------  ---------------
     3      0.615049  1 O  px                 6      0.450841  2 H  s          
     7     -0.450841  3 H  s          

 Vector    4  Occ=2.000000D+00  E=-4.599075D-01  Symmetry=a1
              MO Center=  0.0D+00,  4.2D-19,  1.6D-01, r^2= 6.9D-01
   Bfn.  Coefficient  Atom+Function         Bfn.  Coefficient  Atom+Function  
  ----- ------------  ---------------      ----- ------------  ---------------
     5      0.747027  1 O  pz                 2      0.531910  1 O  s          
     6     -0.305078  2 H  s                  7     -0.305078  3 H  s          

 Vector    5  Occ=2.000000D+00  E=-3.925164D-01  Symmetry=b2
              MO Center= -5.6D-33, -4.7D-18,  1.7D-01, r^2= 4.2D-01
   Bfn.  Coefficient  Atom+Function         Bfn.  Coefficient  Atom+Function  
  ----- ------------  ---------------      ----- ------------  ---------------
     4      1.000000  1 O  py         

 Vector    6  Occ=0.000000D+00  E= 5.619166D-01  Symmetry=a1
              MO Center=  6.1D-16,  5.2D-18, -3.7D-01, r^2= 1.1D+00
   Bfn.  Coefficient  Atom+Function         Bfn.  Coefficient  Atom+Function  
  ----- ------------  ---------------      ----- ------------  ---------------
     2      0.780130  1 O  s                  5     -0.768189  1 O  pz         
     6     -0.752065  2 H  s                  7     -0.752065  3 H  s          

 Vector    7  Occ=0.000000D+00  E= 6.632681D-01  Symmetry=b1
              MO Center= -6.7D-16,  0.0D+00, -2.2D-01, r^2= 1.0D+00
   Bfn.  Coefficient  Atom+Function         Bfn.  Coefficient  Atom+Function  
  ----- ------------  ---------------      ----- ------------  ---------------
     3      0.943982  1 O  px                 6     -0.797398  2 H  s          
     7      0.797398  3 H  s          


 center of mass
 --------------
 x =   0.00000000 y =   0.00000000 z =   0.17484518

 moments of inertia (a.u.)
 ------------------
           2.784796110099           0.000000000000           0.000000000000
           0.000000000000           7.033815787773           0.000000000000
           0.000000000000           0.000000000000           4.249019677674

  Mulliken analysis of the total density
  --------------------------------------

    Atom       Charge   Shell Charges
 -----------   ------   -------------------------------------------------------
    1 O    8     8.31   2.00  1.86  4.45
    2 H    1     0.85   0.85
    3 H    1     0.85   0.85

       Multipole analysis of the density wrt the origin
       ------------------------------------------------

     L   x y z        total         open         nuclear
     -   - - -        -----         ----         -------
     0   0 0 0     -0.000000      0.000000     10.000000

     1   1 0 0      0.000000      0.000000      0.000000
     1   0 1 0      0.000000      0.000000      0.000000
     1   0 0 1     -0.662213      0.000000      0.649789

     2   2 0 0     -3.360070      0.000000      4.216029
     2   1 1 0     -0.000000      0.000000      0.000000
     2   1 0 1      0.000000      0.000000      0.000000
     2   0 2 0     -4.569383      0.000000      0.000000
     2   0 1 1     -0.000000      0.000000      0.000000
     2   0 0 2     -4.036794      0.000000      2.531330


 Parallel integral file used       1 records with       0 large values

 Line search: 
     step= 1.00 grad=-9.7D-03 hess= 8.0D-03 energy=    -74.964718 mode=downhill
 new step= 0.61                   predicted energy=    -74.965943

          --------
          Step   1
          --------


                         Geometry "geometry" -> "geometry"
                         ---------------------------------

 Output coordinates in angstroms (scale by  1.889725989 to convert to a.u.)

  No.       Tag          Charge          X              Y              Z
 ---- ---------------- ---------- -------------- -------------- --------------
    1 O                    8.0000     0.00000000     0.00000000     0.14694180
    2 H                    1.0000     0.76453388     0.00000000    -0.48391314
    3 H                    1.0000    -0.76453388     0.00000000    -0.48391314

      Atomic Mass 
      ----------- 

      O                 15.994910
      H                  1.007825


 Effective nuclear repulsion energy (a.u.)       8.8880293281

            Nuclear Dipole moment (a.u.) 
            ----------------------------
        X                 Y               Z
 ---------------- ---------------- ----------------
     0.0000000000     0.0000000000     0.3925114462

      Symmetry information
      --------------------

 Group name             C2v       
 Group number             16
 Group order               4
 No. of unique centers     2

      Symmetry unique atoms

     1    2

                                 NWChem SCF Module
                                 -----------------


                  HF SCF optimisation  on water with STO-3G basis



  ao basis        = "ao basis"
  functions       =     7
  atoms           =     3
  closed shells   =     5
  open shells     =     0
  charge          =   0.00
  wavefunction    = RHF 
  input vectors   = ./molecule.movecs
  output vectors  = ./molecule.movecs
  use symmetry    = T
  symmetry adapt  = T


 Summary of "ao basis" -> "ao basis" (cartesian)
 ------------------------------------------------------------------------------
       Tag                 Description            Shells   Functions and Types
 ---------------- ------------------------------  ------  ---------------------
 O                           sto-3g                  3        5   2s1p
 H                           sto-3g                  1        1   1s


      Symmetry analysis of basis
      --------------------------

        a1          4
        a2          0
        b1          2
        b2          1


 Forming initial guess at       0.3s


 Loading old vectors from job with title :

HF SCF optimisation  on water with STO-3G basis


      Symmetry analysis of molecular orbitals - initial
      -------------------------------------------------

  Numbering of irreducible representations: 

     1 a1          2 a2          3 b1          4 b2      

  Orbital symmetries:

     1 a1          2 a1          3 b1          4 a1          5 b2      
     6 a1          7 b1      


 Starting SCF solution at       0.3s



 ----------------------------------------------
         Quadratically convergent ROHF

 Convergence threshold     :          1.000E-04
 Maximum no. of iterations :           30
 Final Fock-matrix accuracy:          1.000E-07
 ----------------------------------------------


 #quartets = 7.900D+01 #integrals = 1.640D+02 #direct =  0.0% #cached =100.0%


 Integral file          = ./molecule.aoints.0
 Record size in doubles =  65536        No. of integs per rec  =  43688
 Max. records in memory =      2        Max. records in file   = 148936
 No. of bits per label  =      8        No. of bits per value  =     64


              iter       energy          gnorm     gmax       time
             ----- ------------------- --------- --------- --------
                 1      -74.9656313127  4.30D-02  3.53D-02      0.2
                 2      -74.9658520832  1.56D-04  1.08D-04      0.2
                 3      -74.9658520861  7.22D-06  5.12D-06      0.2


       Final RHF  results 
       ------------------ 

         Total SCF energy =    -74.965852086139
      One-electron energy =   -121.807247801319
      Two-electron energy =     37.953366387113
 Nuclear repulsion energy =      8.888029328066

        Time for solution =      0.0s



       Symmetry analysis of molecular orbitals - final
       -----------------------------------------------

  Numbering of irreducible representations: 

     1 a1          2 a2          3 b1          4 b2      

  Orbital symmetries:

     1 a1          2 a1          3 b1          4 a1          5 b2      
     6 a1          7 b1      

             Final eigenvalues
             -----------------

              1      
    1  -20.2507
    2   -1.2557
    3   -0.5945
    4   -0.4574
    5   -0.3919
    6    0.5787
    7    0.6931

                       ROHF Final Molecular Orbital Analysis
                       -------------------------------------

 Vector    2  Occ=2.000000D+00  E=-1.255714D+00  Symmetry=a1
              MO Center= -2.8D-17, -9.6D-19, -3.9D-02, r^2= 5.4D-01
   Bfn.  Coefficient  Atom+Function         Bfn.  Coefficient  Atom+Function  
  ----- ------------  ---------------      ----- ------------  ---------------
     2      0.845355  1 O  s                  1     -0.233918  1 O  s          
     6      0.155551  2 H  s                  7      0.155551  3 H  s          

 Vector    3  Occ=2.000000D+00  E=-5.945349D-01  Symmetry=b1
              MO Center=  2.8D-17,  3.8D-37, -1.3D-01, r^2= 8.5D-01
   Bfn.  Coefficient  Atom+Function         Bfn.  Coefficient  Atom+Function  
  ----- ------------  ---------------      ----- ------------  ---------------
     3      0.611131  1 O  px                 6      0.448872  2 H  s          
     7     -0.448872  3 H  s          

 Vector    4  Occ=2.000000D+00  E=-4.573680D-01  Symmetry=a1
              MO Center= -6.9D-18,  2.7D-19,  1.6D-01, r^2= 6.6D-01
   Bfn.  Coefficient  Atom+Function         Bfn.  Coefficient  Atom+Function  
  ----- ------------  ---------------      ----- ------------  ---------------
     5      0.758365  1 O  pz                 2      0.534938  1 O  s          
     6     -0.294844  2 H  s                  7     -0.294844  3 H  s          

 Vector    5  Occ=2.000000D+00  E=-3.919186D-01  Symmetry=b2
              MO Center= -5.4D-33, -4.6D-18,  1.5D-01, r^2= 4.2D-01
   Bfn.  Coefficient  Atom+Function         Bfn.  Coefficient  Atom+Function  
  ----- ------------  ---------------      ----- ------------  ---------------
     4      1.000000  1 O  py         

 Vector    6  Occ=0.000000D+00  E= 5.786687D-01  Symmetry=a1
              MO Center=  0.0D+00,  5.3D-18, -3.8D-01, r^2= 1.1D+00
   Bfn.  Coefficient  Atom+Function         Bfn.  Coefficient  Atom+Function  
  ----- ------------  ---------------      ----- ------------  ---------------
     2      0.819361  1 O  s                  6     -0.769157  2 H  s          
     7     -0.769157  3 H  s                  5     -0.758791  1 O  pz         

 Vector    7  Occ=0.000000D+00  E= 6.930743D-01  Symmetry=b1
              MO Center=  5.6D-17, -4.6D-33, -2.3D-01, r^2= 1.0D+00
   Bfn.  Coefficient  Atom+Function         Bfn.  Coefficient  Atom+Function  
  ----- ------------  ---------------      ----- ------------  ---------------
     3      0.961558  1 O  px                 6     -0.812172  2 H  s          
     7      0.812172  3 H  s          


 center of mass
 --------------
 x =   0.00000000 y =   0.00000000 z =   0.14426118

 moments of inertia (a.u.)
 ------------------
           2.544054444024           0.000000000000           0.000000000000
           0.000000000000           6.751381419570           0.000000000000
           0.000000000000           0.000000000000           4.207326975546

  Mulliken analysis of the total density
  --------------------------------------

    Atom       Charge   Shell Charges
 -----------   ------   -------------------------------------------------------
    1 O    8     8.33   2.00  1.85  4.48
    2 H    1     0.83   0.83
    3 H    1     0.83   0.83

       Multipole analysis of the density wrt the origin
       ------------------------------------------------

     L   x y z        total         open         nuclear
     -   - - -        -----         ----         -------
     0   0 0 0     -0.000000      0.000000     10.000000

     1   1 0 0      0.000000      0.000000      0.000000
     1   0 1 0      0.000000      0.000000      0.000000
     1   0 0 1     -0.669391      0.000000      0.392511

     2   2 0 0     -3.313080      0.000000      4.174660
     2   1 1 0     -0.000000      0.000000      0.000000
     2   1 0 1      0.000000      0.000000      0.000000
     2   0 2 0     -4.554913      0.000000      0.000000
     2   0 1 1     -0.000000      0.000000      0.000000
     2   0 0 2     -4.027567      0.000000      2.289334


 Parallel integral file used       1 records with       0 large values

                              NWChem Gradients Module
                              -----------------------


                  HF SCF optimisation  on water with STO-3G basis


  wavefunction    =   RHF     

  Using symmetry


                         RHF ENERGY GRADIENTS

    atom               coordinates                        gradient
                 x          y          z           x          y          z
   1 O       0.000000   0.000000   0.277680    0.000000   0.000000  -0.000659
   2 H       1.444760   0.000000  -0.914463    0.003771   0.000000   0.000330
   3 H      -1.444760   0.000000  -0.914463   -0.003771   0.000000   0.000330

                 ----------------------------------------
                 |  Time  |  1-e(secs)   |  2-e(secs)   |
                 ----------------------------------------
                 |  CPU   |       0.00   |       0.00   |
                 ----------------------------------------
                 |  WALL  |       0.00   |       0.00   |
                 ----------------------------------------

  Step       Energy      Delta E   Gmax     Grms     Xrms     Xmax   Walltime
  ---- ---------------- -------- -------- -------- -------- -------- --------
@    1     -74.96585209 -2.9D-03  0.00270  0.00268  0.02393  0.05751      0.4
                                                                    



                                Z-matrix (autoz)
                                -------- 

 Units are Angstrom for bonds and degrees for angles

      Type          Name      I     J     K     L     M      Value     Gradient
      ----------- --------  ----- ----- ----- ----- ----- ---------- ----------
    1 Stretch                  1     2                       0.99121    0.00270
    2 Stretch                  1     3                       0.99121    0.00270
    3 Bend                     2     1     3               100.94453    0.00263

                                 NWChem SCF Module
                                 -----------------


                  HF SCF optimisation  on water with STO-3G basis



  ao basis        = "ao basis"
  functions       =     7
  atoms           =     3
  closed shells   =     5
  open shells     =     0
  charge          =   0.00
  wavefunction    = RHF 
  input vectors   = ./molecule.movecs
  output vectors  = ./molecule.movecs
  use symmetry    = T
  symmetry adapt  = T


 Summary of "ao basis" -> "ao basis" (cartesian)
 ------------------------------------------------------------------------------
       Tag                 Description            Shells   Functions and Types
 ---------------- ------------------------------  ------  ---------------------
 O                           sto-3g                  3        5   2s1p
 H                           sto-3g                  1        1   1s


      Symmetry analysis of basis
      --------------------------

        a1          4
        a2          0
        b1          2
        b2          1


 Forming initial guess at       0.4s


 Loading old vectors from job with title :

HF SCF optimisation  on water with STO-3G basis


      Symmetry analysis of molecular orbitals - initial
      -------------------------------------------------

  Numbering of irreducible representations: 

     1 a1          2 a2          3 b1          4 b2      

  Orbital symmetries:

     1 a1          2 a1          3 b1          4 a1          5 b2      
     6 a1          7 b1      


 Starting SCF solution at       0.4s



 ----------------------------------------------
         Quadratically convergent ROHF

 Convergence threshold     :          1.000E-04
 Maximum no. of iterations :           30
 Final Fock-matrix accuracy:          1.000E-07
 ----------------------------------------------


 #quartets = 7.900D+01 #integrals = 1.640D+02 #direct =  0.0% #cached =100.0%


 Integral file          = ./molecule.aoints.0
 Record size in doubles =  65536        No. of integs per rec  =  43688
 Max. records in memory =      2        Max. records in file   = 148936
 No. of bits per label  =      8        No. of bits per value  =     64


              iter       energy          gnorm     gmax       time
             ----- ------------------- --------- --------- --------
                 1      -74.9658521487  9.39D-03  7.40D-03      0.2
                 2      -74.9658661469  5.16D-05  4.29D-05      0.2


       Final RHF  results 
       ------------------ 

         Total SCF energy =    -74.965866146895
      One-electron energy =   -121.848093728293
      Two-electron energy =     37.964872721410
 Nuclear repulsion energy =      8.917354859988

        Time for solution =      0.0s



       Symmetry analysis of molecular orbitals - final
       -----------------------------------------------

  Numbering of irreducible representations: 

     1 a1          2 a2          3 b1          4 b2      

  Orbital symmetries:

     1 a1          2 a1          3 b1          4 a1          5 b2      
     6 a1          7 b1      

             Final eigenvalues
             -----------------

              1      
    1  -20.2524
    2   -1.2589
    3   -0.5929
    4   -0.4618
    5   -0.3932
    6    0.5839
    7    0.6916

                       ROHF Final Molecular Orbital Analysis
                       -------------------------------------

 Vector    2  Occ=2.000000D+00  E=-1.258895D+00  Symmetry=a1
              MO Center= -3.5D-17, -9.2D-19, -3.7D-02, r^2= 5.4D-01
   Bfn.  Coefficient  Atom+Function         Bfn.  Coefficient  Atom+Function  
  ----- ------------  ---------------      ----- ------------  ---------------
     2      0.843867  1 O  s                  1     -0.233655  1 O  s          
     6      0.155583  2 H  s                  7      0.155583  3 H  s          

 Vector    3  Occ=2.000000D+00  E=-5.928894D-01  Symmetry=b1
              MO Center=  0.0D+00,  0.0D+00, -1.3D-01, r^2= 8.4D-01
   Bfn.  Coefficient  Atom+Function         Bfn.  Coefficient  Atom+Function  
  ----- ------------  ---------------      ----- ------------  ---------------
     3      0.614121  1 O  px                 6      0.449579  2 H  s          
     7     -0.449579  3 H  s          

 Vector    4  Occ=2.000000D+00  E=-4.617703D-01  Symmetry=a1
              MO Center= -6.9D-18,  3.1D-19,  1.6D-01, r^2= 6.6D-01
   Bfn.  Coefficient  Atom+Function         Bfn.  Coefficient  Atom+Function  
  ----- ------------  ---------------      ----- ------------  ---------------
     5      0.753493  1 O  pz                 2      0.540826  1 O  s          
     6     -0.295581  2 H  s                  7     -0.295581  3 H  s          

 Vector    5  Occ=2.000000D+00  E=-3.932069D-01  Symmetry=b2
              MO Center= -5.4D-33, -4.5D-18,  1.5D-01, r^2= 4.2D-01
   Bfn.  Coefficient  Atom+Function         Bfn.  Coefficient  Atom+Function  
  ----- ------------  ---------------      ----- ------------  ---------------
     4      1.000000  1 O  py         

 Vector    6  Occ=0.000000D+00  E= 5.839240D-01  Symmetry=a1
              MO Center=  0.0D+00,  5.2D-18, -3.8D-01, r^2= 1.1D+00
   Bfn.  Coefficient  Atom+Function         Bfn.  Coefficient  Atom+Function  
  ----- ------------  ---------------      ----- ------------  ---------------
     2      0.819773  1 O  s                  5     -0.767764  1 O  pz         
     6     -0.768700  2 H  s                  7     -0.768700  3 H  s          

 Vector    7  Occ=0.000000D+00  E= 6.916249D-01  Symmetry=b1
              MO Center=  0.0D+00,  0.0D+00, -2.3D-01, r^2= 1.0D+00
   Bfn.  Coefficient  Atom+Function         Bfn.  Coefficient  Atom+Function  
  ----- ------------  ---------------      ----- ------------  ---------------
     3      0.957861  1 O  px                 6     -0.816398  2 H  s          
     7      0.816398  3 H  s          


 center of mass
 --------------
 x =   0.00000000 y =   0.00000000 z =   0.15449617

 moments of inertia (a.u.)
 ------------------
           2.623407657410           0.000000000000           0.000000000000
           0.000000000000           6.701965004758           0.000000000000
           0.000000000000           0.000000000000           4.078557347348

  Mulliken analysis of the total density
  --------------------------------------

    Atom       Charge   Shell Charges
 -----------   ------   -------------------------------------------------------
    1 O    8     8.33   2.00  1.85  4.48
    2 H    1     0.83   0.83
    3 H    1     0.83   0.83

       Multipole analysis of the density wrt the origin
       ------------------------------------------------

     L   x y z        total         open         nuclear
     -   - - -        -----         ----         -------
     0   0 0 0     -0.000000      0.000000     10.000000

     1   1 0 0      0.000000      0.000000      0.000000
     1   0 1 0      0.000000      0.000000      0.000000
     1   0 0 1     -0.674816      0.000000      0.478610

     2   2 0 0     -3.354304      0.000000      4.046890
     2   1 1 0     -0.000000      0.000000      0.000000
     2   1 0 1     -0.000000      0.000000      0.000000
     2   0 2 0     -4.554103      0.000000      0.000000
     2   0 1 1     -0.000000      0.000000      0.000000
     2   0 0 2     -4.020826      0.000000      2.367762


 Parallel integral file used       1 records with       0 large values

 Line search: 
     step= 1.00 grad=-1.8D-04 hess= 1.7D-04 energy=    -74.965866 mode=downhill
 new step= 0.54                   predicted energy=    -74.965901

          --------
          Step   2
          --------


                         Geometry "geometry" -> "geometry"
                         ---------------------------------

 Output coordinates in angstroms (scale by  1.889725989 to convert to a.u.)

  No.       Tag          Charge          X              Y              Z
 ---- ---------------- ---------- -------------- -------------- --------------
    1 O                    8.0000     0.00000000     0.00000000     0.15049033
    2 H                    1.0000     0.75815253     0.00000000    -0.48568741
    3 H                    1.0000    -0.75815253     0.00000000    -0.48568741

      Atomic Mass 
      ----------- 

      O                 15.994910
      H                  1.007825


 Effective nuclear repulsion energy (a.u.)       8.9038940403

            Nuclear Dipole moment (a.u.) 
            ----------------------------
        X                 Y               Z
 ---------------- ---------------- ----------------
     0.0000000000     0.0000000000     0.4394516323

      Symmetry information
      --------------------

 Group name             C2v       
 Group number             16
 Group order               4
 No. of unique centers     2

      Symmetry unique atoms

     1    2

                                 NWChem SCF Module
                                 -----------------


                  HF SCF optimisation  on water with STO-3G basis



  ao basis        = "ao basis"
  functions       =     7
  atoms           =     3
  closed shells   =     5
  open shells     =     0
  charge          =   0.00
  wavefunction    = RHF 
  input vectors   = ./molecule.movecs
  output vectors  = ./molecule.movecs
  use symmetry    = T
  symmetry adapt  = T


 Summary of "ao basis" -> "ao basis" (cartesian)
 ------------------------------------------------------------------------------
       Tag                 Description            Shells   Functions and Types
 ---------------- ------------------------------  ------  ---------------------
 O                           sto-3g                  3        5   2s1p
 H                           sto-3g                  1        1   1s


      Symmetry analysis of basis
      --------------------------

        a1          4
        a2          0
        b1          2
        b2          1


 Forming initial guess at       0.5s


 Loading old vectors from job with title :

HF SCF optimisation  on water with STO-3G basis


      Symmetry analysis of molecular orbitals - initial
      -------------------------------------------------

  Numbering of irreducible representations: 

     1 a1          2 a2          3 b1          4 b2      

  Orbital symmetries:

     1 a1          2 a1          3 b1          4 a1          5 b2      
     6 a1          7 b1      


 Starting SCF solution at       0.5s



 ----------------------------------------------
         Quadratically convergent ROHF

 Convergence threshold     :          1.000E-04
 Maximum no. of iterations :           30
 Final Fock-matrix accuracy:          1.000E-07
 ----------------------------------------------


 #quartets = 7.900D+01 #integrals = 1.640D+02 #direct =  0.0% #cached =100.0%


 Integral file          = ./molecule.aoints.0
 Record size in doubles =  65536        No. of integs per rec  =  43688
 Max. records in memory =      2        Max. records in file   = 148936
 No. of bits per label  =      8        No. of bits per value  =     64


              iter       energy          gnorm     gmax       time
             ----- ------------------- --------- --------- --------
                 1      -74.9658980288  4.30D-03  3.41D-03      0.3
                 2      -74.9659009824  2.46D-06  1.96D-06      0.3


       Final RHF  results 
       ------------------ 

         Total SCF energy =    -74.965900982414
      One-electron energy =   -121.829336455960
      Two-electron energy =     37.959541433232
 Nuclear repulsion energy =      8.903894040313

        Time for solution =      0.0s



       Symmetry analysis of molecular orbitals - final
       -----------------------------------------------

  Numbering of irreducible representations: 

     1 a1          2 a2          3 b1          4 b2      

  Orbital symmetries:

     1 a1          2 a1          3 b1          4 a1          5 b2      
     6 a1          7 b1      

             Final eigenvalues
             -----------------

              1      
    1  -20.2516
    2   -1.2574
    3   -0.5937
    4   -0.4598
    5   -0.3926
    6    0.5816
    7    0.6923

                       ROHF Final Molecular Orbital Analysis
                       -------------------------------------

 Vector    2  Occ=2.000000D+00  E=-1.257437D+00  Symmetry=a1
              MO Center= -3.5D-17, -9.4D-19, -3.8D-02, r^2= 5.4D-01
   Bfn.  Coefficient  Atom+Function         Bfn.  Coefficient  Atom+Function  
  ----- ------------  ---------------      ----- ------------  ---------------
     2      0.844554  1 O  s                  1     -0.233777  1 O  s          
     6      0.155566  2 H  s                  7      0.155566  3 H  s          

 Vector    3  Occ=2.000000D+00  E=-5.936594D-01  Symmetry=b1
              MO Center=  2.8D-17,  7.5D-37, -1.3D-01, r^2= 8.5D-01
   Bfn.  Coefficient  Atom+Function         Bfn.  Coefficient  Atom+Function  
  ----- ------------  ---------------      ----- ------------  ---------------
     3      0.612741  1 O  px                 6      0.449250  2 H  s          
     7     -0.449250  3 H  s          

 Vector    4  Occ=2.000000D+00  E=-4.597586D-01  Symmetry=a1
              MO Center= -6.9D-18,  2.9D-19,  1.6D-01, r^2= 6.6D-01
   Bfn.  Coefficient  Atom+Function         Bfn.  Coefficient  Atom+Function  
  ----- ------------  ---------------      ----- ------------  ---------------
     5      0.755729  1 O  pz                 2      0.538125  1 O  s          
     6     -0.295242  2 H  s                  7     -0.295242  3 H  s          

 Vector    5  Occ=2.000000D+00  E=-3.926218D-01  Symmetry=b2
              MO Center= -5.4D-33, -4.6D-18,  1.5D-01, r^2= 4.2D-01
   Bfn.  Coefficient  Atom+Function         Bfn.  Coefficient  Atom+Function  
  ----- ------------  ---------------      ----- ------------  ---------------
     4      1.000000  1 O  py         

 Vector    6  Occ=0.000000D+00  E= 5.815553D-01  Symmetry=a1
              MO Center=  0.0D+00,  5.2D-18, -3.8D-01, r^2= 1.1D+00
   Bfn.  Coefficient  Atom+Function         Bfn.  Coefficient  Atom+Function  
  ----- ------------  ---------------      ----- ------------  ---------------
     2      0.819601  1 O  s                  6     -0.768928  2 H  s          
     7     -0.768928  3 H  s                  5     -0.763667  1 O  pz         

 Vector    7  Occ=0.000000D+00  E= 6.922677D-01  Symmetry=b1
              MO Center=  0.0D+00,  0.0D+00, -2.3D-01, r^2= 1.0D+00
   Bfn.  Coefficient  Atom+Function         Bfn.  Coefficient  Atom+Function  
  ----- ------------  ---------------      ----- ------------  ---------------
     3      0.959567  1 O  px                 6     -0.814432  2 H  s          
     7      0.814432  3 H  s          


 center of mass
 --------------
 x =   0.00000000 y =   0.00000000 z =   0.14984121

 moments of inertia (a.u.)
 ------------------
           2.587166068231           0.000000000000           0.000000000000
           0.000000000000           6.724551395296           0.000000000000
           0.000000000000           0.000000000000           4.137385327065

  Mulliken analysis of the total density
  --------------------------------------

    Atom       Charge   Shell Charges
 -----------   ------   -------------------------------------------------------
    1 O    8     8.33   2.00  1.85  4.48
    2 H    1     0.83   0.83
    3 H    1     0.83   0.83

       Multipole analysis of the density wrt the origin
       ------------------------------------------------

     L   x y z        total         open         nuclear
     -   - - -        -----         ----         -------
     0   0 0 0     -0.000000      0.000000     10.000000

     1   1 0 0     -0.000000      0.000000      0.000000
     1   0 1 0      0.000000      0.000000      0.000000
     1   0 0 1     -0.672350      0.000000      0.439452

     2   2 0 0     -3.335489      0.000000      4.105262
     2   1 1 0     -0.000000      0.000000      0.000000
     2   1 0 1      0.000000      0.000000      0.000000
     2   0 2 0     -4.554479      0.000000      0.000000
     2   0 1 1     -0.000000      0.000000      0.000000
     2   0 0 2     -4.023931      0.000000      2.331774


 Parallel integral file used       1 records with       0 large values

                              NWChem Gradients Module
                              -----------------------


                  HF SCF optimisation  on water with STO-3G basis


  wavefunction    =   RHF     

  Using symmetry


                         RHF ENERGY GRADIENTS

    atom               coordinates                        gradient
                 x          y          z           x          y          z
   1 O       0.000000   0.000000   0.284385    0.000000   0.000000   0.000509
   2 H       1.432701   0.000000  -0.917816    0.000218   0.000000  -0.000254
   3 H      -1.432701   0.000000  -0.917816   -0.000218   0.000000  -0.000254

                 ----------------------------------------
                 |  Time  |  1-e(secs)   |  2-e(secs)   |
                 ----------------------------------------
                 |  CPU   |       0.00   |       0.01   |
                 ----------------------------------------
                 |  WALL  |       0.00   |       0.01   |
                 ----------------------------------------

  Step       Energy      Delta E   Gmax     Grms     Xrms     Xmax   Walltime
  ---- ---------------- -------- -------- -------- -------- -------- --------
@    2     -74.96590098 -4.9D-05  0.00033  0.00027  0.00633  0.01215      0.6
                                     ok       ok                    



                                Z-matrix (autoz)
                                -------- 

 Units are Angstrom for bonds and degrees for angles

      Type          Name      I     J     K     L     M      Value     Gradient
      ----------- --------  ----- ----- ----- ----- ----- ---------- ----------
    1 Stretch                  1     2                       0.98971    0.00033
    2 Stretch                  1     3                       0.98971    0.00033
    3 Bend                     2     1     3                99.99892   -0.00005

                                 NWChem SCF Module
                                 -----------------


                  HF SCF optimisation  on water with STO-3G basis



  ao basis        = "ao basis"
  functions       =     7
  atoms           =     3
  closed shells   =     5
  open shells     =     0
  charge          =   0.00
  wavefunction    = RHF 
  input vectors   = ./molecule.movecs
  output vectors  = ./molecule.movecs
  use symmetry    = T
  symmetry adapt  = T


 Summary of "ao basis" -> "ao basis" (cartesian)
 ------------------------------------------------------------------------------
       Tag                 Description            Shells   Functions and Types
 ---------------- ------------------------------  ------  ---------------------
 O                           sto-3g                  3        5   2s1p
 H                           sto-3g                  1        1   1s


      Symmetry analysis of basis
      --------------------------

        a1          4
        a2          0
        b1          2
        b2          1


 Forming initial guess at       0.6s


 Loading old vectors from job with title :

HF SCF optimisation  on water with STO-3G basis


      Symmetry analysis of molecular orbitals - initial
      -------------------------------------------------

  Numbering of irreducible representations: 

     1 a1          2 a2          3 b1          4 b2      

  Orbital symmetries:

     1 a1          2 a1          3 b1          4 a1          5 b2      
     6 a1          7 b1      


 Starting SCF solution at       0.6s



 ----------------------------------------------
         Quadratically convergent ROHF

 Convergence threshold     :          1.000E-04
 Maximum no. of iterations :           30
 Final Fock-matrix accuracy:          1.000E-07
 ----------------------------------------------


 #quartets = 7.900D+01 #integrals = 1.640D+02 #direct =  0.0% #cached =100.0%


 Integral file          = ./molecule.aoints.0
 Record size in doubles =  65536        No. of integs per rec  =  43688
 Max. records in memory =      2        Max. records in file   = 148936
 No. of bits per label  =      8        No. of bits per value  =     64


              iter       energy          gnorm     gmax       time
             ----- ------------------- --------- --------- --------
                 1      -74.9659011562  5.59D-04  4.49D-04      0.3
                 2      -74.9659011918  2.72D-06  2.04D-06      0.3


       Final RHF  results 
       ------------------ 

         Total SCF energy =    -74.965901191783
      One-electron energy =   -121.833840146361
      Two-electron energy =     37.961603823213
 Nuclear repulsion energy =      8.906335131365

        Time for solution =      0.0s



       Symmetry analysis of molecular orbitals - final
       -----------------------------------------------

  Numbering of irreducible representations: 

     1 a1          2 a2          3 b1          4 b2      

  Orbital symmetries:

     1 a1          2 a1          3 b1          4 a1          5 b2      
     6 a1          7 b1      

             Final eigenvalues
             -----------------

              1      
    1  -20.2516
    2   -1.2575
    3   -0.5938
    4   -0.4597
    5   -0.3926
    6    0.5818
    7    0.6926

                       ROHF Final Molecular Orbital Analysis
                       -------------------------------------

 Vector    2  Occ=2.000000D+00  E=-1.257543D+00  Symmetry=a1
              MO Center= -3.5D-17, -9.4D-19, -3.8D-02, r^2= 5.4D-01
   Bfn.  Coefficient  Atom+Function         Bfn.  Coefficient  Atom+Function  
  ----- ------------  ---------------      ----- ------------  ---------------
     2      0.844455  1 O  s                  1     -0.233766  1 O  s          
     6      0.155593  2 H  s                  7      0.155593  3 H  s          

 Vector    3  Occ=2.000000D+00  E=-5.938433D-01  Symmetry=b1
              MO Center=  2.8D-17,  7.5D-37, -1.3D-01, r^2= 8.5D-01
   Bfn.  Coefficient  Atom+Function         Bfn.  Coefficient  Atom+Function  
  ----- ------------  ---------------      ----- ------------  ---------------
     3      0.612700  1 O  px                 6      0.449223  2 H  s          
     7     -0.449223  3 H  s          

 Vector    4  Occ=2.000000D+00  E=-4.597320D-01  Symmetry=a1
              MO Center= -6.9D-18,  2.9D-19,  1.6D-01, r^2= 6.6D-01
   Bfn.  Coefficient  Atom+Function         Bfn.  Coefficient  Atom+Function  
  ----- ------------  ---------------      ----- ------------  ---------------
     5      0.755868  1 O  pz                 2      0.538165  1 O  s          
     6     -0.295111  2 H  s                  7     -0.295111  3 H  s          

 Vector    5  Occ=2.000000D+00  E=-3.926173D-01  Symmetry=b2
              MO Center= -5.4D-33, -4.5D-18,  1.5D-01, r^2= 4.2D-01
   Bfn.  Coefficient  Atom+Function         Bfn.  Coefficient  Atom+Function  
  ----- ------------  ---------------      ----- ------------  ---------------
     4      1.000000  1 O  py         

 Vector    6  Occ=0.000000D+00  E= 5.817802D-01  Symmetry=a1
              MO Center=  0.0D+00,  5.2D-18, -3.8D-01, r^2= 1.1D+00
   Bfn.  Coefficient  Atom+Function         Bfn.  Coefficient  Atom+Function  
  ----- ------------  ---------------      ----- ------------  ---------------
     2      0.820113  1 O  s                  6     -0.769150  2 H  s          
     7     -0.769150  3 H  s                  5     -0.763560  1 O  pz         

 Vector    7  Occ=0.000000D+00  E= 6.926498D-01  Symmetry=b1
              MO Center=  5.6D-17, -3.1D-33, -2.3D-01, r^2= 1.0D+00
   Bfn.  Coefficient  Atom+Function         Bfn.  Coefficient  Atom+Function  
  ----- ------------  ---------------      ----- ------------  ---------------
     3      0.959788  1 O  px                 6     -0.814635  2 H  s          
     7      0.814635  3 H  s          


 center of mass
 --------------
 x =   0.00000000 y =   0.00000000 z =   0.14947218

 moments of inertia (a.u.)
 ------------------
           2.584303743231           0.000000000000           0.000000000000
           0.000000000000           6.720942033768           0.000000000000
           0.000000000000           0.000000000000           4.136638290537

  Mulliken analysis of the total density
  --------------------------------------

    Atom       Charge   Shell Charges
 -----------   ------   -------------------------------------------------------
    1 O    8     8.33   2.00  1.85  4.48
    2 H    1     0.83   0.83
    3 H    1     0.83   0.83

       Multipole analysis of the density wrt the origin
       ------------------------------------------------

     L   x y z        total         open         nuclear
     -   - - -        -----         ----         -------
     0   0 0 0     -0.000000      0.000000     10.000000

     1   1 0 0      0.000000      0.000000      0.000000
     1   0 1 0      0.000000      0.000000      0.000000
     1   0 0 1     -0.672449      0.000000      0.436347

     2   2 0 0     -3.334956      0.000000      4.104520
     2   1 1 0     -0.000000      0.000000      0.000000
     2   1 0 1      0.000000      0.000000      0.000000
     2   0 2 0     -4.554291      0.000000      0.000000
     2   0 1 1     -0.000000      0.000000      0.000000
     2   0 0 2     -4.023793      0.000000      2.328943


 Parallel integral file used       1 records with       0 large values

 Line search: 
     step= 1.00 grad=-3.9D-07 hess= 1.9D-07 energy=    -74.965901 mode=accept  
 new step= 1.00                   predicted energy=    -74.965901

          --------
          Step   3
          --------


                         Geometry "geometry" -> "geometry"
                         ---------------------------------

 Output coordinates in angstroms (scale by  1.889725989 to convert to a.u.)

  No.       Tag          Charge          X              Y              Z
 ---- ---------------- ---------- -------------- -------------- --------------
    1 O                    8.0000     0.00000000     0.00000000     0.15025565
    2 H                    1.0000     0.75808408     0.00000000    -0.48557007
    3 H                    1.0000    -0.75808408     0.00000000    -0.48557007

      Atomic Mass 
      ----------- 

      O                 15.994910
      H                  1.007825


 Effective nuclear repulsion energy (a.u.)       8.9063351314

            Nuclear Dipole moment (a.u.) 
            ----------------------------
        X                 Y               Z
 ---------------- ---------------- ----------------
     0.0000000000     0.0000000000     0.4363472951

      Symmetry information
      --------------------

 Group name             C2v       
 Group number             16
 Group order               4
 No. of unique centers     2

      Symmetry unique atoms

     1    2

                                 NWChem SCF Module
                                 -----------------


                  HF SCF optimisation  on water with STO-3G basis



  ao basis        = "ao basis"
  functions       =     7
  atoms           =     3
  closed shells   =     5
  open shells     =     0
  charge          =   0.00
  wavefunction    = RHF 
  input vectors   = ./molecule.movecs
  output vectors  = ./molecule.movecs
  use symmetry    = T
  symmetry adapt  = T


 Summary of "ao basis" -> "ao basis" (cartesian)
 ------------------------------------------------------------------------------
       Tag                 Description            Shells   Functions and Types
 ---------------- ------------------------------  ------  ---------------------
 O                           sto-3g                  3        5   2s1p
 H                           sto-3g                  1        1   1s


      Symmetry analysis of basis
      --------------------------

        a1          4
        a2          0
        b1          2
        b2          1


  The SCF is already converged 

         Total SCF energy =    -74.965901191783

                              NWChem Gradients Module
                              -----------------------


                  HF SCF optimisation  on water with STO-3G basis


  wavefunction    =   RHF     

  Using symmetry


                         RHF ENERGY GRADIENTS

    atom               coordinates                        gradient
                 x          y          z           x          y          z
   1 O       0.000000   0.000000   0.283942    0.000000   0.000000   0.000031
   2 H       1.432571   0.000000  -0.917594    0.000013   0.000000  -0.000015
   3 H      -1.432571   0.000000  -0.917594   -0.000013   0.000000  -0.000015

                 ----------------------------------------
                 |  Time  |  1-e(secs)   |  2-e(secs)   |
                 ----------------------------------------
                 |  CPU   |       0.00   |       0.01   |
                 ----------------------------------------
                 |  WALL  |       0.00   |       0.01   |
                 ----------------------------------------

  Step       Energy      Delta E   Gmax     Grms     Xrms     Xmax   Walltime
  ---- ---------------- -------- -------- -------- -------- -------- --------
@    3     -74.96590119 -2.1D-07  0.00002  0.00002  0.00019  0.00044      0.7
                                     ok       ok       ok       ok  



                                Z-matrix (autoz)
                                -------- 

 Units are Angstrom for bonds and degrees for angles

      Type          Name      I     J     K     L     M      Value     Gradient
      ----------- --------  ----- ----- ----- ----- ----- ---------- ----------
    1 Stretch                  1     2                       0.98943    0.00002
    2 Stretch                  1     3                       0.98943    0.00002
    3 Bend                     2     1     3               100.02505   -0.00000


      ----------------------
      Optimization converged
      ----------------------


  Step       Energy      Delta E   Gmax     Grms     Xrms     Xmax   Walltime
  ---- ---------------- -------- -------- -------- -------- -------- --------
@    3     -74.96590119 -2.1D-07  0.00002  0.00002  0.00019  0.00044      0.7
                                     ok       ok       ok       ok  



                                Z-matrix (autoz)
                                -------- 

 Units are Angstrom for bonds and degrees for angles

      Type          Name      I     J     K     L     M      Value     Gradient
      ----------- --------  ----- ----- ----- ----- ----- ---------- ----------
    1 Stretch                  1     2                       0.98943    0.00002
    2 Stretch                  1     3                       0.98943    0.00002
    3 Bend                     2     1     3               100.02505   -0.00000



                         Geometry "geometry" -> "geometry"
                         ---------------------------------

 Output coordinates in angstroms (scale by  1.889725989 to convert to a.u.)

  No.       Tag          Charge          X              Y              Z
 ---- ---------------- ---------- -------------- -------------- --------------
    1 O                    8.0000     0.00000000     0.00000000     0.15025565
    2 H                    1.0000     0.75808408     0.00000000    -0.48557007
    3 H                    1.0000    -0.75808408     0.00000000    -0.48557007

      Atomic Mass 
      ----------- 

      O                 15.994910
      H                  1.007825


 Effective nuclear repulsion energy (a.u.)       8.9063351314

            Nuclear Dipole moment (a.u.) 
            ----------------------------
        X                 Y               Z
 ---------------- ---------------- ----------------
     0.0000000000     0.0000000000     0.4363472951

      Symmetry information
      --------------------

 Group name             C2v       
 Group number             16
 Group order               4
 No. of unique centers     2

      Symmetry unique atoms

     1    2


                Final and change from initial internal coordinates
                --------------------------------------------------



                                Z-matrix (autoz)
                                -------- 

 Units are Angstrom for bonds and degrees for angles

      Type          Name      I     J     K     L     M      Value       Change
      ----------- --------  ----- ----- ----- ----- ----- ---------- ----------
    1 Stretch                  1     2                       0.98943    0.03192
    2 Stretch                  1     3                       0.98943    0.03192
    3 Bend                     2     1     3               100.02505   -4.45339

 ==============================================================================
                                internuclear distances
 ------------------------------------------------------------------------------
       center one      |      center two      | atomic units |  angstroms
 ------------------------------------------------------------------------------
    2 H                |   1 O                |     1.86975  |     0.98943
    3 H                |   1 O                |     1.86975  |     0.98943
 ------------------------------------------------------------------------------
                         number of included internuclear distances:          2
 ==============================================================================



 ==============================================================================
                                 internuclear angles
 ------------------------------------------------------------------------------
        center 1       |       center 2       |       center 3       |  degrees
 ------------------------------------------------------------------------------
    2 H                |   1 O                |   3 H                |   100.03
 ------------------------------------------------------------------------------
                            number of included internuclear angles:          1
 ==============================================================================




 Task  times  cpu:        0.3s     wall:        0.7s
 Summary of allocated global arrays
-----------------------------------
  No active global arrays



                         GA Statistics for process    0
                         ------------------------------

       create   destroy   get      put      acc     scatter   gather  read&inc
calls: 1082     1082     7509     3100     3926        0        0        0     
number of processes/call 1.00e+00 1.00e+00 1.00e+00 0.00e+00 0.00e+00
bytes total:             6.91e+05 3.68e+05 2.19e+05 0.00e+00 0.00e+00 0.00e+00
bytes remote:            0.00e+00 0.00e+00 0.00e+00 0.00e+00 0.00e+00 0.00e+00
Max memory consumed for GA by this process: 5448 bytes
MA_summarize_allocated_blocks: starting scan ...
MA_summarize_allocated_blocks: scan completed: 0 heap blocks, 0 stack blocks
MA usage statistics:

	allocation statistics:
					      heap	     stack
					      ----	     -----
	current number of blocks	         0	         0
	maximum number of blocks	        20	        29
	current total bytes		         0	         0
	maximum total bytes		   1053912	  22509032
	maximum total K-bytes		      1054	     22510
	maximum total M-bytes		         2	        23


                                NWChem Input Module
                                -------------------





                                     CITATION
                                     --------
                Please cite the following reference when publishing
                           results obtained with NWChem:

                 M. Valiev, E.J. Bylaska, N. Govind, K. Kowalski,
              T.P. Straatsma, H.J.J. van Dam, D. Wang, J. Nieplocha,
                        E. Apra, T.L. Windus, W.A. de Jong
                 "NWChem: a comprehensive and scalable open-source
                  solution for large scale molecular simulations"
                      Comput. Phys. Commun. 181, 1477 (2010)
                           doi:10.1016/j.cpc.2010.04.018

                              AUTHORS & CONTRIBUTORS
                              ----------------------
      E. J. Bylaska, W. A. de Jong, N. Govind, K. Kowalski, T. P. Straatsma,
     M. Valiev, H. J. J. van Dam, D. Wang, E. Apra, T. L. Windus, J. Hammond,
    J. Autschbach, F. Aquino, J. Mullin, P. Nichols, S. Hirata, M. T. Hackler,
   Y. Zhao, P.-D. Fan, R. J. Harrison, M. Dupuis, D. M. A. Smith, K. Glaesemann,
    J. Nieplocha, V. Tipparaju, M. Krishnan, A. Vazquez-Mayagoitia, L. Jensen,
      M. Swart, Q. Wu, T. Van Voorhis, A. A. Auer, M. Nooijen, L. D. Crosby,
        E. Brown, G. Cisneros, G. I. Fann, H. Fruchtl, J. Garza, K. Hirao,
        R. Kendall, J. A. Nichols, K. Tsemekhman, K. Wolinski, J. Anchell,
       D. Bernholdt, P. Borowski, T. Clark, D. Clerc, H. Dachsel, M. Deegan,
        K. Dyall, D. Elwood, E. Glendening, M. Gutowski, A. Hess, J. Jaffe,
        B. Johnson, J. Ju, R. Kobayashi, R. Kutteh, Z. Lin, R. Littlefield,
    X. Long, B. Meng, T. Nakajima, S. Niu, R. Peverati, L. Pollack, M. Rosing,
          G. Sandrone, M. Stave, H. Taylor, G. Thomas, J. H. van Lenthe,
                                A. Wong, Z. Zhang.

 Total times  cpu:        0.3s     wall:        0.7s
