 argument  1 = h2o_sto3g_mp2_opt.nw



============================== echo of input deck ==============================
echo
start molecule

title "MP2 optimisation on water with STO-3G basis"

geometry units angstrom
O      0.00000000     0.00000000     0.11726921
H      0.75698224     0.00000000    -0.46907685
H     -0.75698224     0.00000000    -0.46907685
end

basis
  O library sto-3g
  H library sto-3g
end

task mp2 optimize
================================================================================


                                         
                                         


              Northwest Computational Chemistry Package (NWChem) 6.1
              ------------------------------------------------------


                    Environmental Molecular Sciences Laboratory
                       Pacific Northwest National Laboratory
                                Richland, WA 99352

                              Copyright (c) 1994-2010
                       Pacific Northwest National Laboratory
                            Battelle Memorial Institute

             NWChem is an open-source computational chemistry package
                        distributed under the terms of the
                      Educational Community License (ECL) 2.0
             A copy of the license is included with this distribution
                              in the LICENSE.TXT file

                                  ACKNOWLEDGMENT
                                  --------------

            This software and its documentation were developed at the
            EMSL at Pacific Northwest National Laboratory, a multiprogram
            national laboratory, operated for the U.S. Department of Energy
            by Battelle under Contract Number DE-AC05-76RL01830. Support
            for this work was provided by the Department of Energy Office
            of Biological and Environmental Research, Office of Basic
            Energy Sciences, and the Office of Advanced Scientific Computing.


           Job information
           ---------------

    hostname      = jmhts-MacBook-Air.local
    program       = nwchem
    date          = Wed Mar 28 22:56:53 2012

    compiled      = Sat_Mar_03_17:07:28_2012
    source        = /Users/jmht/Documents/quixote/nwchem/nwchem-src-2012-Mar-01
    nwchem branch = Development
    input         = h2o_sto3g_mp2_opt.nw
    prefix        = molecule.
    data base     = ./molecule.db
    status        = startup
    nproc         =        1
    time left     =     -1s



           Memory information
           ------------------

    heap     =   13107201 doubles =    100.0 Mbytes
    stack    =   13107201 doubles =    100.0 Mbytes
    global   =   26214400 doubles =    200.0 Mbytes (distinct from heap & stack)
    total    =   52428802 doubles =    400.0 Mbytes
    verify   = yes
    hardfail = no 


           Directory information
           ---------------------

  0 permanent = .
  0 scratch   = .




                                NWChem Input Module
                                -------------------


                    MP2 optimisation on water with STO-3G basis
                    -------------------------------------------

 Scaling coordinates for geometry "geometry" by  1.889725989
 (inverse scale =  0.529177249)

 C2V symmetry detected

          ------
          auto-z
          ------


                             Geometry "geometry" -> ""
                             -------------------------

 Output coordinates in angstroms (scale by  1.889725989 to convert to a.u.)

  No.       Tag          Charge          X              Y              Z
 ---- ---------------- ---------- -------------- -------------- --------------
    1 O                    8.0000     0.00000000     0.00000000     0.11726921
    2 H                    1.0000     0.75698224     0.00000000    -0.46907685
    3 H                    1.0000    -0.75698224     0.00000000    -0.46907685

      Atomic Mass 
      ----------- 

      O                 15.994910
      H                  1.007825


 Effective nuclear repulsion energy (a.u.)       9.1920946687

            Nuclear Dipole moment (a.u.) 
            ----------------------------
        X                 Y               Z
 ---------------- ---------------- ----------------
     0.0000000000     0.0000000000     0.0000000000

      Symmetry information
      --------------------

 Group name             C2v       
 Group number             16
 Group order               4
 No. of unique centers     2

      Symmetry unique atoms

     1    2



                                Z-matrix (autoz)
                                -------- 

 Units are Angstrom for bonds and degrees for angles

      Type          Name      I     J     K     L     M      Value
      ----------- --------  ----- ----- ----- ----- ----- ----------
    1 Stretch                  1     2                       0.95751
    2 Stretch                  1     3                       0.95751
    3 Bend                     2     1     3               104.47845


            XYZ format geometry
            -------------------
     3
 geometry
 O                     0.00000000     0.00000000     0.11726921
 H                     0.75698224     0.00000000    -0.46907685
 H                    -0.75698224     0.00000000    -0.46907685

 ==============================================================================
                                internuclear distances
 ------------------------------------------------------------------------------
       center one      |      center two      | atomic units |  angstroms
 ------------------------------------------------------------------------------
    2 H                |   1 O                |     1.80943  |     0.95751
    3 H                |   1 O                |     1.80943  |     0.95751
 ------------------------------------------------------------------------------
                         number of included internuclear distances:          2
 ==============================================================================



 ==============================================================================
                                 internuclear angles
 ------------------------------------------------------------------------------
        center 1       |       center 2       |       center 3       |  degrees
 ------------------------------------------------------------------------------
    2 H                |   1 O                |   3 H                |   104.48
 ------------------------------------------------------------------------------
                            number of included internuclear angles:          1
 ==============================================================================



                      Basis "ao basis" -> "" (cartesian)
                      -----
  O (Oxygen)
  ----------
            Exponent  Coefficients 
       -------------- ---------------------------------------------------------
  1 S  1.30709320E+02  0.154329
  1 S  2.38088610E+01  0.535328
  1 S  6.44360830E+00  0.444635

  2 S  5.03315130E+00 -0.099967
  2 S  1.16959610E+00  0.399513
  2 S  3.80389000E-01  0.700115

  3 P  5.03315130E+00  0.155916
  3 P  1.16959610E+00  0.607684
  3 P  3.80389000E-01  0.391957

  H (Hydrogen)
  ------------
            Exponent  Coefficients 
       -------------- ---------------------------------------------------------
  1 S  3.42525091E+00  0.154329
  1 S  6.23913730E-01  0.535328
  1 S  1.68855400E-01  0.444635



 Summary of "ao basis" -> "" (cartesian)
 ------------------------------------------------------------------------------
       Tag                 Description            Shells   Functions and Types
 ---------------- ------------------------------  ------  ---------------------
 O                           sto-3g                  3        5   2s1p
 H                           sto-3g                  1        1   1s




                           NWChem Geometry Optimization
                           ----------------------------




                    MP2 optimisation on water with STO-3G basis


 maximum gradient threshold         (gmax) =   0.000450
 rms gradient threshold             (grms) =   0.000300
 maximum cartesian step threshold   (xmax) =   0.001800
 rms cartesian step threshold       (xrms) =   0.001200
 fixed trust radius                (trust) =   0.300000
 maximum step size to saddle      (sadstp) =   0.100000
 energy precision                  (eprec) =   1.0D-07
 maximum number of steps          (nptopt) =   20
 initial hessian option           (inhess) =    0
 line search option               (linopt) =    1
 hessian update option            (modupd) =    1
 saddle point option              (modsad) =    0
 initial eigen-mode to follow     (moddir) =    0
 initial variable to follow       (vardir) =    0
 follow first negative mode     (firstneg) =    T
 apply conjugacy                    (opcg) =    F
 source of zmatrix                         =   autoz   


          -------------------
          Energy Minimization
          -------------------


 Names of Z-matrix variables 
    1              2              3         

 Variables with the same non-blank name are constrained to be equal


 Using old Hessian from previous optimization

          --------
          Step   0
          --------


                         Geometry "geometry" -> "geometry"
                         ---------------------------------

 Output coordinates in angstroms (scale by  1.889725989 to convert to a.u.)

  No.       Tag          Charge          X              Y              Z
 ---- ---------------- ---------- -------------- -------------- --------------
    1 O                    8.0000     0.00000000     0.00000000     0.11726921
    2 H                    1.0000     0.75698224     0.00000000    -0.46907685
    3 H                    1.0000    -0.75698224     0.00000000    -0.46907685

      Atomic Mass 
      ----------- 

      O                 15.994910
      H                  1.007825


 Effective nuclear repulsion energy (a.u.)       9.1920946687

            Nuclear Dipole moment (a.u.) 
            ----------------------------
        X                 Y               Z
 ---------------- ---------------- ----------------
     0.0000000000     0.0000000000     0.0000000000

      Symmetry information
      --------------------

 Group name             C2v       
 Group number             16
 Group order               4
 No. of unique centers     2

      Symmetry unique atoms

     1    2

                                 NWChem SCF Module
                                 -----------------


                    MP2 optimisation on water with STO-3G basis



  ao basis        = "ao basis"
  functions       =     7
  atoms           =     3
  closed shells   =     5
  open shells     =     0
  charge          =   0.00
  wavefunction    = RHF 
  input vectors   = atomic
  output vectors  = ./molecule.movecs
  use symmetry    = T
  symmetry adapt  = T


 Summary of "ao basis" -> "ao basis" (cartesian)
 ------------------------------------------------------------------------------
       Tag                 Description            Shells   Functions and Types
 ---------------- ------------------------------  ------  ---------------------
 O                           sto-3g                  3        5   2s1p
 H                           sto-3g                  1        1   1s


      Symmetry analysis of basis
      --------------------------

        a1          4
        a2          0
        b1          2
        b2          1


 Forming initial guess at       0.0s


      Superposition of Atomic Density Guess
      -------------------------------------

 Sum of atomic energies:         -74.71095592

      Non-variational initial energy
      ------------------------------

 Total energy =     -74.683500
 1-e energy   =    -121.780484
 2-e energy   =      37.904889
 HOMO         =      -0.258445
 LUMO         =       0.505071


      Symmetry analysis of molecular orbitals - initial
      -------------------------------------------------

  Numbering of irreducible representations: 

     1 a1          2 a2          3 b1          4 b2      

  Orbital symmetries:

     1 a1          2 a1          3 b1          4 a1          5 b2      
     6 a1          7 b1      


 Starting SCF solution at       0.1s



 ----------------------------------------------
         Quadratically convergent ROHF

 Convergence threshold     :          1.000E-06
 Maximum no. of iterations :           30
 Final Fock-matrix accuracy:          1.000E-08
 ----------------------------------------------


 #quartets = 7.900D+01 #integrals = 1.640D+02 #direct =  0.0% #cached =100.0%


 Integral file          = ./molecule.aoints.0
 Record size in doubles =  65536        No. of integs per rec  =  43688
 Max. records in memory =      2        Max. records in file   = 148488
 No. of bits per label  =      8        No. of bits per value  =     64


              iter       energy          gnorm     gmax       time
             ----- ------------------- --------- --------- --------
                 1      -74.9243813595  6.49D-01  5.52D-01      0.1
                 2      -74.9621547150  1.36D-01  1.01D-01      0.1
                 3      -74.9629674753  2.06D-02  1.64D-02      0.1
                 4      -74.9629856144  5.45D-05  4.16D-05      0.1
                 5      -74.9629856147  2.51D-10  2.08D-10      0.1


       Final RHF  results 
       ------------------ 

         Total SCF energy =    -74.962985614677
      One-electron energy =   -122.365859679123
      Two-electron energy =     38.210779395789
 Nuclear repulsion energy =      9.192094668657

        Time for solution =      0.0s



       Symmetry analysis of molecular orbitals - final
       -----------------------------------------------

  Numbering of irreducible representations: 

     1 a1          2 a2          3 b1          4 b2      

  Orbital symmetries:

     1 a1          2 a1          3 b1          4 a1          5 b2      
     6 a1          7 b1      

             Final eigenvalues
             -----------------

              1      
    1  -20.2418
    2   -1.2683
    3   -0.6177
    4   -0.4531
    5   -0.3913
    6    0.6054
    7    0.7419

                       ROHF Final Molecular Orbital Analysis
                       -------------------------------------

 Vector    2  Occ=2.000000D+00  E=-1.268301D+00  Symmetry=a1
              MO Center= -2.8D-17, -9.9D-19, -7.2D-02, r^2= 5.4D-01
   Bfn.  Coefficient  Atom+Function         Bfn.  Coefficient  Atom+Function  
  ----- ------------  ---------------      ----- ------------  ---------------
     2      0.833596  1 O  s                  1     -0.232794  1 O  s          
     6      0.158693  2 H  s                  7      0.158693  3 H  s          

 Vector    3  Occ=2.000000D+00  E=-6.177032D-01  Symmetry=b1
              MO Center= -3.9D-16, -1.7D-31, -1.4D-01, r^2= 8.3D-01
   Bfn.  Coefficient  Atom+Function         Bfn.  Coefficient  Atom+Function  
  ----- ------------  ---------------      ----- ------------  ---------------
     3      0.606491  1 O  px                 6      0.445046  2 H  s          
     7     -0.445046  3 H  s          

 Vector    4  Occ=2.000000D+00  E=-4.530574D-01  Symmetry=a1
              MO Center=  3.7D-16, -3.2D-18,  1.6D-01, r^2= 6.2D-01
   Bfn.  Coefficient  Atom+Function         Bfn.  Coefficient  Atom+Function  
  ----- ------------  ---------------      ----- ------------  ---------------
     5      0.776546  1 O  pz                 2      0.536888  1 O  s          
     6     -0.277998  2 H  s                  7     -0.277998  3 H  s          

 Vector    5  Occ=2.000000D+00  E=-3.912557D-01  Symmetry=b2
              MO Center=  3.1D-32, -1.2D-18,  1.2D-01, r^2= 4.2D-01
   Bfn.  Coefficient  Atom+Function         Bfn.  Coefficient  Atom+Function  
  ----- ------------  ---------------      ----- ------------  ---------------
     4      1.000000  1 O  py         

 Vector    6  Occ=0.000000D+00  E= 6.054404D-01  Symmetry=a1
              MO Center=  6.1D-16,  5.3D-18, -3.9D-01, r^2= 1.1D+00
   Bfn.  Coefficient  Atom+Function         Bfn.  Coefficient  Atom+Function  
  ----- ------------  ---------------      ----- ------------  ---------------
     2      0.884125  1 O  s                  6     -0.796891  2 H  s          
     7     -0.796891  3 H  s                  5     -0.742524  1 O  pz         

 Vector    7  Occ=0.000000D+00  E= 7.419102D-01  Symmetry=b1
              MO Center= -3.9D-16,  0.0D+00, -2.3D-01, r^2= 1.0D+00
   Bfn.  Coefficient  Atom+Function         Bfn.  Coefficient  Atom+Function  
  ----- ------------  ---------------      ----- ------------  ---------------
     3      0.990304  1 O  px                 6     -0.838445  2 H  s          
     7      0.838445  3 H  s          


 center of mass
 --------------
 x =   0.00000000 y =   0.00000000 z =   0.09760123

 moments of inertia (a.u.)
 ------------------
           2.197735387303           0.000000000000           0.000000000000
           0.000000000000           6.322357589609           0.000000000000
           0.000000000000           0.000000000000           4.124622202307

  Mulliken analysis of the total density
  --------------------------------------

    Atom       Charge   Shell Charges
 -----------   ------   -------------------------------------------------------
    1 O    8     8.37   2.00  1.83  4.54
    2 H    1     0.82   0.82
    3 H    1     0.82   0.82

       Multipole analysis of the density wrt the origin
       ------------------------------------------------

     L   x y z        total         open         nuclear
     -   - - -        -----         ----         -------
     0   0 0 0     -0.000000      0.000000     10.000000

     1   1 0 0      0.000000      0.000000      0.000000
     1   0 1 0      0.000000      0.000000      0.000000
     1   0 0 1     -0.678928      0.000000      0.000000

     2   2 0 0     -3.240598      0.000000      4.092598
     2   1 1 0     -0.000000      0.000000      0.000000
     2   1 0 1      0.000000      0.000000      0.000000
     2   0 2 0     -4.531212      0.000000      0.000000
     2   0 1 1     -0.000000      0.000000      0.000000
     2   0 0 2     -4.009705      0.000000      1.964381


 Parallel integral file used       1 records with       0 large values

                   NWChem MP2 Semi-direct Energy/Gradient Module
                   ---------------------------------------------


                    MP2 optimisation on water with STO-3G basis


  Basis functions       =      7
  Molecular orbitals    =      7
  Frozen core           =      0
  Frozen virtuals       =      0
  Active alpha occupied =      5
  Active beta occupied  =      5
  Active alpha virtual  =      2
  Active beta virtual   =      2
  Use MO symmetry       = T
  Use skeleton AO sym   = T

  AO/Fock/Back tols     =   1.0D-09  1.0D-09  1.0D-09

 GA uses MA = F    GA memory limited = T

 Available: 
  local mem=  1.15D+07
 global mem=  2.62D+07
 local disk=  1.09D+07
   1 passes of   5:         979496                        391                      1097.

 Semi-direct pass number   1 of   1  for RHF alpha+beta  at        0.2s
Node 0 wrote      0.0 Mb in      0.0 s     Agg I/O rate:    13.0 Mb/s
 Done moints_semi at        0.2s
 Done maket at        0.2s
 Done pijab at        0.2s
 Done wijab at        0.2s
 Done lai at        0.2s
 Done nonsep at        0.2s
 Done multipass loop at        0.2s


          -------------------------------------------
          SCF energy                 -74.962985614677
          Correlation energy          -0.035524009511
          Singlet pairs               -0.032481632032
          Triplet pairs               -0.003042377479
          Total MP2 energy           -74.998509624188
          -------------------------------------------

                                NWChem CPHF Module
                                ------------------


    scftype = RHF 
    nclosed =    5
      nopen =    0
  variables =       10
  tolerance =   1.0D-04
  max. iter =  100


 #quartets = 7.900D+01 #integrals = 1.640D+02 #direct =  0.0% #cached =100.0%


 Integral file          = ./molecule.aoints.0
 Record size in doubles =  65536        No. of integs per rec  =  43688
 Max. records in memory =      2        Max. records in file   = 148488
 No. of bits per label  =      8        No. of bits per value  =     64

 SCF residual:   2.51007774364733105E-010

            ----- linear solve (tol: 1.0E-04 prod-acc: 4.4E-10) -----

               iter nbas    rnorm     rnorm-scal   ratio     time
               ---- ---- ----------- ----------- --------- -------
                  1    1  4.0995E-03  2.9499E-01    0.0000     0.2
                  2    2  4.9087E-04  3.5321E-02    0.1197     0.2
                  3    3  2.1147E-05  1.5217E-03    0.0431     0.2
                  4    4  1.9514E-18  1.4041E-16    0.0000     0.2

 CPHF converged to   1.4D-16 in    4 iters


 Parallel integral file used       1 records with       0 large values

                Dipole Moments (a.u.)
                --------------
         Nuclear       SCF       SCF+MP2
       ----------- ----------- -----------
 X       0.000000    0.000000    0.000000
 Y       0.000000    0.000000    0.000000
 Z       0.000000   -0.678928   -0.652199


 MP2 RHF      natural orbital occupation numbers


              1      
    1    2.0000
    2    1.9990
    3    1.9985
    4    1.9892
    5    1.9872
    6    0.0136
    7    0.0125

  MP2 natural orbitals output to ./molecule.mp2nos

  Using symmetry


                         mp2 ENERGY GRADIENTS

    atom               coordinates                        gradient
                 x          y          z           x          y          z
   1 O       0.000000   0.000000   0.221607    0.000000   0.000000  -0.095691
   2 H       1.430489   0.000000  -0.886427   -0.038269   0.000000   0.047846
   3 H      -1.430489   0.000000  -0.886427    0.038269   0.000000   0.047846

                 ----------------------------------------
                 |  Time  |  1-e(secs)   |  2-e(secs)   |
                 ----------------------------------------
                 |  CPU   |       0.00   |       0.01   |
                 ----------------------------------------
                 |  WALL  |       0.00   |       0.01   |
                 ----------------------------------------
 -----------------------
 Performance information
 -----------------------

 Timer overhead =  6.01D-07 seconds/call

               Nr. of calls         CPU time (s)                 Wall time (s)                GFlops
             ---------------    -------------------     ------------------------------   -------------------
Name         Min   Avg   Max    Min     Avg     Max     Min     Avg     Max   Mx/calls   Min     Max     Sum
mp2: moin     1     1     1   8.12E-3 8.12E-3 8.12E-3  9.92E-3 9.92E-3 9.92E-3 9.92E-3   0.0     0.0     0.0   
mp2: make     1     1     1   3.28E-4 3.28E-4 3.28E-4  3.28E-4 3.28E-4 3.28E-4 3.28E-4   0.0     0.0     0.0   
mp2: pija     1     1     1   1.12E-4 1.12E-4 1.12E-4  5.30E-4 5.30E-4 5.30E-4 5.30E-4   0.0     0.0     0.0   
mp2: wija     1     1     1   6.50E-5 6.50E-5 6.50E-5  6.60E-5 6.60E-5 6.60E-5 6.60E-5   0.0     0.0     0.0   
mp2: lai      1     1     1   1.49E-4 1.49E-4 1.49E-4  1.50E-4 1.50E-4 1.50E-4 1.50E-4   0.0     0.0     0.0   
mp2: back     1     1     1   6.67E-4 6.67E-4 6.67E-4  6.68E-4 6.68E-4 6.68E-4 6.68E-4   0.0     0.0     0.0   
mp2: nons     1     1     1   1.25E-2 1.25E-2 1.25E-2  1.25E-2 1.25E-2 1.25E-2 1.25E-2   0.0     0.0     0.0   
mp2: laif     1     1     1   8.33E-3 8.33E-3 8.33E-3  8.32E-3 8.32E-3 8.32E-3 8.32E-3   0.0     0.0     0.0   
mp2: cphf     1     1     1   2.97E-2 2.97E-2 2.97E-2  9.83E-2 9.83E-2 9.83E-2 9.83E-2   0.0     0.0     0.0   
mp2: wijf     1     1     1   5.02E-3 5.02E-3 5.02E-3  5.03E-3 5.03E-3 5.03E-3 5.03E-3   0.0     0.0     0.0   
mp2: sep      1     1     1   1.24E-2 1.24E-2 1.24E-2  1.24E-2 1.24E-2 1.24E-2 1.24E-2   0.0     0.0     0.0   
mp2: tota     1     1     1   9.55E-2 9.55E-2 9.55E-2  0.17    0.17    0.17    0.17      0.0     0.0     0.0   

 The average no. of pstat calls per process was 1.20D+01
 with a timing overhead of 7.21D-06s


@ Step       Energy      Delta E   Gmax     Grms     Xrms     Xmax   Walltime
@ ---- ---------------- -------- -------- -------- -------- -------- --------
@    0     -74.99850962  0.0D+00  0.05955  0.04927  0.00000  0.00000      0.3
                                                                    



                                Z-matrix (autoz)
                                -------- 

 Units are Angstrom for bonds and degrees for angles

      Type          Name      I     J     K     L     M      Value     Gradient
      ----------- --------  ----- ----- ----- ----- ----- ---------- ----------
    1 Stretch                  1     2                       0.95751   -0.05955
    2 Stretch                  1     3                       0.95751   -0.05955
    3 Bend                     2     1     3               104.47845    0.01378

                                 NWChem SCF Module
                                 -----------------


                    MP2 optimisation on water with STO-3G basis



  ao basis        = "ao basis"
  functions       =     7
  atoms           =     3
  closed shells   =     5
  open shells     =     0
  charge          =   0.00
  wavefunction    = RHF 
  input vectors   = ./molecule.movecs
  output vectors  = ./molecule.movecs
  use symmetry    = T
  symmetry adapt  = T


 Summary of "ao basis" -> "ao basis" (cartesian)
 ------------------------------------------------------------------------------
       Tag                 Description            Shells   Functions and Types
 ---------------- ------------------------------  ------  ---------------------
 O                           sto-3g                  3        5   2s1p
 H                           sto-3g                  1        1   1s


      Symmetry analysis of basis
      --------------------------

        a1          4
        a2          0
        b1          2
        b2          1


 Forming initial guess at       0.3s


 Loading old vectors from job with title :

MP2 optimisation on water with STO-3G basis


      Symmetry analysis of molecular orbitals - initial
      -------------------------------------------------

  Numbering of irreducible representations: 

     1 a1          2 a2          3 b1          4 b2      

  Orbital symmetries:

     1 a1          2 a1          3 b1          4 a1          5 b2      
     6 a1          7 b1      


 Starting SCF solution at       0.3s



 ----------------------------------------------
         Quadratically convergent ROHF

 Convergence threshold     :          1.000E-06
 Maximum no. of iterations :           30
 Final Fock-matrix accuracy:          1.000E-08
 ----------------------------------------------


 #quartets = 7.900D+01 #integrals = 1.640D+02 #direct =  0.0% #cached =100.0%


 Integral file          = ./molecule.aoints.0
 Record size in doubles =  65536        No. of integs per rec  =  43688
 Max. records in memory =      2        Max. records in file   = 148488
 No. of bits per label  =      8        No. of bits per value  =     64


              iter       energy          gnorm     gmax       time
             ----- ------------------- --------- --------- --------
                 1      -74.9600564241  1.46D-01  1.17D-01      0.2
                 2      -74.9622440249  4.25D-02  2.74D-02      0.2
                 3      -74.9625645624  1.35D-03  1.04D-03      0.2
                 4      -74.9625647609  5.24D-08  4.75D-08      0.2


       Final RHF  results 
       ------------------ 

         Total SCF energy =    -74.962564760899
      One-electron energy =   -121.215910017935
      Two-electron energy =     37.681425487551
 Nuclear repulsion energy =      8.571919769485

        Time for solution =      0.0s



       Symmetry analysis of molecular orbitals - final
       -----------------------------------------------

  Numbering of irreducible representations: 

     1 a1          2 a2          3 b1          4 b2      

  Orbital symmetries:

     1 a1          2 a1          3 b1          4 a1          5 b2      
     6 a1          7 b1      

             Final eigenvalues
             -----------------

              1      
    1  -20.2601
    2   -1.2425
    3   -0.5698
    4   -0.4612
    5   -0.3929
    6    0.5495
    7    0.6425

                       ROHF Final Molecular Orbital Analysis
                       -------------------------------------

 Vector    2  Occ=2.000000D+00  E=-1.242470D+00  Symmetry=a1
              MO Center= -3.5D-17, -1.2D-18, -1.1D-03, r^2= 5.4D-01
   Bfn.  Coefficient  Atom+Function         Bfn.  Coefficient  Atom+Function  
  ----- ------------  ---------------      ----- ------------  ---------------
     2      0.858727  1 O  s                  1     -0.235380  1 O  s          
     6      0.151573  2 H  s                  7      0.151573  3 H  s          

 Vector    3  Occ=2.000000D+00  E=-5.698396D-01  Symmetry=b1
              MO Center=  2.8D-17, -1.5D-36, -1.2D-01, r^2= 8.7D-01
   Bfn.  Coefficient  Atom+Function         Bfn.  Coefficient  Atom+Function  
  ----- ------------  ---------------      ----- ------------  ---------------
     3      0.618030  1 O  px                 6      0.451988  2 H  s          
     7     -0.451988  3 H  s          

 Vector    4  Occ=2.000000D+00  E=-4.611991D-01  Symmetry=a1
              MO Center= -5.6D-17, -2.5D-18,  1.6D-01, r^2= 7.1D-01
   Bfn.  Coefficient  Atom+Function         Bfn.  Coefficient  Atom+Function  
  ----- ------------  ---------------      ----- ------------  ---------------
     5      0.739396  1 O  pz                 2      0.528441  1 O  s          
     6     -0.312189  2 H  s                  7     -0.312189  3 H  s          

 Vector    5  Occ=2.000000D+00  E=-3.929021D-01  Symmetry=b2
              MO Center= -4.8D-33, -1.5D-18,  1.8D-01, r^2= 4.2D-01
   Bfn.  Coefficient  Atom+Function         Bfn.  Coefficient  Atom+Function  
  ----- ------------  ---------------      ----- ------------  ---------------
     4      1.000000  1 O  py         

 Vector    6  Occ=0.000000D+00  E= 5.495195D-01  Symmetry=a1
              MO Center=  0.0D+00,  5.2D-18, -3.6D-01, r^2= 1.1D+00
   Bfn.  Coefficient  Atom+Function         Bfn.  Coefficient  Atom+Function  
  ----- ------------  ---------------      ----- ------------  ---------------
     5      0.773789  1 O  pz                 2     -0.752748  1 O  s          
     6      0.740060  2 H  s                  7      0.740060  3 H  s          

 Vector    7  Occ=0.000000D+00  E= 6.425103D-01  Symmetry=b1
              MO Center=  5.6D-17, -3.1D-33, -2.2D-01, r^2= 1.0D+00
   Bfn.  Coefficient  Atom+Function         Bfn.  Coefficient  Atom+Function  
  ----- ------------  ---------------      ----- ------------  ---------------
     3      0.931948  1 O  px                 6     -0.787244  2 H  s          
     7      0.787244  3 H  s          


 center of mass
 --------------
 x =   0.00000000 y =   0.00000000 z =   0.19637172

 moments of inertia (a.u.)
 ------------------
           2.960767031994           0.000000000000           0.000000000000
           0.000000000000           7.246922996583           0.000000000000
           0.000000000000           0.000000000000           4.286155964589

  Mulliken analysis of the total density
  --------------------------------------

    Atom       Charge   Shell Charges
 -----------   ------   -------------------------------------------------------
    1 O    8     8.29   2.00  1.87  4.43
    2 H    1     0.85   0.85
    3 H    1     0.85   0.85

       Multipole analysis of the density wrt the origin
       ------------------------------------------------

     L   x y z        total         open         nuclear
     -   - - -        -----         ----         -------
     0   0 0 0     -0.000000      0.000000     10.000000

     1   1 0 0      0.000000      0.000000      0.000000
     1   0 1 0      0.000000      0.000000      0.000000
     1   0 0 1     -0.656153      0.000000      0.830874

     2   2 0 0     -3.390440      0.000000      4.252877
     2   1 1 0     -0.000000      0.000000      0.000000
     2   1 0 1      0.000000      0.000000      0.000000
     2   0 2 0     -4.579587      0.000000      0.000000
     2   0 1 1     -0.000000      0.000000      0.000000
     2   0 0 2     -4.042972      0.000000      2.715429


 Parallel integral file used       1 records with       0 large values

                   NWChem MP2 Semi-direct Energy/Gradient Module
                   ---------------------------------------------


                    MP2 optimisation on water with STO-3G basis


  Basis functions       =      7
  Molecular orbitals    =      7
  Frozen core           =      0
  Frozen virtuals       =      0
  Active alpha occupied =      5
  Active beta occupied  =      5
  Active alpha virtual  =      2
  Active beta virtual   =      2
  Use MO symmetry       = T
  Use skeleton AO sym   = T

  AO/Fock/Back tols     =   1.0D-09  1.0D-09  1.0D-09

 GA uses MA = F    GA memory limited = T

 Available: 
  local mem=  1.15D+07
 global mem=  2.62D+07
 local disk=  1.09D+07
   1 passes of   5:         131729                        191                       316.

 Semi-direct pass number   1 of   1  for RHF alpha+beta  at        0.4s
Node 0 wrote      0.0 Mb in      0.0 s     Agg I/O rate:    13.4 Mb/s
 Done moints_semi at        0.4s
 Done maket at        0.4s
 Done multipass loop at        0.4s


          -------------------------------------------
          SCF energy                 -74.962564760899
          Correlation energy          -0.043142768557
          Singlet pairs               -0.038894087115
          Triplet pairs               -0.004248681441
          Total MP2 energy           -75.005707529456
          -------------------------------------------

 -----------------------
 Performance information
 -----------------------

 Timer overhead =  5.93D-07 seconds/call

               Nr. of calls         CPU time (s)                 Wall time (s)                GFlops
             ---------------    -------------------     ------------------------------   -------------------
Name         Min   Avg   Max    Min     Avg     Max     Min     Avg     Max   Mx/calls   Min     Max     Sum
mp2: moin     1     1     1   7.69E-3 7.69E-3 7.69E-3  7.68E-3 7.68E-3 7.68E-3 7.68E-3   0.0     0.0     0.0   
mp2: make     1     1     1   2.15E-4 2.15E-4 2.15E-4  2.12E-4 2.12E-4 2.12E-4 2.12E-4   0.0     0.0     0.0   
mp2: tota     1     1     1   1.59E-2 1.59E-2 1.59E-2  1.60E-2 1.60E-2 1.60E-2 1.60E-2   0.0     0.0     0.0   

 The average no. of pstat calls per process was 3.00D+00
 with a timing overhead of 1.78D-06s

 Line search: 
     step= 1.00 grad=-1.9D-02 hess= 1.2D-02 energy=    -75.005708 mode=downhill
 new step= 0.80                   predicted energy=    -75.006218

          --------
          Step   1
          --------


                         Geometry "geometry" -> "geometry"
                         ---------------------------------

 Output coordinates in angstroms (scale by  1.889725989 to convert to a.u.)

  No.       Tag          Charge          X              Y              Z
 ---- ---------------- ---------- -------------- -------------- --------------
    1 O                    8.0000     0.00000000     0.00000000     0.16698620
    2 H                    1.0000     0.76938620     0.00000000    -0.49393534
    3 H                    1.0000    -0.76938620     0.00000000    -0.49393534

      Atomic Mass 
      ----------- 

      O                 15.994910
      H                  1.007825


 Effective nuclear repulsion energy (a.u.)       8.6914930989

            Nuclear Dipole moment (a.u.) 
            ----------------------------
        X                 Y               Z
 ---------------- ---------------- ----------------
     0.0000000000     0.0000000000     0.6576603989

      Symmetry information
      --------------------

 Group name             C2v       
 Group number             16
 Group order               4
 No. of unique centers     2

      Symmetry unique atoms

     1    2

                                 NWChem SCF Module
                                 -----------------


                    MP2 optimisation on water with STO-3G basis



  ao basis        = "ao basis"
  functions       =     7
  atoms           =     3
  closed shells   =     5
  open shells     =     0
  charge          =   0.00
  wavefunction    = RHF 
  input vectors   = ./molecule.movecs
  output vectors  = ./molecule.movecs
  use symmetry    = T
  symmetry adapt  = T


 Summary of "ao basis" -> "ao basis" (cartesian)
 ------------------------------------------------------------------------------
       Tag                 Description            Shells   Functions and Types
 ---------------- ------------------------------  ------  ---------------------
 O                           sto-3g                  3        5   2s1p
 H                           sto-3g                  1        1   1s


      Symmetry analysis of basis
      --------------------------

        a1          4
        a2          0
        b1          2
        b2          1


 Forming initial guess at       0.5s


 Loading old vectors from job with title :

MP2 optimisation on water with STO-3G basis


      Symmetry analysis of molecular orbitals - initial
      -------------------------------------------------

  Numbering of irreducible representations: 

     1 a1          2 a2          3 b1          4 b2      

  Orbital symmetries:

     1 a1          2 a1          3 b1          4 a1          5 b2      
     6 a1          7 b1      


 Starting SCF solution at       0.5s



 ----------------------------------------------
         Quadratically convergent ROHF

 Convergence threshold     :          1.000E-06
 Maximum no. of iterations :           30
 Final Fock-matrix accuracy:          1.000E-08
 ----------------------------------------------


 #quartets = 7.900D+01 #integrals = 1.640D+02 #direct =  0.0% #cached =100.0%


 Integral file          = ./molecule.aoints.0
 Record size in doubles =  65536        No. of integs per rec  =  43688
 Max. records in memory =      2        Max. records in file   = 148488
 No. of bits per label  =      8        No. of bits per value  =     64


              iter       energy          gnorm     gmax       time
             ----- ------------------- --------- --------- --------
                 1      -74.9644904490  2.76D-02  2.27D-02      0.3
                 2      -74.9645823153  1.07D-04  8.66D-05      0.3
                 3      -74.9645823165  2.46D-10  2.34D-10      0.3


       Final RHF  results 
       ------------------ 

         Total SCF energy =    -74.964582316455
      One-electron energy =   -121.441160187497
      Two-electron energy =     37.785084772106
 Nuclear repulsion energy =      8.691493098936

        Time for solution =      0.0s



       Symmetry analysis of molecular orbitals - final
       -----------------------------------------------

  Numbering of irreducible representations: 

     1 a1          2 a2          3 b1          4 b2      

  Orbital symmetries:

     1 a1          2 a1          3 b1          4 a1          5 b2      
     6 a1          7 b1      

             Final eigenvalues
             -----------------

              1      
    1  -20.2565
    2   -1.2474
    3   -0.5794
    4   -0.4597
    5   -0.3925
    6    0.5606
    7    0.6618

                       ROHF Final Molecular Orbital Analysis
                       -------------------------------------

 Vector    2  Occ=2.000000D+00  E=-1.247442D+00  Symmetry=a1
              MO Center= -2.8D-17, -1.2D-18, -1.6D-02, r^2= 5.4D-01
   Bfn.  Coefficient  Atom+Function         Bfn.  Coefficient  Atom+Function  
  ----- ------------  ---------------      ----- ------------  ---------------
     2      0.853546  1 O  s                  1     -0.234795  1 O  s          
     6      0.153174  2 H  s                  7      0.153174  3 H  s          

 Vector    3  Occ=2.000000D+00  E=-5.793639D-01  Symmetry=b1
              MO Center=  2.8D-17, -5.6D-37, -1.3D-01, r^2= 8.6D-01
   Bfn.  Coefficient  Atom+Function         Bfn.  Coefficient  Atom+Function  
  ----- ------------  ---------------      ----- ------------  ---------------
     3      0.615053  1 O  px                 6      0.450895  2 H  s          
     7     -0.450895  3 H  s          

 Vector    4  Occ=2.000000D+00  E=-4.597236D-01  Symmetry=a1
              MO Center= -4.2D-17, -2.6D-18,  1.6D-01, r^2= 6.9D-01
   Bfn.  Coefficient  Atom+Function         Bfn.  Coefficient  Atom+Function  
  ----- ------------  ---------------      ----- ------------  ---------------
     5      0.746767  1 O  pz                 2      0.531291  1 O  s          
     6     -0.305577  2 H  s                  7     -0.305577  3 H  s          

 Vector    5  Occ=2.000000D+00  E=-3.924658D-01  Symmetry=b2
              MO Center= -4.7D-33, -1.4D-18,  1.7D-01, r^2= 4.2D-01
   Bfn.  Coefficient  Atom+Function         Bfn.  Coefficient  Atom+Function  
  ----- ------------  ---------------      ----- ------------  ---------------
     4      1.000000  1 O  py         

 Vector    6  Occ=0.000000D+00  E= 5.606361D-01  Symmetry=a1
              MO Center=  0.0D+00,  5.2D-18, -3.7D-01, r^2= 1.1D+00
   Bfn.  Coefficient  Atom+Function         Bfn.  Coefficient  Atom+Function  
  ----- ------------  ---------------      ----- ------------  ---------------
     2      0.778008  1 O  s                  5     -0.768056  1 O  pz         
     6     -0.751192  2 H  s                  7     -0.751192  3 H  s          

 Vector    7  Occ=0.000000D+00  E= 6.617631D-01  Symmetry=b1
              MO Center=  5.6D-17, -3.1D-33, -2.2D-01, r^2= 1.0D+00
   Bfn.  Coefficient  Atom+Function         Bfn.  Coefficient  Atom+Function  
  ----- ------------  ---------------      ----- ------------  ---------------
     3      0.943309  1 O  px                 6     -0.796317  2 H  s          
     7      0.796317  3 H  s          


 center of mass
 --------------
 x =   0.00000000 y =   0.00000000 z =   0.17578086

 moments of inertia (a.u.)
 ------------------
           2.792332910058           0.000000000000           0.000000000000
           0.000000000000           7.053235194425           0.000000000000
           0.000000000000           0.000000000000           4.260902284367

  Mulliken analysis of the total density
  --------------------------------------

    Atom       Charge   Shell Charges
 -----------   ------   -------------------------------------------------------
    1 O    8     8.31   2.00  1.86  4.45
    2 H    1     0.85   0.85
    3 H    1     0.85   0.85

       Multipole analysis of the density wrt the origin
       ------------------------------------------------

     L   x y z        total         open         nuclear
     -   - - -        -----         ----         -------
     0   0 0 0     -0.000000      0.000000     10.000000

     1   1 0 0      0.000000      0.000000      0.000000
     1   0 1 0      0.000000      0.000000      0.000000
     1   0 0 1     -0.661416      0.000000      0.657660

     2   2 0 0     -3.359649      0.000000      4.227820
     2   1 1 0     -0.000000      0.000000      0.000000
     2   1 0 1     -0.000000      0.000000      0.000000
     2   0 2 0     -4.570221      0.000000      0.000000
     2   0 1 1     -0.000000      0.000000      0.000000
     2   0 0 2     -4.037754      0.000000      2.539096


 Parallel integral file used       1 records with       0 large values

                   NWChem MP2 Semi-direct Energy/Gradient Module
                   ---------------------------------------------


                    MP2 optimisation on water with STO-3G basis


  Basis functions       =      7
  Molecular orbitals    =      7
  Frozen core           =      0
  Frozen virtuals       =      0
  Active alpha occupied =      5
  Active beta occupied  =      5
  Active alpha virtual  =      2
  Active beta virtual   =      2
  Use MO symmetry       = T
  Use skeleton AO sym   = T

  AO/Fock/Back tols     =   1.0D-09  1.0D-09  1.0D-09

 GA uses MA = F    GA memory limited = T

 Available: 
  local mem=  1.15D+07
 global mem=  2.62D+07
 local disk=  1.09D+07
   1 passes of   5:         979496                        391                      1097.

 Semi-direct pass number   1 of   1  for RHF alpha+beta  at        0.6s
Node 0 wrote      0.0 Mb in      0.0 s     Agg I/O rate:     9.5 Mb/s
 Done moints_semi at        0.6s
 Done maket at        0.6s
 Done pijab at        0.6s
 Done wijab at        0.6s
 Done lai at        0.6s
 Done nonsep at        0.6s
 Done multipass loop at        0.6s


          -------------------------------------------
          SCF energy                 -74.964582316455
          Correlation energy          -0.041464544817
          Singlet pairs               -0.037501081379
          Triplet pairs               -0.003963463439
          Total MP2 energy           -75.006046861273
          -------------------------------------------

                                NWChem CPHF Module
                                ------------------


    scftype = RHF 
    nclosed =    5
      nopen =    0
  variables =       10
  tolerance =   1.0D-04
  max. iter =  100


 #quartets = 7.900D+01 #integrals = 1.640D+02 #direct =  0.0% #cached =100.0%


 Integral file          = ./molecule.aoints.0
 Record size in doubles =  65536        No. of integs per rec  =  43688
 Max. records in memory =      2        Max. records in file   = 148488
 No. of bits per label  =      8        No. of bits per value  =     64

 SCF residual:   2.45962829292914834E-010

            ----- linear solve (tol: 1.0E-04 prod-acc: 5.0E-10) -----

               iter nbas    rnorm     rnorm-scal   ratio     time
               ---- ---- ----------- ----------- --------- -------
                  1    1  5.0000E-03  3.1928E-01    0.0000     0.4
                  2    2  8.2931E-04  5.2957E-02    0.1659     0.4
                  3    3  3.2917E-06  2.1020E-04    0.0040     0.4
                  4    4  3.1829E-18  2.0325E-16    0.0000     0.4

 CPHF converged to   2.0D-16 in    4 iters


 Parallel integral file used       1 records with       0 large values

                Dipole Moments (a.u.)
                --------------
         Nuclear       SCF       SCF+MP2
       ----------- ----------- -----------
 X       0.000000    0.000000    0.000000
 Y       0.000000    0.000000    0.000000
 Z       0.657660   -0.661416   -0.626532


 MP2 RHF      natural orbital occupation numbers


              1      
    1    2.0000
    2    1.9990
    3    1.9983
    4    1.9860
    5    1.9836
    6    0.0175
    7    0.0156

  MP2 natural orbitals output to ./molecule.mp2nos

  Using symmetry


                         mp2 ENERGY GRADIENTS

    atom               coordinates                        gradient
                 x          y          z           x          y          z
   1 O       0.000000   0.000000   0.315558    0.000000   0.000000  -0.003270
   2 H       1.453929   0.000000  -0.933402    0.003762   0.000000   0.001635
   3 H      -1.453929   0.000000  -0.933402   -0.003762   0.000000   0.001635

                 ----------------------------------------
                 |  Time  |  1-e(secs)   |  2-e(secs)   |
                 ----------------------------------------
                 |  CPU   |       0.00   |       0.01   |
                 ----------------------------------------
                 |  WALL  |       0.00   |       0.01   |
                 ----------------------------------------
 -----------------------
 Performance information
 -----------------------

 Timer overhead =  5.01D-07 seconds/call

               Nr. of calls         CPU time (s)                 Wall time (s)                GFlops
             ---------------    -------------------     ------------------------------   -------------------
Name         Min   Avg   Max    Min     Avg     Max     Min     Avg     Max   Mx/calls   Min     Max     Sum
mp2: moin     1     1     1   8.57E-3 8.57E-3 8.57E-3  8.57E-3 8.57E-3 8.57E-3 8.57E-3   0.0     0.0     0.0   
mp2: make     1     1     1   3.04E-4 3.04E-4 3.04E-4  3.02E-4 3.02E-4 3.02E-4 3.02E-4   0.0     0.0     0.0   
mp2: pija     1     1     1   6.40E-5 6.40E-5 6.40E-5  6.20E-5 6.20E-5 6.20E-5 6.20E-5   0.0     0.0     0.0   
mp2: wija     1     1     1   8.60E-5 8.60E-5 8.60E-5  8.40E-5 8.40E-5 8.40E-5 8.40E-5   0.0     0.0     0.0   
mp2: lai      1     1     1   1.35E-4 1.35E-4 1.35E-4  1.36E-4 1.36E-4 1.36E-4 1.36E-4   0.0     0.0     0.0   
mp2: back     1     1     1   3.32E-4 3.32E-4 3.32E-4  3.32E-4 3.32E-4 3.32E-4 3.32E-4   0.0     0.0     0.0   
mp2: nons     1     1     1   1.23E-2 1.23E-2 1.23E-2  1.23E-2 1.23E-2 1.23E-2 1.23E-2   0.0     0.0     0.0   
mp2: laif     1     1     1   8.29E-3 8.29E-3 8.29E-3  8.30E-3 8.30E-3 8.30E-3 8.30E-3   0.0     0.0     0.0   
mp2: cphf     1     1     1   2.67E-2 2.67E-2 2.67E-2  8.59E-2 8.59E-2 8.59E-2 8.59E-2   0.0     0.0     0.0   
mp2: wijf     1     1     1   5.26E-3 5.26E-3 5.26E-3  5.26E-3 5.26E-3 5.26E-3 5.26E-3   0.0     0.0     0.0   
mp2: sep      1     1     1   1.04E-2 1.04E-2 1.04E-2  1.04E-2 1.04E-2 1.04E-2 1.04E-2   0.0     0.0     0.0   
mp2: tota     1     1     1   8.99E-2 8.99E-2 8.99E-2  0.15    0.15    0.15    0.15      0.0     0.0     0.0   

 The average no. of pstat calls per process was 1.20D+01
 with a timing overhead of 6.01D-06s


  Step       Energy      Delta E   Gmax     Grms     Xrms     Xmax   Walltime
  ---- ---------------- -------- -------- -------- -------- -------- --------
@    1     -75.00604686 -7.5D-03  0.00374  0.00261  0.04008  0.09656      0.7
                                                                    



                                Z-matrix (autoz)
                                -------- 

 Units are Angstrom for bonds and degrees for angles

      Type          Name      I     J     K     L     M      Value     Gradient
      ----------- --------  ----- ----- ----- ----- ----- ---------- ----------
    1 Stretch                  1     2                       1.01428    0.00179
    2 Stretch                  1     3                       1.01428    0.00179
    3 Bend                     2     1     3                98.67323    0.00374

                                 NWChem SCF Module
                                 -----------------


                    MP2 optimisation on water with STO-3G basis



  ao basis        = "ao basis"
  functions       =     7
  atoms           =     3
  closed shells   =     5
  open shells     =     0
  charge          =   0.00
  wavefunction    = RHF 
  input vectors   = ./molecule.movecs
  output vectors  = ./molecule.movecs
  use symmetry    = T
  symmetry adapt  = T


 Summary of "ao basis" -> "ao basis" (cartesian)
 ------------------------------------------------------------------------------
       Tag                 Description            Shells   Functions and Types
 ---------------- ------------------------------  ------  ---------------------
 O                           sto-3g                  3        5   2s1p
 H                           sto-3g                  1        1   1s


      Symmetry analysis of basis
      --------------------------

        a1          4
        a2          0
        b1          2
        b2          1


 Forming initial guess at       0.7s


 Loading old vectors from job with title :

MP2 optimisation on water with STO-3G basis


      Symmetry analysis of molecular orbitals - initial
      -------------------------------------------------

  Numbering of irreducible representations: 

     1 a1          2 a2          3 b1          4 b2      

  Orbital symmetries:

     1 a1          2 a1          3 b1          4 a1          5 b2      
     6 a1          7 b1      


 Starting SCF solution at       0.7s



 ----------------------------------------------
         Quadratically convergent ROHF

 Convergence threshold     :          1.000E-06
 Maximum no. of iterations :           30
 Final Fock-matrix accuracy:          1.000E-08
 ----------------------------------------------


 #quartets = 7.900D+01 #integrals = 1.640D+02 #direct =  0.0% #cached =100.0%


 Integral file          = ./molecule.aoints.0
 Record size in doubles =  65536        No. of integs per rec  =  43688
 Max. records in memory =      2        Max. records in file   = 148488
 No. of bits per label  =      8        No. of bits per value  =     64


              iter       energy          gnorm     gmax       time
             ----- ------------------- --------- --------- --------
                 1      -74.9644355389  8.63D-03  8.05D-03      0.4
                 2      -74.9644501141  3.55D-05  2.66D-05      0.4
                 3      -74.9644501141  2.84D-08  2.37D-08      0.4


       Final RHF  results 
       ------------------ 

         Total SCF energy =    -74.964450114145
      One-electron energy =   -121.450602154756
      Two-electron energy =     37.784367790407
 Nuclear repulsion energy =      8.701784250204

        Time for solution =      0.0s



       Symmetry analysis of molecular orbitals - final
       -----------------------------------------------

  Numbering of irreducible representations: 

     1 a1          2 a2          3 b1          4 b2      

  Orbital symmetries:

     1 a1          2 a1          3 b1          4 a1          5 b2      
     6 a1          7 b1      

             Final eigenvalues
             -----------------

              1      
    1  -20.2580
    2   -1.2492
    3   -0.5770
    4   -0.4633
    5   -0.3934
    6    0.5634
    7    0.6588

                       ROHF Final Molecular Orbital Analysis
                       -------------------------------------

 Vector    2  Occ=2.000000D+00  E=-1.249244D+00  Symmetry=a1
              MO Center= -2.8D-17, -1.1D-18, -1.3D-02, r^2= 5.4D-01
   Bfn.  Coefficient  Atom+Function         Bfn.  Coefficient  Atom+Function  
  ----- ------------  ---------------      ----- ------------  ---------------
     2      0.852875  1 O  s                  1     -0.234644  1 O  s          
     6      0.153115  2 H  s                  7      0.153115  3 H  s          

 Vector    3  Occ=2.000000D+00  E=-5.770297D-01  Symmetry=b1
              MO Center=  2.8D-17, -2.3D-36, -1.2D-01, r^2= 8.6D-01
   Bfn.  Coefficient  Atom+Function         Bfn.  Coefficient  Atom+Function  
  ----- ------------  ---------------      ----- ------------  ---------------
     3      0.617889  1 O  px                 6      0.451465  2 H  s          
     7     -0.451465  3 H  s          

 Vector    4  Occ=2.000000D+00  E=-4.632609D-01  Symmetry=a1
              MO Center= -5.6D-17, -2.6D-18,  1.6D-01, r^2= 6.9D-01
   Bfn.  Coefficient  Atom+Function         Bfn.  Coefficient  Atom+Function  
  ----- ------------  ---------------      ----- ------------  ---------------
     5      0.742178  1 O  pz                 2      0.535524  1 O  s          
     6     -0.306799  2 H  s                  7     -0.306799  3 H  s          

 Vector    5  Occ=2.000000D+00  E=-3.934066D-01  Symmetry=b2
              MO Center= -4.7D-33, -1.4D-18,  1.7D-01, r^2= 4.2D-01
   Bfn.  Coefficient  Atom+Function         Bfn.  Coefficient  Atom+Function  
  ----- ------------  ---------------      ----- ------------  ---------------
     4      1.000000  1 O  py         

 Vector    6  Occ=0.000000D+00  E= 5.633968D-01  Symmetry=a1
              MO Center=  0.0D+00,  5.2D-18, -3.7D-01, r^2= 1.1D+00
   Bfn.  Coefficient  Atom+Function         Bfn.  Coefficient  Atom+Function  
  ----- ------------  ---------------      ----- ------------  ---------------
     2      0.775593  1 O  s                  5     -0.775346  1 O  pz         
     6     -0.749458  2 H  s                  7     -0.749458  3 H  s          

 Vector    7  Occ=0.000000D+00  E= 6.588312D-01  Symmetry=b1
              MO Center=  0.0D+00, -1.5D-33, -2.2D-01, r^2= 1.0D+00
   Bfn.  Coefficient  Atom+Function         Bfn.  Coefficient  Atom+Function  
  ----- ------------  ---------------      ----- ------------  ---------------
     3      0.939161  1 O  px                 6     -0.798862  2 H  s          
     7      0.798862  3 H  s          


 center of mass
 --------------
 x =   0.00000000 y =   0.00000000 z =   0.18591427

 moments of inertia (a.u.)
 ------------------
           2.874608238216           0.000000000000           0.000000000000
           0.000000000000           7.032157349516           0.000000000000
           0.000000000000           0.000000000000           4.157549111300

  Mulliken analysis of the total density
  --------------------------------------

    Atom       Charge   Shell Charges
 -----------   ------   -------------------------------------------------------
    1 O    8     8.31   2.00  1.86  4.45
    2 H    1     0.85   0.85
    3 H    1     0.85   0.85

       Multipole analysis of the density wrt the origin
       ------------------------------------------------

     L   x y z        total         open         nuclear
     -   - - -        -----         ----         -------
     0   0 0 0     -0.000000      0.000000     10.000000

     1   1 0 0      0.000000      0.000000      0.000000
     1   0 1 0      0.000000      0.000000      0.000000
     1   0 0 1     -0.665023      0.000000      0.742904

     2   2 0 0     -3.394839      0.000000      4.125269
     2   1 1 0     -0.000000      0.000000      0.000000
     2   1 0 1     -0.000000      0.000000      0.000000
     2   0 2 0     -4.570497      0.000000      0.000000
     2   0 1 1     -0.000000      0.000000      0.000000
     2   0 0 2     -4.032771      0.000000      2.624574


 Parallel integral file used       1 records with       0 large values

                   NWChem MP2 Semi-direct Energy/Gradient Module
                   ---------------------------------------------


                    MP2 optimisation on water with STO-3G basis


  Basis functions       =      7
  Molecular orbitals    =      7
  Frozen core           =      0
  Frozen virtuals       =      0
  Active alpha occupied =      5
  Active beta occupied  =      5
  Active alpha virtual  =      2
  Active beta virtual   =      2
  Use MO symmetry       = T
  Use skeleton AO sym   = T

  AO/Fock/Back tols     =   1.0D-09  1.0D-09  1.0D-09

 GA uses MA = F    GA memory limited = T

 Available: 
  local mem=  1.15D+07
 global mem=  2.62D+07
 local disk=  1.09D+07
   1 passes of   5:         131729                        191                       316.

 Semi-direct pass number   1 of   1  for RHF alpha+beta  at        0.8s
Node 0 wrote      0.0 Mb in      0.0 s     Agg I/O rate:     8.1 Mb/s
 Done moints_semi at        0.8s
 Done maket at        0.8s
 Done multipass loop at        0.8s


          -------------------------------------------
          SCF energy                 -74.964450114145
          Correlation energy          -0.041685552090
          Singlet pairs               -0.037619228594
          Triplet pairs               -0.004066323496
          Total MP2 energy           -75.006135666235
          -------------------------------------------

 -----------------------
 Performance information
 -----------------------

 Timer overhead =  6.60D-07 seconds/call

               Nr. of calls         CPU time (s)                 Wall time (s)                GFlops
             ---------------    -------------------     ------------------------------   -------------------
Name         Min   Avg   Max    Min     Avg     Max     Min     Avg     Max   Mx/calls   Min     Max     Sum
mp2: moin     1     1     1   1.08E-2 1.08E-2 1.08E-2  1.08E-2 1.08E-2 1.08E-2 1.08E-2   0.0     0.0     0.0   
mp2: make     1     1     1   2.65E-4 2.65E-4 2.65E-4  2.64E-4 2.64E-4 2.64E-4 2.64E-4   0.0     0.0     0.0   
mp2: tota     1     1     1   1.92E-2 1.92E-2 1.92E-2  1.92E-2 1.92E-2 1.92E-2 1.92E-2   0.0     0.0     0.0   

 The average no. of pstat calls per process was 3.00D+00
 with a timing overhead of 1.98D-06s

 Line search: 
     step= 1.00 grad=-1.9D-04 hess= 1.0D-04 energy=    -75.006136 mode=accept  
 new step= 1.00                   predicted energy=    -75.006136

          --------
          Step   2
          --------


                         Geometry "geometry" -> "geometry"
                         ---------------------------------

 Output coordinates in angstroms (scale by  1.889725989 to convert to a.u.)

  No.       Tag          Charge          X              Y              Z
 ---- ---------------- ---------- -------------- -------------- --------------
    1 O                    8.0000     0.00000000     0.00000000     0.17343037
    2 H                    1.0000     0.75999773     0.00000000    -0.49715743
    3 H                    1.0000    -0.75999773     0.00000000    -0.49715743

      Atomic Mass 
      ----------- 

      O                 15.994910
      H                  1.007825


 Effective nuclear repulsion energy (a.u.)       8.7017842502

            Nuclear Dipole moment (a.u.) 
            ----------------------------
        X                 Y               Z
 ---------------- ---------------- ----------------
     0.0000000000     0.0000000000     0.7429043646

      Symmetry information
      --------------------

 Group name             C2v       
 Group number             16
 Group order               4
 No. of unique centers     2

      Symmetry unique atoms

     1    2

                                 NWChem SCF Module
                                 -----------------


                    MP2 optimisation on water with STO-3G basis



  ao basis        = "ao basis"
  functions       =     7
  atoms           =     3
  closed shells   =     5
  open shells     =     0
  charge          =   0.00
  wavefunction    = RHF 
  input vectors   = ./molecule.movecs
  output vectors  = ./molecule.movecs
  use symmetry    = T
  symmetry adapt  = T


 Summary of "ao basis" -> "ao basis" (cartesian)
 ------------------------------------------------------------------------------
       Tag                 Description            Shells   Functions and Types
 ---------------- ------------------------------  ------  ---------------------
 O                           sto-3g                  3        5   2s1p
 H                           sto-3g                  1        1   1s


      Symmetry analysis of basis
      --------------------------

        a1          4
        a2          0
        b1          2
        b2          1


  The SCF is already converged 

         Total SCF energy =    -74.964450114145

                   NWChem MP2 Semi-direct Energy/Gradient Module
                   ---------------------------------------------


                    MP2 optimisation on water with STO-3G basis


  Basis functions       =      7
  Molecular orbitals    =      7
  Frozen core           =      0
  Frozen virtuals       =      0
  Active alpha occupied =      5
  Active beta occupied  =      5
  Active alpha virtual  =      2
  Active beta virtual   =      2
  Use MO symmetry       = T
  Use skeleton AO sym   = T

  AO/Fock/Back tols     =   1.0D-09  1.0D-09  1.0D-09

 GA uses MA = F    GA memory limited = T

 Available: 
  local mem=  1.15D+07
 global mem=  2.62D+07
 local disk=  1.09D+07
   1 passes of   5:         979496                        391                      1097.

 Semi-direct pass number   1 of   1  for RHF alpha+beta  at        0.9s
Node 0 wrote      0.0 Mb in      0.0 s     Agg I/O rate:    13.4 Mb/s
 Done moints_semi at        0.9s
 Done maket at        0.9s
 Done pijab at        0.9s
 Done wijab at        0.9s
 Done lai at        0.9s
 Done nonsep at        0.9s
 Done multipass loop at        0.9s


          -------------------------------------------
          SCF energy                 -74.964450114145
          Correlation energy          -0.041685552090
          Singlet pairs               -0.037619228594
          Triplet pairs               -0.004066323496
          Total MP2 energy           -75.006135666235
          -------------------------------------------

                                NWChem CPHF Module
                                ------------------


    scftype = RHF 
    nclosed =    5
      nopen =    0
  variables =       10
  tolerance =   1.0D-04
  max. iter =  100


 #quartets = 7.900D+01 #integrals = 1.640D+02 #direct =  0.0% #cached =100.0%


 Integral file          = ./molecule.aoints.0
 Record size in doubles =  65536        No. of integs per rec  =  43688
 Max. records in memory =      2        Max. records in file   = 148488
 No. of bits per label  =      8        No. of bits per value  =     64

 SCF residual:   2.83619279743828282E-008

            ----- linear solve (tol: 1.0E-04 prod-acc: 5.0E-10) -----

               iter nbas    rnorm     rnorm-scal   ratio     time
               ---- ---- ----------- ----------- --------- -------
                  1    1  4.9507E-03  3.1457E-01    0.0000     0.5
                  2    2  8.4339E-04  5.3589E-02    0.1704     0.5
                  3    3  6.7824E-07  4.3096E-05    0.0008     0.5

 CPHF converged to   4.3D-05 in    3 iters


 Parallel integral file used       1 records with       0 large values

                Dipole Moments (a.u.)
                --------------
         Nuclear       SCF       SCF+MP2
       ----------- ----------- -----------
 X       0.000000    0.000000    0.000000
 Y       0.000000    0.000000    0.000000
 Z       0.742904   -0.665023   -0.629501


 MP2 RHF      natural orbital occupation numbers


              1      
    1    2.0000
    2    1.9990
    3    1.9983
    4    1.9859
    5    1.9835
    6    0.0177
    7    0.0156

  MP2 natural orbitals output to ./molecule.mp2nos

  Using symmetry


                         mp2 ENERGY GRADIENTS

    atom               coordinates                        gradient
                 x          y          z           x          y          z
   1 O       0.000000   0.000000   0.327736    0.000000   0.000000   0.000482
   2 H       1.436187   0.000000  -0.939491   -0.000201   0.000000  -0.000241
   3 H      -1.436187   0.000000  -0.939491    0.000201   0.000000  -0.000241

                 ----------------------------------------
                 |  Time  |  1-e(secs)   |  2-e(secs)   |
                 ----------------------------------------
                 |  CPU   |       0.00   |       0.01   |
                 ----------------------------------------
                 |  WALL  |       0.00   |       0.01   |
                 ----------------------------------------
 -----------------------
 Performance information
 -----------------------

 Timer overhead =  4.95D-07 seconds/call

               Nr. of calls         CPU time (s)                 Wall time (s)                GFlops
             ---------------    -------------------     ------------------------------   -------------------
Name         Min   Avg   Max    Min     Avg     Max     Min     Avg     Max   Mx/calls   Min     Max     Sum
mp2: moin     1     1     1   7.63E-3 7.63E-3 7.63E-3  7.63E-3 7.63E-3 7.63E-3 7.63E-3   0.0     0.0     0.0   
mp2: make     1     1     1   2.62E-4 2.62E-4 2.62E-4  2.62E-4 2.62E-4 2.62E-4 2.62E-4   0.0     0.0     0.0   
mp2: pija     1     1     1   5.60E-5 5.60E-5 5.60E-5  5.60E-5 5.60E-5 5.60E-5 5.60E-5   0.0     0.0     0.0   
mp2: wija     1     1     1   5.40E-5 5.40E-5 5.40E-5  5.40E-5 5.40E-5 5.40E-5 5.40E-5   0.0     0.0     0.0   
mp2: lai      1     1     1   1.19E-4 1.19E-4 1.19E-4  1.20E-4 1.20E-4 1.20E-4 1.20E-4   0.0     0.0     0.0   
mp2: back     1     1     1   3.29E-4 3.29E-4 3.29E-4  3.30E-4 3.30E-4 3.30E-4 3.30E-4   0.0     0.0     0.0   
mp2: nons     1     1     1   9.23E-3 9.23E-3 9.23E-3  9.25E-3 9.25E-3 9.25E-3 9.25E-3   0.0     0.0     0.0   
mp2: laif     1     1     1   8.30E-3 8.30E-3 8.30E-3  8.30E-3 8.30E-3 8.30E-3 8.30E-3   0.0     0.0     0.0   
mp2: cphf     1     1     1   2.43E-2 2.43E-2 2.43E-2  8.52E-2 8.52E-2 8.52E-2 8.52E-2   0.0     0.0     0.0   
mp2: wijf     1     1     1   5.14E-3 5.14E-3 5.14E-3  5.14E-3 5.14E-3 5.14E-3 5.14E-3   0.0     0.0     0.0   
mp2: sep      1     1     1   9.60E-3 9.60E-3 9.60E-3  9.60E-3 9.60E-3 9.60E-3 9.60E-3   0.0     0.0     0.0   
mp2: tota     1     1     1   8.23E-2 8.23E-2 8.23E-2  0.14    0.14    0.14    0.14      0.0     0.0     0.0   

 The average no. of pstat calls per process was 1.20D+01
 with a timing overhead of 5.94D-06s


  Step       Energy      Delta E   Gmax     Grms     Xrms     Xmax   Walltime
  ---- ---------------- -------- -------- -------- -------- -------- --------
@    2     -75.00613567 -8.9D-05  0.00032  0.00018  0.00976  0.01786      1.0
                                     ok       ok                    



                                Z-matrix (autoz)
                                -------- 

 Units are Angstrom for bonds and degrees for angles

      Type          Name      I     J     K     L     M      Value     Gradient
      ----------- --------  ----- ----- ----- ----- ----- ---------- ----------
    1 Stretch                  1     2                       1.01355    0.00001
    2 Stretch                  1     3                       1.01355    0.00001
    3 Bend                     2     1     3                97.15254   -0.00032

                                 NWChem SCF Module
                                 -----------------


                    MP2 optimisation on water with STO-3G basis



  ao basis        = "ao basis"
  functions       =     7
  atoms           =     3
  closed shells   =     5
  open shells     =     0
  charge          =   0.00
  wavefunction    = RHF 
  input vectors   = ./molecule.movecs
  output vectors  = ./molecule.movecs
  use symmetry    = T
  symmetry adapt  = T


 Summary of "ao basis" -> "ao basis" (cartesian)
 ------------------------------------------------------------------------------
       Tag                 Description            Shells   Functions and Types
 ---------------- ------------------------------  ------  ---------------------
 O                           sto-3g                  3        5   2s1p
 H                           sto-3g                  1        1   1s


      Symmetry analysis of basis
      --------------------------

        a1          4
        a2          0
        b1          2
        b2          1


 Forming initial guess at       1.0s


 Loading old vectors from job with title :

MP2 optimisation on water with STO-3G basis


      Symmetry analysis of molecular orbitals - initial
      -------------------------------------------------

  Numbering of irreducible representations: 

     1 a1          2 a2          3 b1          4 b2      

  Orbital symmetries:

     1 a1          2 a1          3 b1          4 a1          5 b2      
     6 a1          7 b1      


 Starting SCF solution at       1.0s



 ----------------------------------------------
         Quadratically convergent ROHF

 Convergence threshold     :          1.000E-06
 Maximum no. of iterations :           30
 Final Fock-matrix accuracy:          1.000E-08
 ----------------------------------------------


 #quartets = 7.900D+01 #integrals = 1.640D+02 #direct =  0.0% #cached =100.0%


 Integral file          = ./molecule.aoints.0
 Record size in doubles =  65536        No. of integs per rec  =  43688
 Max. records in memory =      2        Max. records in file   = 148488
 No. of bits per label  =      8        No. of bits per value  =     64


              iter       energy          gnorm     gmax       time
             ----- ------------------- --------- --------- --------
                 1      -74.9644814139  8.06D-04  7.83D-04      0.6
                 2      -74.9644815403  1.09D-07  7.79D-08      0.6


       Final RHF  results 
       ------------------ 

         Total SCF energy =    -74.964481540306
      One-electron energy =   -121.451883816045
      Two-electron energy =     37.785307317614
 Nuclear repulsion energy =      8.702094958125

        Time for solution =      0.0s



       Symmetry analysis of molecular orbitals - final
       -----------------------------------------------

  Numbering of irreducible representations: 

     1 a1          2 a2          3 b1          4 b2      

  Orbital symmetries:

     1 a1          2 a1          3 b1          4 a1          5 b2      
     6 a1          7 b1      

             Final eigenvalues
             -----------------

              1      
    1  -20.2579
    2   -1.2492
    3   -0.5773
    4   -0.4630
    5   -0.3933
    6    0.5633
    7    0.6592

                       ROHF Final Molecular Orbital Analysis
                       -------------------------------------

 Vector    2  Occ=2.000000D+00  E=-1.249160D+00  Symmetry=a1
              MO Center= -2.8D-17, -1.1D-18, -1.3D-02, r^2= 5.4D-01
   Bfn.  Coefficient  Atom+Function         Bfn.  Coefficient  Atom+Function  
  ----- ------------  ---------------      ----- ------------  ---------------
     2      0.852880  1 O  s                  1     -0.234650  1 O  s          
     6      0.153131  2 H  s                  7      0.153131  3 H  s          

 Vector    3  Occ=2.000000D+00  E=-5.772855D-01  Symmetry=b1
              MO Center=  2.8D-17, -2.3D-36, -1.2D-01, r^2= 8.6D-01
   Bfn.  Coefficient  Atom+Function         Bfn.  Coefficient  Atom+Function  
  ----- ------------  ---------------      ----- ------------  ---------------
     3      0.617655  1 O  px                 6      0.451414  2 H  s          
     7     -0.451414  3 H  s          

 Vector    4  Occ=2.000000D+00  E=-4.629941D-01  Symmetry=a1
              MO Center=  0.0D+00, -5.3D-35,  1.6D-01, r^2= 6.9D-01
   Bfn.  Coefficient  Atom+Function         Bfn.  Coefficient  Atom+Function  
  ----- ------------  ---------------      ----- ------------  ---------------
     5      0.742575  1 O  pz                 2      0.535242  1 O  s          
     6     -0.306652  2 H  s                  7     -0.306652  3 H  s          

 Vector    5  Occ=2.000000D+00  E=-3.933376D-01  Symmetry=b2
              MO Center= -5.5D-33, -4.0D-18,  1.7D-01, r^2= 4.2D-01
   Bfn.  Coefficient  Atom+Function         Bfn.  Coefficient  Atom+Function  
  ----- ------------  ---------------      ----- ------------  ---------------
     4      1.000000  1 O  py         

 Vector    6  Occ=0.000000D+00  E= 5.633037D-01  Symmetry=a1
              MO Center=  0.0D+00,  5.2D-18, -3.7D-01, r^2= 1.1D+00
   Bfn.  Coefficient  Atom+Function         Bfn.  Coefficient  Atom+Function  
  ----- ------------  ---------------      ----- ------------  ---------------
     2      0.775995  1 O  s                  5     -0.774773  1 O  pz         
     6     -0.749686  2 H  s                  7     -0.749686  3 H  s          

 Vector    7  Occ=0.000000D+00  E= 6.592071D-01  Symmetry=b1
              MO Center=  1.7D-16, -1.5D-33, -2.2D-01, r^2= 1.0D+00
   Bfn.  Coefficient  Atom+Function         Bfn.  Coefficient  Atom+Function  
  ----- ------------  ---------------      ----- ------------  ---------------
     3      0.939564  1 O  px                 6     -0.798752  2 H  s          
     7      0.798752  3 H  s          


 center of mass
 --------------
 x =   0.00000000 y =   0.00000000 z =   0.18500909

 moments of inertia (a.u.)
 ------------------
           2.867210330375           0.000000000000           0.000000000000
           0.000000000000           7.032003438750           0.000000000000
           0.000000000000           0.000000000000           4.164793108375

  Mulliken analysis of the total density
  --------------------------------------

    Atom       Charge   Shell Charges
 -----------   ------   -------------------------------------------------------
    1 O    8     8.31   2.00  1.86  4.45
    2 H    1     0.85   0.85
    3 H    1     0.85   0.85

       Multipole analysis of the density wrt the origin
       ------------------------------------------------

     L   x y z        total         open         nuclear
     -   - - -        -----         ----         -------
     0   0 0 0     -0.000000      0.000000     10.000000

     1   1 0 0      0.000000      0.000000      0.000000
     1   0 1 0      0.000000      0.000000      0.000000
     1   0 0 1     -0.664808      0.000000      0.735290

     2   2 0 0     -3.392048      0.000000      4.132457
     2   1 1 0     -0.000000      0.000000      0.000000
     2   1 0 1      0.000000      0.000000      0.000000
     2   0 2 0     -4.570396      0.000000      0.000000
     2   0 1 1     -0.000000      0.000000      0.000000
     2   0 0 2     -4.033090      0.000000      2.616836


 Parallel integral file used       1 records with       0 large values

                   NWChem MP2 Semi-direct Energy/Gradient Module
                   ---------------------------------------------


                    MP2 optimisation on water with STO-3G basis


  Basis functions       =      7
  Molecular orbitals    =      7
  Frozen core           =      0
  Frozen virtuals       =      0
  Active alpha occupied =      5
  Active beta occupied  =      5
  Active alpha virtual  =      2
  Active beta virtual   =      2
  Use MO symmetry       = T
  Use skeleton AO sym   = T

  AO/Fock/Back tols     =   1.0D-09  1.0D-09  1.0D-09

 GA uses MA = F    GA memory limited = T

 Available: 
  local mem=  1.15D+07
 global mem=  2.62D+07
 local disk=  1.09D+07
   1 passes of   5:         131729                        191                       316.

 Semi-direct pass number   1 of   1  for RHF alpha+beta  at        1.1s
Node 0 wrote      0.0 Mb in      0.0 s     Agg I/O rate:    13.5 Mb/s
 Done moints_semi at        1.1s
 Done maket at        1.1s
 Done multipass loop at        1.1s


          -------------------------------------------
          SCF energy                 -74.964481540306
          Correlation energy          -0.041654770598
          Singlet pairs               -0.037598585799
          Triplet pairs               -0.004056184799
          Total MP2 energy           -75.006136310904
          -------------------------------------------

 -----------------------
 Performance information
 -----------------------

 Timer overhead =  4.98D-07 seconds/call

               Nr. of calls         CPU time (s)                 Wall time (s)                GFlops
             ---------------    -------------------     ------------------------------   -------------------
Name         Min   Avg   Max    Min     Avg     Max     Min     Avg     Max   Mx/calls   Min     Max     Sum
mp2: moin     1     1     1   7.68E-3 7.68E-3 7.68E-3  7.68E-3 7.68E-3 7.68E-3 7.68E-3   0.0     0.0     0.0   
mp2: make     1     1     1   2.09E-4 2.09E-4 2.09E-4  2.06E-4 2.06E-4 2.06E-4 2.06E-4   0.0     0.0     0.0   
mp2: tota     1     1     1   1.61E-2 1.61E-2 1.61E-2  1.62E-2 1.62E-2 1.62E-2 1.62E-2   0.0     0.0     0.0   

 The average no. of pstat calls per process was 3.00D+00
 with a timing overhead of 1.49D-06s

 Line search: 
     step= 1.00 grad=-1.3D-06 hess= 6.5D-07 energy=    -75.006136 mode=accept  
 new step= 1.00                   predicted energy=    -75.006136

          --------
          Step   3
          --------


                         Geometry "geometry" -> "geometry"
                         ---------------------------------

 Output coordinates in angstroms (scale by  1.889725989 to convert to a.u.)

  No.       Tag          Charge          X              Y              Z
 ---- ---------------- ---------- -------------- -------------- --------------
    1 O                    8.0000     0.00000000     0.00000000     0.17285474
    2 H                    1.0000     0.76065954     0.00000000    -0.49686961
    3 H                    1.0000    -0.76065954     0.00000000    -0.49686961

      Atomic Mass 
      ----------- 

      O                 15.994910
      H                  1.007825


 Effective nuclear repulsion energy (a.u.)       8.7020949581

            Nuclear Dipole moment (a.u.) 
            ----------------------------
        X                 Y               Z
 ---------------- ---------------- ----------------
     0.0000000000     0.0000000000     0.7352898679

      Symmetry information
      --------------------

 Group name             C2v       
 Group number             16
 Group order               4
 No. of unique centers     2

      Symmetry unique atoms

     1    2

                                 NWChem SCF Module
                                 -----------------


                    MP2 optimisation on water with STO-3G basis



  ao basis        = "ao basis"
  functions       =     7
  atoms           =     3
  closed shells   =     5
  open shells     =     0
  charge          =   0.00
  wavefunction    = RHF 
  input vectors   = ./molecule.movecs
  output vectors  = ./molecule.movecs
  use symmetry    = T
  symmetry adapt  = T


 Summary of "ao basis" -> "ao basis" (cartesian)
 ------------------------------------------------------------------------------
       Tag                 Description            Shells   Functions and Types
 ---------------- ------------------------------  ------  ---------------------
 O                           sto-3g                  3        5   2s1p
 H                           sto-3g                  1        1   1s


      Symmetry analysis of basis
      --------------------------

        a1          4
        a2          0
        b1          2
        b2          1


  The SCF is already converged 

         Total SCF energy =    -74.964481540306

                   NWChem MP2 Semi-direct Energy/Gradient Module
                   ---------------------------------------------


                    MP2 optimisation on water with STO-3G basis


  Basis functions       =      7
  Molecular orbitals    =      7
  Frozen core           =      0
  Frozen virtuals       =      0
  Active alpha occupied =      5
  Active beta occupied  =      5
  Active alpha virtual  =      2
  Active beta virtual   =      2
  Use MO symmetry       = T
  Use skeleton AO sym   = T

  AO/Fock/Back tols     =   1.0D-09  1.0D-09  1.0D-09

 GA uses MA = F    GA memory limited = T

 Available: 
  local mem=  1.15D+07
 global mem=  2.62D+07
 local disk=  1.09D+07
   1 passes of   5:         979496                        391                      1097.

 Semi-direct pass number   1 of   1  for RHF alpha+beta  at        1.1s
Node 0 wrote      0.0 Mb in      0.0 s     Agg I/O rate:    13.3 Mb/s
 Done moints_semi at        1.1s
 Done maket at        1.1s
 Done pijab at        1.1s
 Done wijab at        1.1s
 Done lai at        1.1s
 Done nonsep at        1.2s
 Done multipass loop at        1.2s


          -------------------------------------------
          SCF energy                 -74.964481540306
          Correlation energy          -0.041654770598
          Singlet pairs               -0.037598585799
          Triplet pairs               -0.004056184799
          Total MP2 energy           -75.006136310904
          -------------------------------------------

                                NWChem CPHF Module
                                ------------------


    scftype = RHF 
    nclosed =    5
      nopen =    0
  variables =       10
  tolerance =   1.0D-04
  max. iter =  100


 #quartets = 7.900D+01 #integrals = 1.640D+02 #direct =  0.0% #cached =100.0%


 Integral file          = ./molecule.aoints.0
 Record size in doubles =  65536        No. of integs per rec  =  43688
 Max. records in memory =      2        Max. records in file   = 148488
 No. of bits per label  =      8        No. of bits per value  =     64

 SCF residual:   1.09430964164829724E-007

            ----- linear solve (tol: 1.0E-04 prod-acc: 5.0E-10) -----

               iter nbas    rnorm     rnorm-scal   ratio     time
               ---- ---- ----------- ----------- --------- -------
                  1    1  4.9522E-03  3.1489E-01    0.0000     0.7
                  2    2  8.4170E-04  5.3520E-02    0.1700     0.7
                  3    3  9.3353E-07  5.9359E-05    0.0011     0.7

 CPHF converged to   5.9D-05 in    3 iters


 Parallel integral file used       1 records with       0 large values

                Dipole Moments (a.u.)
                --------------
         Nuclear       SCF       SCF+MP2
       ----------- ----------- -----------
 X       0.000000    0.000000    0.000000
 Y       0.000000    0.000000    0.000000
 Z       0.735290   -0.664808   -0.629353


 MP2 RHF      natural orbital occupation numbers


              1      
    1    2.0000
    2    1.9990
    3    1.9983
    4    1.9859
    5    1.9835
    6    0.0177
    7    0.0156

  MP2 natural orbitals output to ./molecule.mp2nos

  Using symmetry


                         mp2 ENERGY GRADIENTS

    atom               coordinates                        gradient
                 x          y          z           x          y          z
   1 O       0.000000   0.000000   0.326648    0.000000   0.000000   0.000026
   2 H       1.437438   0.000000  -0.938947    0.000018   0.000000  -0.000013
   3 H      -1.437438   0.000000  -0.938947   -0.000018   0.000000  -0.000013

                 ----------------------------------------
                 |  Time  |  1-e(secs)   |  2-e(secs)   |
                 ----------------------------------------
                 |  CPU   |       0.00   |       0.01   |
                 ----------------------------------------
                 |  WALL  |       0.00   |       0.01   |
                 ----------------------------------------
 -----------------------
 Performance information
 -----------------------

 Timer overhead =  5.74D-07 seconds/call

               Nr. of calls         CPU time (s)                 Wall time (s)                GFlops
             ---------------    -------------------     ------------------------------   -------------------
Name         Min   Avg   Max    Min     Avg     Max     Min     Avg     Max   Mx/calls   Min     Max     Sum
mp2: moin     1     1     1   7.62E-3 7.62E-3 7.62E-3  7.62E-3 7.62E-3 7.62E-3 7.62E-3   0.0     0.0     0.0   
mp2: make     1     1     1   2.63E-4 2.63E-4 2.63E-4  2.62E-4 2.62E-4 2.62E-4 2.62E-4   0.0     0.0     0.0   
mp2: pija     1     1     1   5.60E-5 5.60E-5 5.60E-5  5.60E-5 5.60E-5 5.60E-5 5.60E-5   0.0     0.0     0.0   
mp2: wija     1     1     1   5.40E-5 5.40E-5 5.40E-5  5.40E-5 5.40E-5 5.40E-5 5.40E-5   0.0     0.0     0.0   
mp2: lai      1     1     1   1.20E-4 1.20E-4 1.20E-4  1.18E-4 1.18E-4 1.18E-4 1.18E-4   0.0     0.0     0.0   
mp2: back     1     1     1   3.31E-4 3.31E-4 3.31E-4  3.30E-4 3.30E-4 3.30E-4 3.30E-4   0.0     0.0     0.0   
mp2: nons     1     1     1   9.62E-3 9.62E-3 9.62E-3  9.62E-3 9.62E-3 9.62E-3 9.62E-3   0.0     0.0     0.0   
mp2: laif     1     1     1   5.06E-3 5.06E-3 5.06E-3  5.06E-3 5.06E-3 5.06E-3 5.06E-3   0.0     0.0     0.0   
mp2: cphf     1     1     1   2.40E-2 2.40E-2 2.40E-2  8.42E-2 8.42E-2 8.42E-2 8.42E-2   0.0     0.0     0.0   
mp2: wijf     1     1     1   5.23E-3 5.23E-3 5.23E-3  5.23E-3 5.23E-3 5.23E-3 5.23E-3   0.0     0.0     0.0   
mp2: sep      1     1     1   1.20E-2 1.20E-2 1.20E-2  1.21E-2 1.21E-2 1.21E-2 1.21E-2   0.0     0.0     0.0   
mp2: tota     1     1     1   8.09E-2 8.09E-2 8.09E-2  0.14    0.14    0.14    0.14      0.0     0.0     0.0   

 The average no. of pstat calls per process was 1.20D+01
 with a timing overhead of 6.88D-06s


  Step       Energy      Delta E   Gmax     Grms     Xrms     Xmax   Walltime
  ---- ---------------- -------- -------- -------- -------- -------- --------
@    3     -75.00613631 -6.4D-07  0.00002  0.00002  0.00074  0.00125      1.3
                                     ok       ok       ok       ok  



                                Z-matrix (autoz)
                                -------- 

 Units are Angstrom for bonds and degrees for angles

      Type          Name      I     J     K     L     M      Value     Gradient
      ----------- --------  ----- ----- ----- ----- ----- ---------- ----------
    1 Stretch                  1     2                       1.01348    0.00002
    2 Stretch                  1     3                       1.01348    0.00002
    3 Bend                     2     1     3                97.27525    0.00000


      ----------------------
      Optimization converged
      ----------------------


  Step       Energy      Delta E   Gmax     Grms     Xrms     Xmax   Walltime
  ---- ---------------- -------- -------- -------- -------- -------- --------
@    3     -75.00613631 -6.4D-07  0.00002  0.00002  0.00074  0.00125      1.3
                                     ok       ok       ok       ok  



                                Z-matrix (autoz)
                                -------- 

 Units are Angstrom for bonds and degrees for angles

      Type          Name      I     J     K     L     M      Value     Gradient
      ----------- --------  ----- ----- ----- ----- ----- ---------- ----------
    1 Stretch                  1     2                       1.01348    0.00002
    2 Stretch                  1     3                       1.01348    0.00002
    3 Bend                     2     1     3                97.27525    0.00000



                         Geometry "geometry" -> "geometry"
                         ---------------------------------

 Output coordinates in angstroms (scale by  1.889725989 to convert to a.u.)

  No.       Tag          Charge          X              Y              Z
 ---- ---------------- ---------- -------------- -------------- --------------
    1 O                    8.0000     0.00000000     0.00000000     0.17285474
    2 H                    1.0000     0.76065954     0.00000000    -0.49686961
    3 H                    1.0000    -0.76065954     0.00000000    -0.49686961

      Atomic Mass 
      ----------- 

      O                 15.994910
      H                  1.007825


 Effective nuclear repulsion energy (a.u.)       8.7020949581

            Nuclear Dipole moment (a.u.) 
            ----------------------------
        X                 Y               Z
 ---------------- ---------------- ----------------
     0.0000000000     0.0000000000     0.7352898679

      Symmetry information
      --------------------

 Group name             C2v       
 Group number             16
 Group order               4
 No. of unique centers     2

      Symmetry unique atoms

     1    2


                Final and change from initial internal coordinates
                --------------------------------------------------



                                Z-matrix (autoz)
                                -------- 

 Units are Angstrom for bonds and degrees for angles

      Type          Name      I     J     K     L     M      Value       Change
      ----------- --------  ----- ----- ----- ----- ----- ---------- ----------
    1 Stretch                  1     2                       1.01348    0.05597
    2 Stretch                  1     3                       1.01348    0.05597
    3 Bend                     2     1     3                97.27525   -7.20319

 ==============================================================================
                                internuclear distances
 ------------------------------------------------------------------------------
       center one      |      center two      | atomic units |  angstroms
 ------------------------------------------------------------------------------
    2 H                |   1 O                |     1.91519  |     1.01348
    3 H                |   1 O                |     1.91519  |     1.01348
 ------------------------------------------------------------------------------
                         number of included internuclear distances:          2
 ==============================================================================



 ==============================================================================
                                 internuclear angles
 ------------------------------------------------------------------------------
        center 1       |       center 2       |       center 3       |  degrees
 ------------------------------------------------------------------------------
    2 H                |   1 O                |   3 H                |    97.28
 ------------------------------------------------------------------------------
                            number of included internuclear angles:          1
 ==============================================================================




 Task  times  cpu:        0.7s     wall:        1.3s
 Summary of allocated global arrays
-----------------------------------
  No active global arrays



                         GA Statistics for process    0
                         ------------------------------

       create   destroy   get      put      acc     scatter   gather  read&inc
calls: 1804     1804     1.19e+04 5789     6383        0        0        0     
number of processes/call 1.00e+00 1.00e+00 1.00e+00 0.00e+00 0.00e+00
bytes total:             1.04e+06 5.65e+05 3.47e+05 0.00e+00 0.00e+00 0.00e+00
bytes remote:            0.00e+00 0.00e+00 0.00e+00 0.00e+00 0.00e+00 0.00e+00
Max memory consumed for GA by this process: 9080 bytes
MA_summarize_allocated_blocks: starting scan ...
MA_summarize_allocated_blocks: scan completed: 0 heap blocks, 0 stack blocks
MA usage statistics:

	allocation statistics:
					      heap	     stack
					      ----	     -----
	current number of blocks	         0	         0
	maximum number of blocks	        26	        36
	current total bytes		         0	         0
	maximum total bytes		   1055128	  22509032
	maximum total K-bytes		      1056	     22510
	maximum total M-bytes		         2	        23


                                NWChem Input Module
                                -------------------





                                     CITATION
                                     --------
                Please cite the following reference when publishing
                           results obtained with NWChem:

                 M. Valiev, E.J. Bylaska, N. Govind, K. Kowalski,
              T.P. Straatsma, H.J.J. van Dam, D. Wang, J. Nieplocha,
                        E. Apra, T.L. Windus, W.A. de Jong
                 "NWChem: a comprehensive and scalable open-source
                  solution for large scale molecular simulations"
                      Comput. Phys. Commun. 181, 1477 (2010)
                           doi:10.1016/j.cpc.2010.04.018

                              AUTHORS & CONTRIBUTORS
                              ----------------------
      E. J. Bylaska, W. A. de Jong, N. Govind, K. Kowalski, T. P. Straatsma,
     M. Valiev, H. J. J. van Dam, D. Wang, E. Apra, T. L. Windus, J. Hammond,
    J. Autschbach, F. Aquino, J. Mullin, P. Nichols, S. Hirata, M. T. Hackler,
   Y. Zhao, P.-D. Fan, R. J. Harrison, M. Dupuis, D. M. A. Smith, K. Glaesemann,
    J. Nieplocha, V. Tipparaju, M. Krishnan, A. Vazquez-Mayagoitia, L. Jensen,
      M. Swart, Q. Wu, T. Van Voorhis, A. A. Auer, M. Nooijen, L. D. Crosby,
        E. Brown, G. Cisneros, G. I. Fann, H. Fruchtl, J. Garza, K. Hirao,
        R. Kendall, J. A. Nichols, K. Tsemekhman, K. Wolinski, J. Anchell,
       D. Bernholdt, P. Borowski, T. Clark, D. Clerc, H. Dachsel, M. Deegan,
        K. Dyall, D. Elwood, E. Glendening, M. Gutowski, A. Hess, J. Jaffe,
        B. Johnson, J. Ju, R. Kobayashi, R. Kutteh, Z. Lin, R. Littlefield,
    X. Long, B. Meng, T. Nakajima, S. Niu, R. Peverati, L. Pollack, M. Rosing,
          G. Sandrone, M. Stave, H. Taylor, G. Thomas, J. H. van Lenthe,
                                A. Wong, Z. Zhang.

 Total times  cpu:        0.7s     wall:        1.3s
