 Entering Gaussian System, Link 0=/usr/local/Gaussian/g03/g03
 Initial command:
 /usr/local/Gaussian/g03/l1.exe /export/scratch//webmo/3294/Gau-7420.inp -scrdir=/export/scratch//webmo/3294/
 Entering Link 1 = /usr/local/Gaussian/g03/l1.exe PID=      7423.
  
 Copyright (c) 1988,1990,1992,1993,1995,1998,2003, Gaussian, Inc.
                  All Rights Reserved.
  
 This is the Gaussian(R) 03 program.  It is based on the
 the Gaussian(R) 98 system (copyright 1998, Gaussian, Inc.),
 the Gaussian(R) 94 system (copyright 1995, Gaussian, Inc.),
 the Gaussian 92(TM) system (copyright 1992, Gaussian, Inc.),
 the Gaussian 90(TM) system (copyright 1990, Gaussian, Inc.),
 the Gaussian 88(TM) system (copyright 1988, Gaussian, Inc.),
 the Gaussian 86(TM) system (copyright 1986, Carnegie Mellon
 University), and the Gaussian 82(TM) system (copyright 1983,
 Carnegie Mellon University). Gaussian is a federally registered
 trademark of Gaussian, Inc.
  
 This software contains proprietary and confidential information,
 including trade secrets, belonging to Gaussian, Inc.
  
 This software is provided under written license and may be
 used, copied, transmitted, or stored only in accord with that
 written license.
  
 The following legend is applicable only to US Government
 contracts under DFARS:
  
                    RESTRICTED RIGHTS LEGEND
  
 Use, duplication or disclosure by the US Government is subject
 to restrictions as set forth in subparagraph (c)(1)(ii) of the
 Rights in Technical Data and Computer Software clause at DFARS
 252.227-7013.
  
 Gaussian, Inc.
 Carnegie Office Park, Building 6, Pittsburgh, PA 15106 USA
  
 The following legend is applicable only to US Government
 contracts under FAR:
  
                    RESTRICTED RIGHTS LEGEND
  
 Use, reproduction and disclosure by the US Government is subject
 to restrictions as set forth in subparagraph (c) of the
 Commercial Computer Software - Restricted Rights clause at FAR
 52.227-19.
  
 Gaussian, Inc.
 Carnegie Office Park, Building 6, Pittsburgh, PA 15106 USA
  
  
 ---------------------------------------------------------------
 Warning -- This program may not be used in any manner that
 competes with the business of Gaussian, Inc. or will provide
 assistance to any competitor of Gaussian, Inc.  The licensee
 of this program is prohibited from giving any competitor of
 Gaussian, Inc. access to this program.  By using this program,
 the user acknowledges that Gaussian, Inc. is engaged in the
 business of creating and licensing software in the field of
 computational chemistry and represents and warrants to the
 licensee that it is not a competitor of Gaussian, Inc. and that
 it will not use this program in any manner prohibited above.
 ---------------------------------------------------------------
  

 Cite this work as:
 Gaussian 03, Revision B.04,
 M. J. Frisch, G. W. Trucks, H. B. Schlegel, G. E. Scuseria, 
 M. A. Robb, J. R. Cheeseman, J. A. Montgomery, Jr., T. Vreven, 
 K. N. Kudin, J. C. Burant, J. M. Millam, S. S. Iyengar, J. Tomasi, 
 V. Barone, B. Mennucci, M. Cossi, G. Scalmani, N. Rega, 
 G. A. Petersson, H. Nakatsuji, M. Hada, M. Ehara, K. Toyota, 
 R. Fukuda, J. Hasegawa, M. Ishida, T. Nakajima, Y. Honda, O. Kitao, 
 H. Nakai, M. Klene, X. Li, J. E. Knox, H. P. Hratchian, J. B. Cross, 
 C. Adamo, J. Jaramillo, R. Gomperts, R. E. Stratmann, O. Yazyev, 
 A. J. Austin, R. Cammi, C. Pomelli, J. W. Ochterski, P. Y. Ayala, 
 K. Morokuma, G. A. Voth, P. Salvador, J. J. Dannenberg, 
 V. G. Zakrzewski, S. Dapprich, A. D. Daniels, M. C. Strain, 
 O. Farkas, D. K. Malick, A. D. Rabuck, K. Raghavachari, 
 J. B. Foresman, J. V. Ortiz, Q. Cui, A. G. Baboul, S. Clifford, 
 J. Cioslowski, B. B. Stefanov, G. Liu, A. Liashenko, P. Piskorz, 
 I. Komaromi, R. L. Martin, D. J. Fox, T. Keith, M. A. Al-Laham, 
 C. Y. Peng, A. Nanayakkara, M. Challacombe, P. M. W. Gill, 
 B. Johnson, W. Chen, M. W. Wong, C. Gonzalez, and J. A. Pople, 
 Gaussian, Inc., Pittsburgh PA, 2003.
 
 ***************************************************
 Gaussian 03:  Sun64-SVR4-Unix-G03RevB.04 2-Jun-2003
                     19-Aug-2006 
 ***************************************************
 -----------------------------------------------------------
 #P b3pw91/6-311+G(d,p) opt=(ts,noeigen,calcfc) freq=noraman
 -----------------------------------------------------------
 1/5=1,10=4,11=1,14=-1,18=20,26=3,38=1/1,3;
 2/9=110,17=6,18=5,40=1/2;
 3/5=4,6=6,7=111,11=2,16=1,25=1,30=1,74=-6/1,2,3;
 4//1;
 5/5=2,38=5/2;
 8/6=4,10=90,11=11/1;
 11/6=1,8=1,9=11,15=111,16=1/1,2,10;
 10/6=1,7=6/2;
 6/7=2,8=2,9=2,10=2,28=1/1;
 7/10=1,18=20,25=1/1,2,3,16;
 1/5=1,10=4,11=1,14=-1,18=20/3(1);
 99//99;
 2/9=110/2;
 3/5=4,6=6,7=111,11=2,16=1,25=1,30=1,74=-6/1,2,3;
 4/5=5,16=3/1;
 5/5=2,38=5/2;
 7//1,2,3,16;
 1/5=1,11=1,14=-1,18=20/3(-5);
 2/9=110/2;
 6/7=2,8=2,9=2,10=2,19=2,28=1/1;
 99/9=1/99;
 Leave Link    1 at Sat Aug 19 08:57:22 2006, MaxMem=          0 cpu:       0.4
 (Enter /usr/local/Gaussian/g03/l101.exe)
 ----------------------
 me/cl b3pw91\6-311+G**
 ----------------------
 Symbolic Z-matrix:
 Charge =  0 Multiplicity = 2
 C
 H                    1    B1
 H                    1    B2       2    A1
 H                    1    B3       2    A2       3    D1       0
 H                    2    B4       1    A3       3    D2       0
 Cl                   5    B5       2    A4       1    D3       0
       Variables:
  B1                    1.08375                  
  B2                    1.08374                  
  B3                    1.08375                  
  B4                    2.04053                  
  B5                    1.39621                  
  A1                  117.62355                  
  A2                  117.62126                  
  D1                 -149.81572                  
  A3                   49.40089                  
  D2                 -105.08658                  
  A4                  148.35957                  
  D3                  179.9807                   
 
                    Isotopes and Nuclear Properties:

  Atom         1           2           3           4           5           6
 IAtWgt=          12           1           1           1           1          35
 AtmWgt=  12.0000000   1.0078250   1.0078250   1.0078250   1.0078250  34.9688527
 IAtSpn=           0           1           1           1           1           3
 AtZEff=   0.0000000   0.0000000   0.0000000   0.0000000   0.0000000   0.0000000
 AtQMom=   0.0000000   0.0000000   0.0000000   0.0000000   0.0000000  -8.2490000
 AtGFac=   0.0000000   2.7928460   2.7928460   2.7928460   2.7928460   0.8218740
 Leave Link  101 at Sat Aug 19 08:57:23 2006, MaxMem=    6291456 cpu:       0.2
 (Enter /usr/local/Gaussian/g03/l103.exe)

 GradGradGradGradGradGradGradGradGradGradGradGradGradGradGradGradGradGrad
 Berny optimization.
 Initialization pass.
                           ----------------------------
                           !    Initial Parameters    !
                           ! (Angstroms and Degrees)  !
 --------------------------                            --------------------------
 ! Name  Definition              Value          Derivative Info.                !
 --------------------------------------------------------------------------------
 ! R1    R(1,2)                  1.0837         calculate D2E/DX2 analytically  !
 ! R2    R(1,3)                  1.0837         calculate D2E/DX2 analytically  !
 ! R3    R(1,4)                  1.0838         calculate D2E/DX2 analytically  !
 ! R4    R(1,5)                  1.5685         calculate D2E/DX2 analytically  !
 ! R5    R(5,6)                  1.3962         calculate D2E/DX2 analytically  !
 ! A1    A(2,1,3)              117.6236         calculate D2E/DX2 analytically  !
 ! A2    A(2,1,4)              117.6213         calculate D2E/DX2 analytically  !
 ! A3    A(2,1,5)               98.9554         calculate D2E/DX2 analytically  !
 ! A4    A(3,1,4)              117.6216         calculate D2E/DX2 analytically  !
 ! A5    A(3,1,5)               98.9529         calculate D2E/DX2 analytically  !
 ! A6    A(4,1,5)               98.963          calculate D2E/DX2 analytically  !
 ! A7    L(1,5,6,3,-1)         179.9896         calculate D2E/DX2 analytically  !
 ! A8    L(1,5,6,3,-2)         179.9958         calculate D2E/DX2 analytically  !
 --------------------------------------------------------------------------------
 Trust Radius=3.00D-01 FncErr=1.00D-07 GrdErr=1.00D-06
 Number of steps in this run=  23 maximum allowed number of steps= 100.
 Search for a saddle point of order  1.
 GradGradGradGradGradGradGradGradGradGradGradGradGradGradGradGradGradGrad

 Leave Link  103 at Sat Aug 19 08:57:24 2006, MaxMem=    6291456 cpu:       0.0
 (Enter /usr/local/Gaussian/g03/l202.exe)
                          Input orientation:                          
 ---------------------------------------------------------------------
 Center     Atomic     Atomic              Coordinates (Angstroms)
 Number     Number      Type              X           Y           Z
 ---------------------------------------------------------------------
    1          6             0        0.000000    0.000000    0.000000
    2          1             0        0.000000    0.000000    1.083748
    3          1             0        0.960209    0.000000   -0.502488
    4          1             0       -0.830043    0.482792   -0.502455
    5          1             0       -0.403259   -1.495939   -0.244155
    6         17             0       -0.761992   -2.827648   -0.461576
 ---------------------------------------------------------------------
                    Distance matrix (angstroms):
                    1          2          3          4          5
     1  C    0.000000
     2  H    1.083748   0.000000
     3  H    1.083741   1.854224   0.000000
     4  H    1.083753   1.854212   1.854209   0.000000
     5  H    1.568459   2.040534   2.040494   2.040647   0.000000
     6  Cl   2.964672   3.311232   3.311079   3.311392   1.396213
                    6
     6  Cl   0.000000
 This structure is nearly, but not quite of a higher symmetry.
 Consider Symm=Loose if the higher symmetry is desired.
 Stoichiometry    CH4Cl(2)
 Framework group  C1[X(CH4Cl)]
 Deg. of freedom    12
 Full point group                 C1      NOp   1
 Largest Abelian subgroup         C1      NOp   1
 Largest concise Abelian subgroup C1      NOp   1
                         Standard orientation:                         
 ---------------------------------------------------------------------
 Center     Atomic     Atomic              Coordinates (Angstroms)
 Number     Number      Type              X           Y           Z
 ---------------------------------------------------------------------
    1          6             0        1.674944    0.409184    0.812356
    2          1             0        2.043660   -0.599711    0.956188
    3          1             0        2.112004    0.994560    0.011851
    4          1             0        1.314033    0.941385    1.684724
    5          1             0        0.296567    0.072418    0.143978
    6         17             0       -0.930349   -0.227280   -0.451228
 ---------------------------------------------------------------------
 Rotational constants (GHZ):    145.8518682      5.2351791      5.2351772
 Leave Link  202 at Sat Aug 19 08:57:27 2006, MaxMem=    6291456 cpu:       0.5
 (Enter /usr/local/Gaussian/g03/l301.exe)
 Standard basis: 6-311+G(d,p) (5D, 7F)
 There are    76 symmetry adapted basis functions of A   symmetry.
 Integral buffers will be    131072 words long.
 Raffenetti 2 integral format.
 Two-electron integral symmetry is turned on.
    76 basis functions,   121 primitive gaussians,    78 cartesian basis functions
    14 alpha electrons       13 beta electrons
       nuclear repulsion energy        45.2476282955 Hartrees.
 IExCor= 408 DFT=T Ex=B+HF Corr=PW91 ExCW=0 ScaHFX=  0.200000
 ScaDFX=  0.800000  0.720000  1.000000  0.810000
 IRadAn=      0 IRanWt=     -1 IRanGd=            0 ICorTp=0
 NAtoms=    6 NActive=    6 NUniq=    6 SFac= 1.00D+00 NAtFMM=   60 Big=F
 Leave Link  301 at Sat Aug 19 08:57:29 2006, MaxMem=    6291456 cpu:       0.1
 (Enter /usr/local/Gaussian/g03/l302.exe)
 NPDir=0 NMtPBC=     1 NCelOv=     1 NCel=       1 NClECP=     1 NCelD=      1
         NCelK=      1 NCelE2=     1 NClLst=     1 CellRange=     0.0.
 One-electron integrals computed using PRISM.
 NBasis=    76 RedAO= T  NBF=    76
 NBsUse=    76 1.00D-06 NBFU=    76
 Precomputing XC quadrature grid using
 IXCGrd= 2 IRadAn=           0 IRanWt=          -1 IRanGd=           0.
 NRdTot=     381 NPtTot=       48666 NUsed=       51358 NTot=       51390
 NSgBfM=    78    78    78    78.
 Leave Link  302 at Sat Aug 19 08:57:35 2006, MaxMem=    6291456 cpu:       0.7
 (Enter /usr/local/Gaussian/g03/l303.exe)
 DipDrv:  MaxL=1.
 Leave Link  303 at Sat Aug 19 08:57:36 2006, MaxMem=    6291456 cpu:       0.1
 (Enter /usr/local/Gaussian/g03/l401.exe)
 Harris functional with IExCor=  408 diagonalized for initial guess.
 ExpMin= 4.38D-02 ExpMax= 1.06D+05 ExpMxC= 3.62D+03 IAcc=2 IRadAn=         4 AccDes= 0.00D+00
 HarFok:  IExCor= 408 AccDes= 0.00D+00 IRadAn=         4 IDoV=1
 ScaDFX=  1.000000  1.000000  1.000000  1.000000
 Harris En= -500.717762844308    
 Initial guess orbital symmetries:
 Alpha Orbitals:
       Occupied  (A) (A) (A) (A) (A) (A) (A) (A) (A) (A) (A) (A)
                 (A) (A)
       Virtual   (A) (A) (A) (A) (A) (A) (A) (A) (A) (A) (A) (A)
                 (A) (A) (A) (A) (A) (A) (A) (A) (A) (A) (A) (A)
                 (A) (A) (A) (A) (A) (A) (A) (A) (A) (A) (A) (A)
                 (A) (A) (A) (A) (A) (A) (A) (A) (A) (A) (A) (A)
                 (A) (A) (A) (A) (A) (A) (A) (A) (A) (A) (A) (A)
                 (A) (A)
 Beta  Orbitals:
       Occupied  (A) (A) (A) (A) (A) (A) (A) (A) (A) (A) (A) (A)
                 (A)
       Virtual   (A) (A) (A) (A) (A) (A) (A) (A) (A) (A) (A) (A)
                 (A) (A) (A) (A) (A) (A) (A) (A) (A) (A) (A) (A)
                 (A) (A) (A) (A) (A) (A) (A) (A) (A) (A) (A) (A)
                 (A) (A) (A) (A) (A) (A) (A) (A) (A) (A) (A) (A)
                 (A) (A) (A) (A) (A) (A) (A) (A) (A) (A) (A) (A)
                 (A) (A) (A)
 The electronic state of the initial guess is 2-A.
 <S**2> of initial guess= 0.7500
 Leave Link  401 at Sat Aug 19 08:57:59 2006, MaxMem=    6291456 cpu:       3.4
 (Enter /usr/local/Gaussian/g03/l502.exe)
 UHF open shell SCF:
 Requested convergence on RMS density matrix=1.00D-08 within 128 cycles.
 Requested convergence on MAX density matrix=1.00D-06.
 Requested convergence on             energy=1.00D-06.
 No special actions if energy rises.
 Using DIIS extrapolation, IDIIS=  1040.
 Integral symmetry usage will be decided dynamically.
        51357 words used for storage of precomputed grid.
 IEnd=     90701 IEndB=     90701 NGot=   6291456 MDV=   6223558
 LenX=   6223558
 Fock matrices will be formed incrementally for  20 cycles.

 Cycle   1  Pass 1  IDiag  1:
 Petite list used in FoFDir.
 MinBra= 0 MaxBra= 2 Meth= 1.
 IRaf=       0 NMat=   1 IRICut=       1 DoRegI=T DoRafI=F ISym2E= 1 JSym2E=1.
 E= -500.565298148272    
 DIIS: error= 4.09D-02 at cycle   1 NSaved=   1.
 NSaved= 1 IEnMin= 1 EnMin= -500.565298148272     IErMin= 1 ErrMin= 4.09D-02
 ErrMax= 4.09D-02 EMaxC= 1.00D-01 BMatC= 2.27D-01 BMatP= 2.27D-01
 IDIUse=3 WtCom= 5.91D-01 WtEn= 4.09D-01
 Coeff-Com:  0.100D+01
 Coeff-En:   0.100D+01
 Coeff:      0.100D+01
 Gap=     0.231 Goal=   None    Shift=    0.000
 Gap=     0.229 Goal=   None    Shift=    0.000
 GapD=    0.229 DampG=1.000 DampE=0.500 DampFc=0.5000 IDamp=-1.
 Damping current iteration by 5.00D-01
 RMSDP=4.24D-03 MaxDP=1.26D-01              OVMax= 1.52D-01

 Cycle   2  Pass 1  IDiag  1:
 RMSU=  2.10D-03    CP:  9.93D-01
 E= -500.591509348095     Delta-E=       -0.026211199823 Rises=F Damp=T
 DIIS: error= 6.08D-03 at cycle   2 NSaved=   2.
 NSaved= 2 IEnMin= 2 EnMin= -500.591509348095     IErMin= 2 ErrMin= 6.08D-03
 ErrMax= 6.08D-03 EMaxC= 1.00D-01 BMatC= 1.31D-02 BMatP= 2.27D-01
 IDIUse=3 WtCom= 9.39D-01 WtEn= 6.08D-02
 Coeff-Com: -0.183D-01 0.102D+01
 Coeff-En:   0.476D-02 0.995D+00
 Coeff:     -0.169D-01 0.102D+01
 Gap=     0.289 Goal=   None    Shift=    0.000
 Gap=     0.153 Goal=   None    Shift=    0.000
 RMSDP=1.28D-03 MaxDP=2.22D-02 DE=-2.62D-02 OVMax= 1.09D-01

 Cycle   3  Pass 1  IDiag  1:
 RMSU=  1.25D-03    CP:  9.90D-01  8.80D-01
 E= -500.619046863497     Delta-E=       -0.027537515402 Rises=F Damp=F
 DIIS: error= 3.63D-03 at cycle   3 NSaved=   3.
 NSaved= 3 IEnMin= 3 EnMin= -500.619046863497     IErMin= 3 ErrMin= 3.63D-03
 ErrMax= 3.63D-03 EMaxC= 1.00D-01 BMatC= 3.61D-03 BMatP= 1.31D-02
 IDIUse=3 WtCom= 9.64D-01 WtEn= 3.63D-02
 Coeff-Com: -0.520D-01 0.295D+00 0.757D+00
 Coeff-En:   0.000D+00 0.000D+00 0.100D+01
 Coeff:     -0.501D-01 0.284D+00 0.766D+00
 Gap=     0.291 Goal=   None    Shift=    0.000
 Gap=     0.167 Goal=   None    Shift=    0.000
 RMSDP=5.60D-04 MaxDP=1.19D-02 DE=-2.75D-02 OVMax= 3.47D-02

 Cycle   4  Pass 1  IDiag  1:
 RMSU=  4.50D-04    CP:  9.92D-01  9.26D-01  7.59D-01
 E= -500.619835076970     Delta-E=       -0.000788213473 Rises=F Damp=F
 DIIS: error= 2.50D-03 at cycle   4 NSaved=   4.
 NSaved= 4 IEnMin= 4 EnMin= -500.619835076970     IErMin= 4 ErrMin= 2.50D-03
 ErrMax= 2.50D-03 EMaxC= 1.00D-01 BMatC= 1.41D-03 BMatP= 3.61D-03
 IDIUse=3 WtCom= 9.75D-01 WtEn= 2.50D-02
 Coeff-Com: -0.232D-01 0.330D-01 0.411D+00 0.580D+00
 Coeff-En:   0.000D+00 0.000D+00 0.198D+00 0.802D+00
 Coeff:     -0.226D-01 0.322D-01 0.405D+00 0.585D+00
 Gap=     0.291 Goal=   None    Shift=    0.000
 Gap=     0.162 Goal=   None    Shift=    0.000
 RMSDP=2.71D-04 MaxDP=5.15D-03 DE=-7.88D-04 OVMax= 8.52D-03

 Cycle   5  Pass 1  IDiag  1:
 RMSU=  8.08D-05    CP:  9.91D-01  9.14D-01  9.33D-01  7.17D-01
 E= -500.620195157843     Delta-E=       -0.000360080874 Rises=F Damp=F
 DIIS: error= 2.33D-04 at cycle   5 NSaved=   5.
 NSaved= 5 IEnMin= 5 EnMin= -500.620195157843     IErMin= 5 ErrMin= 2.33D-04
 ErrMax= 2.33D-04 EMaxC= 1.00D-01 BMatC= 1.15D-05 BMatP= 1.41D-03
 IDIUse=3 WtCom= 9.98D-01 WtEn= 2.33D-03
 Coeff-Com:  0.285D-02-0.164D-01-0.759D-01-0.102D+00 0.119D+01
 Coeff-En:   0.000D+00 0.000D+00 0.000D+00 0.000D+00 0.100D+01
 Coeff:      0.284D-02-0.163D-01-0.758D-01-0.102D+00 0.119D+01
 Gap=     0.291 Goal=   None    Shift=    0.000
 Gap=     0.163 Goal=   None    Shift=    0.000
 RMSDP=5.45D-05 MaxDP=9.72D-04 DE=-3.60D-04 OVMax= 2.39D-03

 Cycle   6  Pass 1  IDiag  1:
 RMSU=  2.06D-05    CP:  9.91D-01  9.11D-01  9.66D-01  7.53D-01  1.30D+00
 E= -500.620204305320     Delta-E=       -0.000009147476 Rises=F Damp=F
 DIIS: error= 6.99D-05 at cycle   6 NSaved=   6.
 NSaved= 6 IEnMin= 6 EnMin= -500.620204305320     IErMin= 6 ErrMin= 6.99D-05
 ErrMax= 6.99D-05 EMaxC= 1.00D-01 BMatC= 1.03D-06 BMatP= 1.15D-05
 IDIUse=1 WtCom= 1.00D+00 WtEn= 0.00D+00
 Coeff-Com:  0.159D-02-0.321D-02-0.321D-01-0.316D-01 0.747D-01 0.991D+00
 Coeff:      0.159D-02-0.321D-02-0.321D-01-0.316D-01 0.747D-01 0.991D+00
 Gap=     0.292 Goal=   None    Shift=    0.000
 Gap=     0.163 Goal=   None    Shift=    0.000
 RMSDP=1.26D-05 MaxDP=2.48D-04 DE=-9.15D-06 OVMax= 4.74D-04

 Cycle   7  Pass 1  IDiag  1:
 RMSU=  5.74D-06    CP:  9.91D-01  9.10D-01  9.70D-01  7.63D-01  1.41D+00
                    CP:  1.09D+00
 E= -500.620204867805     Delta-E=       -0.000000562485 Rises=F Damp=F
 DIIS: error= 2.58D-05 at cycle   7 NSaved=   7.
 NSaved= 7 IEnMin= 7 EnMin= -500.620204867805     IErMin= 7 ErrMin= 2.58D-05
 ErrMax= 2.58D-05 EMaxC= 1.00D-01 BMatC= 1.25D-07 BMatP= 1.03D-06
 IDIUse=1 WtCom= 1.00D+00 WtEn= 0.00D+00
 Coeff-Com:  0.197D-03 0.303D-03-0.302D-02 0.191D-03-0.520D-01 0.222D+00
 Coeff-Com:  0.833D+00
 Coeff:      0.197D-03 0.303D-03-0.302D-02 0.191D-03-0.520D-01 0.222D+00
 Coeff:      0.833D+00
 Gap=     0.292 Goal=   None    Shift=    0.000
 Gap=     0.163 Goal=   None    Shift=    0.000
 RMSDP=3.42D-06 MaxDP=4.50D-05 DE=-5.62D-07 OVMax= 1.13D-04

 Cycle   8  Pass 1  IDiag  1:
 RMSU=  2.02D-06    CP:  9.91D-01  9.10D-01  9.69D-01  7.65D-01  1.40D+00
                    CP:  1.20D+00  9.45D-01
 E= -500.620204917386     Delta-E=       -0.000000049581 Rises=F Damp=F
 DIIS: error= 7.69D-06 at cycle   8 NSaved=   8.
 NSaved= 8 IEnMin= 8 EnMin= -500.620204917386     IErMin= 8 ErrMin= 7.69D-06
 ErrMax= 7.69D-06 EMaxC= 1.00D-01 BMatC= 1.35D-08 BMatP= 1.25D-07
 IDIUse=1 WtCom= 1.00D+00 WtEn= 0.00D+00
 Coeff-Com: -0.213D-03 0.515D-03 0.446D-02 0.405D-02-0.177D-01-0.115D+00
 Coeff-Com:  0.939D-01 0.103D+01
 Coeff:     -0.213D-03 0.515D-03 0.446D-02 0.405D-02-0.177D-01-0.115D+00
 Coeff:      0.939D-01 0.103D+01
 Gap=     0.292 Goal=   None    Shift=    0.000
 Gap=     0.163 Goal=   None    Shift=    0.000
 RMSDP=1.22D-06 MaxDP=2.01D-05 DE=-4.96D-08 OVMax= 4.10D-05

 Cycle   9  Pass 1  IDiag  1:
 RMSU=  5.46D-07    CP:  9.91D-01  9.10D-01  9.69D-01  7.65D-01  1.41D+00
                    CP:  1.22D+00  1.09D+00  1.04D+00
 E= -500.620204924160     Delta-E=       -0.000000006774 Rises=F Damp=F
 DIIS: error= 2.51D-06 at cycle   9 NSaved=   9.
 NSaved= 9 IEnMin= 9 EnMin= -500.620204924160     IErMin= 9 ErrMin= 2.51D-06
 ErrMax= 2.51D-06 EMaxC= 1.00D-01 BMatC= 1.10D-09 BMatP= 1.35D-08
 IDIUse=1 WtCom= 1.00D+00 WtEn= 0.00D+00
 Coeff-Com: -0.683D-04 0.124D-03 0.139D-02 0.882D-03-0.112D-02-0.457D-01
 Coeff-Com: -0.289D-01 0.309D+00 0.764D+00
 Coeff:     -0.683D-04 0.124D-03 0.139D-02 0.882D-03-0.112D-02-0.457D-01
 Coeff:     -0.289D-01 0.309D+00 0.764D+00
 Gap=     0.292 Goal=   None    Shift=    0.000
 Gap=     0.163 Goal=   None    Shift=    0.000
 RMSDP=2.61D-07 MaxDP=4.43D-06 DE=-6.77D-09 OVMax= 9.10D-06

 Cycle  10  Pass 1  IDiag  1:
 RMSU=  1.08D-07    CP:  9.91D-01  9.10D-01  9.69D-01  7.65D-01  1.41D+00
                    CP:  1.22D+00  1.10D+00  1.14D+00  8.35D-01
 E= -500.620204924530     Delta-E=       -0.000000000370 Rises=F Damp=F
 DIIS: error= 2.39D-07 at cycle  10 NSaved=  10.
 NSaved=10 IEnMin=10 EnMin= -500.620204924530     IErMin=10 ErrMin= 2.39D-07
 ErrMax= 2.39D-07 EMaxC= 1.00D-01 BMatC= 1.33D-11 BMatP= 1.10D-09
 IDIUse=1 WtCom= 1.00D+00 WtEn= 0.00D+00
 Coeff-Com:  0.144D-04-0.347D-04-0.264D-03-0.191D-03 0.678D-03 0.723D-02
 Coeff-Com: -0.314D-02-0.615D-01-0.252D-01 0.108D+01
 Coeff:      0.144D-04-0.347D-04-0.264D-03-0.191D-03 0.678D-03 0.723D-02
 Coeff:     -0.314D-02-0.615D-01-0.252D-01 0.108D+01
 Gap=     0.292 Goal=   None    Shift=    0.000
 Gap=     0.163 Goal=   None    Shift=    0.000
 RMSDP=4.03D-08 MaxDP=5.58D-07 DE=-3.70D-10 OVMax= 1.52D-06

 Cycle  11  Pass 1  IDiag  1:
 RMSU=  1.59D-08    CP:  9.91D-01  9.10D-01  9.69D-01  7.65D-01  1.41D+00
                    CP:  1.22D+00  1.11D+00  1.14D+00  8.71D-01  1.16D+00
 E= -500.620204924537     Delta-E=       -0.000000000007 Rises=F Damp=F
 DIIS: error= 3.16D-08 at cycle  11 NSaved=  11.
 NSaved=11 IEnMin=11 EnMin= -500.620204924537     IErMin=11 ErrMin= 3.16D-08
 ErrMax= 3.16D-08 EMaxC= 1.00D-01 BMatC= 1.58D-13 BMatP= 1.33D-11
 IDIUse=1 WtCom= 1.00D+00 WtEn= 0.00D+00
 Coeff-Com: -0.105D-06 0.922D-06-0.322D-06 0.144D-06-0.183D-04 0.188D-03
 Coeff-Com:  0.679D-03-0.142D-02-0.855D-02-0.503D-01 0.106D+01
 Coeff:     -0.105D-06 0.922D-06-0.322D-06 0.144D-06-0.183D-04 0.188D-03
 Coeff:      0.679D-03-0.142D-02-0.855D-02-0.503D-01 0.106D+01
 Gap=     0.292 Goal=   None    Shift=    0.000
 Gap=     0.163 Goal=   None    Shift=    0.000
 RMSDP=5.07D-09 MaxDP=9.27D-08 DE=-7.28D-12 OVMax= 1.62D-07

 SCF Done:  E(UB+HF-PW91) =  -500.620204925     A.U. after   11 cycles
             Convg  =    0.5065D-08             -V/T =  2.0026
             S**2   =   0.7555
 KE= 4.993214818096D+02 PE=-1.278104620366D+03 EE= 2.329153053362D+02
 Annihilation of the first spin contaminant:
 S**2 before annihilation     0.7555,   after     0.7500
 Leave Link  502 at Sat Aug 19 09:06:25 2006, MaxMem=    6291456 cpu:     105.2
 (Enter /usr/local/Gaussian/g03/l801.exe)
 Range of M.O.s used for correlation:     1    76
 NBasis=    76 NAE=    14 NBE=    13 NFC=     0 NFV=     0
 NROrb=     76 NOA=    14 NOB=    13 NVA=    62 NVB=    63
 Leave Link  801 at Sat Aug 19 09:06:26 2006, MaxMem=    6291456 cpu:       0.0
 (Enter /usr/local/Gaussian/g03/l1101.exe)
 Using compressed storage, NAtomX=     6.
 Will process   7 centers per pass.
 Leave Link 1101 at Sat Aug 19 09:06:29 2006, MaxMem=    6291456 cpu:       0.6
 (Enter /usr/local/Gaussian/g03/l1102.exe)
 Use density number 0.
 Symmetrizing basis deriv contribution to polar:
 IMax=3 JMax=2 DiffMx= 0.00D+00
 Leave Link 1102 at Sat Aug 19 09:06:30 2006, MaxMem=    6291456 cpu:       0.1
 (Enter /usr/local/Gaussian/g03/l1110.exe)
 Forming Gx(P) for the SCF density, NAtomX=     6.
 Integral derivatives from FoFDir, PRISM(SPDF).
 Do as many integral derivatives as possible in FoFDir.
 G2DrvN: MDV=       6291406.
 G2DrvN: will do    7 centers at a time, making    1 passes doing MaxLOS=2.
 Symmetry not used in FoFDir.
 MinBra= 0 MaxBra= 2 Meth= 1.
 IRaf=       0 NMat=   1 IRICut=       1 DoRegI=T DoRafI=F ISym2E= 0 JSym2E=0.
 FoFDir/FoFCou used for L=0 through L=2.
 Leave Link 1110 at Sat Aug 19 09:20:13 2006, MaxMem=    6291456 cpu:     173.6
 (Enter /usr/local/Gaussian/g03/l1002.exe)
 Minotr:  UHF wavefunction.
          Direct CPHF calculation.
          Solving linear equations simultaneously.
          Differentiating once with respect to electric field.
                with respect to dipole field.
          Differentiating once with respect to nuclear coordinates.
          Requested convergence is 1.0D-06 RMS, and 1.0D-05 maximum.
          Secondary convergence is 1.0D-12 RMS, and 1.0D-12 maximum.
          NewPWx=T KeepS1=F KeepF1=F KeepIn=T MapXYZ=F.
          MDV=       6291456 using IRadAn=       2.
 Integrals replicated using symmetry in FoFDir.
 MinBra= 0 MaxBra= 2 Meth= 1.
 IRaf=       0 NMat=  21 IRICut=      21 DoRegI=T DoRafI=T ISym2E= 2 JSym2E=2.
          There are  21 degrees of freedom in the 1st order CPHF.
    18 vectors were produced by pass  0.
 AX will form  18 AO Fock derivatives at one time.
    18 vectors were produced by pass  1.
    18 vectors were produced by pass  2.
    18 vectors were produced by pass  3.
    15 vectors were produced by pass  4.
     4 vectors were produced by pass  5.
     3 vectors were produced by pass  6.
     1 vectors were produced by pass  7.
 Inv2:  IOpt= 1 Iter= 1 AM= 1.45D-15 Conv= 1.00D-12.
 Inverted reduced A of dimension   95 with in-core refinement.
 Isotropic polarizability for W=    0.000000       30.20 Bohr**3.
 End of Minotr Frequency-dependent properties file   721 does not exist.
 Leave Link 1002 at Sat Aug 19 09:37:07 2006, MaxMem=    6291456 cpu:     212.2
 (Enter /usr/local/Gaussian/g03/l601.exe)
 Copying SCF densities to generalized density rwf, ISCF=1 IROHF=0.

 **********************************************************************

            Population analysis using the SCF density.

 **********************************************************************

 Orbital symmetries:
 Alpha Orbitals:
       Occupied  (A) (A) (A) (A) (A) (A) (A) (A) (A) (A) (A) (A)
                 (A) (A)
       Virtual   (A) (A) (A) (A) (A) (A) (A) (A) (A) (A) (A) (A)
                 (A) (A) (A) (A) (A) (A) (A) (A) (A) (A) (A) (A)
                 (A) (A) (A) (A) (A) (A) (A) (A) (A) (A) (A) (A)
                 (A) (A) (A) (A) (A) (A) (A) (A) (A) (A) (A) (A)
                 (A) (A) (A) (A) (A) (A) (A) (A) (A) (A) (A) (A)
                 (A) (A)
 Beta  Orbitals:
       Occupied  (A) (A) (A) (A) (A) (A) (A) (A) (A) (A) (A) (A)
                 (A)
       Virtual   (A) (A) (A) (A) (A) (A) (A) (A) (A) (A) (A) (A)
                 (A) (A) (A) (A) (A) (A) (A) (A) (A) (A) (A) (A)
                 (A) (A) (A) (A) (A) (A) (A) (A) (A) (A) (A) (A)
                 (A) (A) (A) (A) (A) (A) (A) (A) (A) (A) (A) (A)
                 (A) (A) (A) (A) (A) (A) (A) (A) (A) (A) (A) (A)
                 (A) (A) (A)
 The electronic state is 2-A.
 Alpha  occ. eigenvalues -- -101.51743 -10.21630  -9.45299  -7.21587  -7.20395
 Alpha  occ. eigenvalues --   -7.20395  -0.82622  -0.73906  -0.47098  -0.46124
 Alpha  occ. eigenvalues --   -0.46124  -0.31678  -0.31678  -0.28402
 Alpha virt. eigenvalues --    0.00750   0.05074   0.05389   0.05389   0.06834
 Alpha virt. eigenvalues --    0.10393   0.10398   0.13257   0.13432   0.13432
 Alpha virt. eigenvalues --    0.15167   0.21034   0.36878   0.36878   0.40552
 Alpha virt. eigenvalues --    0.41695   0.47753   0.48825   0.48827   0.57388
 Alpha virt. eigenvalues --    0.57388   0.66100   0.77278   0.77278   0.82424
 Alpha virt. eigenvalues --    0.88087   0.88087   0.88176   0.96397   0.96398
 Alpha virt. eigenvalues --    1.15149   1.36355   1.36456   1.36457   1.50998
 Alpha virt. eigenvalues --    1.52222   1.52225   1.75936   1.81659   1.81660
 Alpha virt. eigenvalues --    2.05148   2.05149   2.13656   2.27643   2.27645
 Alpha virt. eigenvalues --    2.42366   2.43002   2.43003   2.48106   2.55914
 Alpha virt. eigenvalues --    2.58165   2.58168   2.88301   3.24641   3.68816
 Alpha virt. eigenvalues --    3.68818   9.74476  23.89388  25.81714  25.81720
 Alpha virt. eigenvalues --   26.12688 215.74603
  Beta  occ. eigenvalues -- -101.51535 -10.20357  -9.45090  -7.20921  -7.20268
  Beta  occ. eigenvalues --   -7.20268  -0.81131  -0.70350  -0.45162  -0.45162
  Beta  occ. eigenvalues --   -0.44272  -0.31232  -0.31232
  Beta virt. eigenvalues --   -0.14923   0.01302   0.05515   0.05516   0.05895
  Beta virt. eigenvalues --    0.07673   0.10454   0.10457   0.13899   0.13900
  Beta virt. eigenvalues --    0.14023   0.17911   0.21589   0.37378   0.37378
  Beta virt. eigenvalues --    0.41045   0.43483   0.48956   0.48958   0.50731
  Beta virt. eigenvalues --    0.58298   0.58299   0.68423   0.78708   0.78708
  Beta virt. eigenvalues --    0.84542   0.88363   0.88363   0.90450   0.99142
  Beta virt. eigenvalues --    0.99142   1.16826   1.36101   1.36801   1.36801
  Beta virt. eigenvalues --    1.52696   1.52698   1.55206   1.77271   1.82772
  Beta virt. eigenvalues --    1.82773   2.06981   2.06981   2.16381   2.27970
  Beta virt. eigenvalues --    2.27971   2.43553   2.43554   2.44042   2.50373
  Beta virt. eigenvalues --    2.55719   2.58760   2.58762   2.88937   3.29190
  Beta virt. eigenvalues --    3.70783   3.70785   9.74889  23.90975  25.81902
  Beta virt. eigenvalues --   25.81908  26.13600 215.74798
          Condensed to atoms (all electrons):
              1          2          3          4          5          6
     1  C    5.337032   0.387193   0.387195   0.387191   0.105818  -0.050585
     2  H    0.387193   0.469256  -0.021030  -0.021034  -0.008798  -0.000487
     3  H    0.387195  -0.021030   0.469252  -0.021032  -0.008800  -0.000487
     4  H    0.387191  -0.021034  -0.021032   0.469259  -0.008796  -0.000487
     5  H    0.105818  -0.008798  -0.008800  -0.008796   0.565373   0.155973
     6  Cl  -0.050585  -0.000487  -0.000487  -0.000487   0.155973  17.126158
 Mulliken atomic charges:
              1
     1  C   -0.553844
     2  H    0.194900
     3  H    0.194902
     4  H    0.194899
     5  H    0.199229
     6  Cl  -0.230086
 Sum of Mulliken charges=   0.00000
 Atomic charges with hydrogens summed into heavy atoms:
              1
     1  C    0.030857
     2  H    0.000000
     3  H    0.000000
     4  H    0.000000
     5  H    0.000000
     6  Cl  -0.030857
 Sum of Mulliken charges=   0.00000
          Atomic-Atomic Spin Densities.
              1          2          3          4          5          6
     1  C    0.946171  -0.010400  -0.010398  -0.010400   0.046051  -0.086484
     2  H   -0.010400  -0.027432   0.001882   0.001882   0.001939   0.001765
     3  H   -0.010398   0.001882  -0.027436   0.001882   0.001939   0.001765
     4  H   -0.010400   0.001882   0.001882  -0.027434   0.001938   0.001765
     5  H    0.046051   0.001939   0.001939   0.001938  -0.089796   0.006060
     6  Cl  -0.086484   0.001765   0.001765   0.001765   0.006060   0.323556
 Mulliken atomic spin densities:
              1
     1  C    0.874540
     2  H   -0.030365
     3  H   -0.030366
     4  H   -0.030367
     5  H   -0.031868
     6  Cl   0.248426
 Sum of Mulliken spin densities=   1.00000
 APT atomic charges:
              1
     1  C   -0.033940
     2  H    0.047023
     3  H    0.047068
     4  H    0.047025
     5  H    0.283521
     6  Cl  -0.390697
 Sum of APT charges=   0.00000
 APT Atomic charges with hydrogens summed into heavy atoms:
              1
     1  C    0.107176
     2  H    0.000000
     3  H    0.000000
     4  H    0.000000
     5  H    0.000000
     6  Cl  -0.107176
 Sum of APT charges=   0.00000
 Electronic spatial extent (au):  <R**2>=   250.4634
 Charge=     0.0000 electrons
 Dipole moment (field-independent basis, Debye):
    X=     2.6370    Y=     0.6442    Z=     1.2790  Tot=     3.0007
 Quadrupole moment (field-independent basis, Debye-Ang):
   XX=   -19.7234   YY=   -21.0533   ZZ=   -20.8047
   XY=     0.3455   XZ=     0.6863   YZ=     0.1676
 Traceless Quadrupole moment (field-independent basis, Debye-Ang):
   XX=     0.8037   YY=    -0.5261   ZZ=    -0.2776
   XY=     0.3455   XZ=     0.6863   YZ=     0.1676
 Octapole moment (field-independent basis, Debye-Ang**2):
  XXX=    -0.4891  YYY=    -0.0550  ZZZ=     1.2920  XYY=     1.3239
  XXY=    -0.6118  XXZ=    -1.3379  XZZ=     0.1895  YZZ=     0.9173
  YYZ=     0.5431  XYZ=    -0.9377
 Hexadecapole moment (field-independent basis, Debye-Ang**3):
 XXXX=  -221.0657 YYYY=   -43.7504 ZZZZ=   -75.0172 XXXY=   -23.1392
 XXXZ=   -46.6262 YYYX=   -23.9457 YYYZ=   -11.7490 ZZZX=   -45.7216
 ZZZY=    -8.8069 XXYY=   -42.0167 XXZZ=   -49.6405 YYZZ=   -18.6258
 XXYZ=    -5.6934 YYXZ=   -15.1029 ZZXY=    -7.0397
 N-N= 4.524762829551D+01 E-N=-1.278104619989D+03  KE= 4.993214818096D+02
  Exact polarizability:  41.027   4.659  23.115   9.235   2.258  26.456
 Approx polarizability:  49.511   5.604  27.940  11.127   2.718  31.969
                          Isotropic Fermi Contact Couplings
        Atom                 a.u.       MegaHertz       Gauss      10(-4) cm-1
     1  C(13)              0.07706      86.62726      30.91076      28.89574
     2  H(1)              -0.00948     -42.35844     -15.11454     -14.12925
     3  H(1)              -0.00948     -42.36137     -15.11559     -14.13023
     4  H(1)              -0.00948     -42.35951     -15.11492     -14.12961
     5  H(1)              -0.01567     -70.05458     -24.99722     -23.36769
     6  Cl(35)             0.03908      17.13525       6.11428       5.71570
 --------------------------------------------------------
       Center         ----  Spin Dipole Couplings  ----
                      3XX-RR        3YY-RR        3ZZ-RR
 --------------------------------------------------------
     1   Atom        0.616483     -0.403322     -0.213161
     2   Atom       -0.006297      0.054788     -0.048491
     3   Atom       -0.001260     -0.022602      0.023862
     4   Atom        0.002398     -0.028810      0.026412
     5   Atom        0.101847     -0.066651     -0.035195
     6   Atom        1.149466     -0.752330     -0.397136
 --------------------------------------------------------
                        XY            XZ            YZ
 --------------------------------------------------------
     1   Atom        0.264918      0.525748      0.128426
     2   Atom       -0.023297      0.024952     -0.007461
     3   Atom        0.033773     -0.012453     -0.045617
     4   Atom       -0.012690     -0.016897      0.052001
     5   Atom        0.043780      0.086910      0.021233
     6   Atom        0.494092      0.981086      0.239677
 --------------------------------------------------------


 ---------------------------------------------------------------------------------
              Anisotropic Spin Dipole Couplings in Principal Axis System
 ---------------------------------------------------------------------------------

       Atom             a.u.   MegaHertz   Gauss  10(-4) cm-1        Axes

              Baa    -0.4680   -62.806   -22.411   -20.950 -0.1445  0.9709 -0.1912
     1 C(13)  Bbb    -0.4680   -62.805   -22.411   -20.950 -0.4547  0.1065  0.8843
              Bcc     0.9361   125.611    44.821    41.899  0.8789  0.2147  0.4261
 
              Baa    -0.0602   -32.097   -11.453   -10.706 -0.4304 -0.0287  0.9022
     2 H(1)   Bbb    -0.0046    -2.459    -0.878    -0.820  0.8311  0.3773  0.4085
              Bcc     0.0648    34.556    12.331    11.527 -0.3521  0.9256 -0.1386
 
              Baa    -0.0602   -32.097   -11.453   -10.706 -0.3935  0.8311  0.3929
     3 H(1)   Bbb    -0.0046    -2.459    -0.878    -0.820  0.8203  0.1245  0.5582
              Bcc     0.0648    34.557    12.331    11.527 -0.4150 -0.5420  0.7308
 
              Baa    -0.0602   -32.096   -11.453   -10.706  0.0369  0.8598 -0.5093
     4 H(1)   Bbb    -0.0046    -2.460    -0.878    -0.820  0.9469  0.1329  0.2929
              Bcc     0.0648    34.556    12.331    11.527 -0.3195  0.4930  0.8092
 
              Baa    -0.0773   -41.269   -14.726   -13.766 -0.0673  0.9399 -0.3347
     5 H(1)   Bbb    -0.0773   -41.269   -14.726   -13.766 -0.4725  0.2654  0.8404
              Bcc     0.1547    82.538    29.452    27.532  0.8788  0.2147  0.4262
 
              Baa    -0.8730   -45.693   -16.304   -15.242 -0.4017 -0.1498  0.9035
     6 Cl(35) Bbb    -0.8730   -45.693   -16.304   -15.241 -0.2578  0.9651  0.0454
              Bcc     1.7461    91.386    32.609    30.483  0.8788  0.2147  0.4263
 

 ---------------------------------------------------------------------------------

 No NMR shielding tensors so no spin-rotation constants.
 Leave Link  601 at Sat Aug 19 09:37:14 2006, MaxMem=    6291456 cpu:       1.1
 (Enter /usr/local/Gaussian/g03/l701.exe)
 Compute integral second derivatives.
 ... and contract with generalized density number  0.
 Leave Link  701 at Sat Aug 19 09:37:19 2006, MaxMem=    6291456 cpu:       1.0
 (Enter /usr/local/Gaussian/g03/l702.exe)
 L702 exits ... SP integral derivatives will be done elsewhere.
 Leave Link  702 at Sat Aug 19 09:37:20 2006, MaxMem=    6291456 cpu:       0.0
 (Enter /usr/local/Gaussian/g03/l703.exe)
 Compute integral second derivatives, UseDBF=F.
 Integral derivatives from FoFDir, PRISM(SPDF).
 Symmetry not used in FoFDir.
 MinBra= 0 MaxBra= 2 Meth= 1.
 IRaf=       0 NMat=   1 IRICut=       1 DoRegI=T DoRafI=F ISym2E= 0 JSym2E=0.
 Leave Link  703 at Sat Aug 19 09:58:06 2006, MaxMem=    6291456 cpu:     266.2
 (Enter /usr/local/Gaussian/g03/l716.exe)
 Dipole        = 1.03745958D+00 2.53443769D-01 5.03183960D-01
 Polarizability= 4.10270786D+01 4.65931261D+00 2.31148870D+01
                 9.23486529D+00 2.25784112D+00 2.64562225D+01
 ***** Axes restored to original set *****
 -------------------------------------------------------------------
 Center     Atomic                   Forces (Hartrees/Bohr)
 Number     Number              X              Y              Z
 -------------------------------------------------------------------
    1          6          -0.000173064   -0.000620014   -0.000104785
    2          1          -0.000064939   -0.000245411    0.000540242
    3          1           0.000449589   -0.000242617   -0.000308470
    4          1          -0.000507592    0.000007257   -0.000304777
    5          1          -0.000281410   -0.001111886   -0.000180026
    6         17           0.000577415    0.002212672    0.000357815
 -------------------------------------------------------------------
 Cartesian Forces:  Max     0.002212672 RMS     0.000674687
 Force constants in Cartesian coordinates: 
                1             2             3             4             5
      1  0.565888D+00
      2 -0.128506D+00  0.123742D+00
      3 -0.210251D-01 -0.778257D-01  0.587786D+00
      4 -0.504698D-01  0.836392D-02 -0.150095D-02  0.422679D-01
      5  0.836052D-02 -0.216470D-01 -0.554360D-02 -0.706788D-02  0.178831D-01
      6  0.155313D-02  0.571389D-02 -0.350545D+00 -0.714291D-03 -0.264119D-02
      7 -0.286055D+00  0.892627D-02  0.124822D+00  0.454023D-02  0.236413D-04
      8 -0.104744D-02 -0.216996D-01  0.998152D-02  0.108858D-02  0.419079D-02
      9  0.121781D+00  0.476972D-02 -0.115020D+00  0.248610D-01  0.121752D-02
     10 -0.222668D+00  0.107922D+00 -0.102846D+00  0.396420D-02  0.114317D-03
     11  0.117910D+00 -0.850443D-01  0.713939D-01 -0.963422D-03  0.477647D-02
     12 -0.102853D+00  0.653622D-01 -0.114978D+00 -0.208717D-01  0.135612D-01
     13 -0.402967D-02  0.198789D-01  0.325553D-02 -0.282838D-03 -0.184074D-02
     14  0.198804D-01  0.644063D-01  0.120397D-01 -0.183058D-02 -0.659270D-02
     15  0.325327D-02  0.120319D-01 -0.741130D-02 -0.181724D-02 -0.676351D-02
     16 -0.266511D-02 -0.165853D-01 -0.270591D-02 -0.196231D-04  0.410139D-03
     17 -0.165975D-01 -0.597576D-01 -0.100459D-01  0.409377D-03  0.138928D-02
     18 -0.270970D-02 -0.100521D-01  0.168220D-03  0.432661D-04  0.169562D-03
                6             7             8             9            10
      6  0.365251D+00
      7 -0.396774D-02  0.295260D+00
      8 -0.537661D-03 -0.560184D-02  0.179396D-01
      9 -0.639216D-02 -0.133097D+00 -0.504526D-02  0.112311D+00
     10  0.315302D-02 -0.114412D-01  0.120477D-01 -0.128108D-01  0.230049D+00
     11 -0.246911D-02 -0.263373D-02  0.475737D-02  0.284875D-03 -0.117728D+00
     12 -0.639316D-02  0.112170D-01 -0.619160D-02  0.901560D-02  0.112493D+00
     13 -0.674998D-04 -0.292640D-02 -0.682356D-02 -0.441550D-03 -0.424118D-03
     14 -0.233854D-03 -0.105353D-02 -0.656777D-02 -0.150894D-02 -0.252176D-02
     15 -0.266892D-02  0.131563D-02  0.150708D-02 -0.237160D-04 -0.383647D-03
     16  0.433823D-04  0.622631D-03  0.336536D-03 -0.293380D-03  0.519981D-03
     17  0.167928D-03  0.339187D-03  0.137959D-02  0.282082D-03  0.165798D-03
     18  0.747723D-03 -0.290234D-03  0.285921D-03  0.108984D-03  0.394027D-03
               11            12            13            14            15
     11  0.831240D-01
     12 -0.712926D-01  0.112269D+00
     13  0.325270D-02 -0.379079D-03  0.208450D-01
     14 -0.910013D-02 -0.153984D-02  0.955817D-02  0.541122D-01
     15  0.198295D-02 -0.220872D-04  0.150566D-02  0.591224D-02  0.190513D-01
     16  0.162670D-03  0.393875D-03 -0.131819D-01 -0.240327D-01 -0.387368D-02
     17  0.148655D-02  0.100596D-03 -0.240255D-01 -0.962579D-01 -0.146707D-01
     18  0.999785D-04  0.108437D-03 -0.387307D-02 -0.146693D-01 -0.892525D-02
               16            17            18
     16  0.147241D-01
     17  0.397087D-01  0.151760D+00
     18  0.643571D-02  0.241660D-01  0.779189D-02
 Force constants in internal coordinates: 
                1             2             3             4             5
      1  0.365245D+00
      2 -0.550795D-03  0.365286D+00
      3 -0.546907D-03 -0.553423D-03  0.365244D+00
      4  0.368356D-03  0.361508D-03  0.371266D-03  0.138038D-01
      5 -0.288858D-03 -0.282238D-03 -0.294850D-03  0.612775D-01  0.166378D+00
      6  0.714377D-02  0.713749D-02 -0.792475D-02 -0.551288D-02  0.124984D-02
      7  0.713870D-02 -0.792856D-02  0.713933D-02 -0.552965D-02  0.127542D-02
      8 -0.162479D-02 -0.528190D-02 -0.529422D-02  0.106057D-01 -0.242831D-02
      9 -0.793191D-02  0.712911D-02  0.714429D-02 -0.551037D-02  0.126007D-02
     10 -0.527474D-02 -0.160443D-02 -0.527511D-02  0.105771D-01 -0.244621D-02
     11 -0.529544D-02 -0.528421D-02 -0.164273D-02  0.106043D-01 -0.239459D-02
     12  0.951501D-03 -0.189935D-02  0.968447D-03 -0.561783D-05 -0.153212D-03
     13 -0.855167D-03 -0.881490D-05  0.865358D-03 -0.165652D-05 -0.409246D-04
                6             7             8             9            10
      6  0.733259D-01
      7 -0.266970D-01  0.732865D-01
      8 -0.127309D-01 -0.126898D-01  0.484028D-01
      9 -0.266938D-01 -0.266949D-01 -0.128125D-01  0.733175D-01
     10 -0.127340D-01 -0.128265D-01  0.124773D-01 -0.127068D-01  0.485633D-01
     11 -0.128114D-01 -0.126923D-01  0.125405D-01 -0.127525D-01  0.124458D-01
     12 -0.186309D-03  0.387641D-03 -0.114128D-03 -0.210625D-03  0.337925D-03
     13 -0.207044D-03 -0.771582D-05  0.357515D-04  0.215137D-03  0.252618D-04
               11            12            13
     11  0.484785D-01
     12 -0.205971D-03  0.217277D-01
     13 -0.617523D-04  0.116860D-03  0.575810D-02
 Leave Link  716 at Sat Aug 19 09:58:07 2006, MaxMem=    6291456 cpu:       0.0
 (Enter /usr/local/Gaussian/g03/l103.exe)

 GradGradGradGradGradGradGradGradGradGradGradGradGradGradGradGradGradGrad
 Berny optimization.
 Internal  Forces:  Max     0.002314524 RMS     0.000794091
 Search for a saddle point.
 Step number   1 out of a maximum of  23
 All quantities printed in internal units (Hartrees-Bohrs-Radians)
 Swaping is turned off.
 Second derivative matrix not updated -- analytic derivatives used.
 The second derivative matrix:
                          R1        R2        R3        R4        R5
           R1           0.36525
           R2          -0.00055   0.36529
           R3          -0.00055  -0.00055   0.36524
           R4           0.00037   0.00036   0.00037   0.01380
           R5          -0.00029  -0.00028  -0.00029   0.06128   0.16638
           A1           0.00714   0.00714  -0.00792  -0.00551   0.00125
           A2           0.00714  -0.00793   0.00714  -0.00553   0.00128
           A3          -0.00162  -0.00528  -0.00529   0.01061  -0.00243
           A4          -0.00793   0.00713   0.00714  -0.00551   0.00126
           A5          -0.00527  -0.00160  -0.00528   0.01058  -0.00245
           A6          -0.00530  -0.00528  -0.00164   0.01060  -0.00239
           A7           0.00095  -0.00190   0.00097  -0.00001  -0.00015
           A8          -0.00086  -0.00001   0.00087   0.00000  -0.00004
                          A1        A2        A3        A4        A5
           A1           0.07333
           A2          -0.02670   0.07329
           A3          -0.01273  -0.01269   0.04840
           A4          -0.02669  -0.02669  -0.01281   0.07332
           A5          -0.01273  -0.01283   0.01248  -0.01271   0.04856
           A6          -0.01281  -0.01269   0.01254  -0.01275   0.01245
           A7          -0.00019   0.00039  -0.00011  -0.00021   0.00034
           A8          -0.00021  -0.00001   0.00004   0.00022   0.00003
                          A6        A7        A8
           A6           0.04848
           A7          -0.00021   0.02173
           A8          -0.00006   0.00012   0.00576
     Eigenvalues ---   -0.01201   0.00575   0.02170   0.03585   0.03607
     Eigenvalues ---    0.09687   0.09915   0.09916   0.18800   0.36485
     Eigenvalues ---    0.36669   0.366731000.00000
 Eigenvectors required to have negative eigenvalues:
                          R1        R2        R3        R4        R5
         1             -0.00532  -0.00529  -0.00534   0.92548  -0.32316
                          A1        A2        A3        A4        A5
         1              0.05253   0.05284  -0.10142   0.05255  -0.10080
                          A6        A7        A8
         1             -0.10105  -0.00124  -0.00065
 RFO step:  Lambda0=2.420511286D-06 Lambda=-4.37146957D-05.
 Linear search not attempted -- option 19 set.
 Iteration  1 RMS(Cart)=  0.00542388 RMS(Int)=  0.00002781
 Iteration  2 RMS(Cart)=  0.00002072 RMS(Int)=  0.00001986
 Iteration  3 RMS(Cart)=  0.00000000 RMS(Int)=  0.00001986
 Variable       Old X    -DE/DX   Delta X   Delta X   Delta X     New X
                                 (Linear)    (Quad)   (Total)
    R1        2.04799   0.00054   0.00000   0.00123   0.00123   2.04922
    R2        2.04797   0.00054   0.00000   0.00123   0.00123   2.04921
    R3        2.04800   0.00053   0.00000   0.00121   0.00121   2.04921
    R4        2.96396  -0.00115   0.00000   0.00719   0.00719   2.97115
    R5        2.63846  -0.00231   0.00000  -0.01685  -0.01685   2.62161
    A1        2.05292   0.00021   0.00000   0.00286   0.00282   2.05574
    A2        2.05288   0.00021   0.00000   0.00283   0.00280   2.05568
    A3        1.72710  -0.00041   0.00000  -0.00544  -0.00546   1.72164
    A4        2.05288   0.00021   0.00000   0.00286   0.00282   2.05571
    A5        1.72705  -0.00040   0.00000  -0.00522  -0.00523   1.72182
    A6        1.72723  -0.00042   0.00000  -0.00577  -0.00579   1.72144
    A7        3.14141   0.00003   0.00000   0.00121   0.00121   3.14262
    A8        3.14152   0.00001   0.00000   0.00170   0.00170   3.14322
         Item               Value     Threshold  Converged?
 Maximum Force            0.002315     0.000450     NO 
 RMS     Force            0.000794     0.000300     NO 
 Maximum Displacement     0.014459     0.001800     NO 
 RMS     Displacement     0.005433     0.001200     NO 
 Predicted change in Energy=-2.065248D-05
 GradGradGradGradGradGradGradGradGradGradGradGradGradGradGradGradGradGrad

 Leave Link  103 at Sat Aug 19 09:58:09 2006, MaxMem=    6291456 cpu:       0.1
 (Enter /usr/local/Gaussian/g03/l202.exe)
                          Input orientation:                          
 ---------------------------------------------------------------------
 Center     Atomic     Atomic              Coordinates (Angstroms)
 Number     Number      Type              X           Y           Z
 ---------------------------------------------------------------------
    1          6             0        0.000792    0.002523    0.000426
    2          1             0       -0.000858   -0.003110    1.084809
    3          1             0        0.960893   -0.002605   -0.503647
    4          1             0       -0.832300    0.479614   -0.503808
    5          1             0       -0.402851   -1.497219   -0.244252
    6         17             0       -0.760763   -2.819997   -0.460453
 ---------------------------------------------------------------------
                    Distance matrix (angstroms):
                    1          2          3          4          5
     1  C    0.000000
     2  H    1.084399   0.000000
     3  H    1.084394   1.856922   0.000000
     4  H    1.084393   1.856885   1.856900   0.000000
     5  H    1.572266   2.039696   2.039842   2.039525   0.000000
     6  Cl   2.959560   3.301536   3.302069   3.300671   1.387294
                    6
     6  Cl   0.000000
 Stoichiometry    CH4Cl(2)
 Framework group  C1[X(CH4Cl)]
 Deg. of freedom    12
 Full point group                 C1      NOp   1
 Largest Abelian subgroup         C1      NOp   1
 Largest concise Abelian subgroup C1      NOp   1
                         Standard orientation:                         
 ---------------------------------------------------------------------
 Center     Atomic     Atomic              Coordinates (Angstroms)
 Number     Number      Type              X           Y           Z
 ---------------------------------------------------------------------
    1          6             0        1.903553   -0.000026    0.000044
    2          1             0        2.066625   -0.799403   -0.714326
    3          1             0        2.067233    1.018315   -0.334771
    4          1             0        2.065643   -0.219256    1.049603
    5          1             0        0.331288    0.000512   -0.000814
    6         17             0       -1.056006   -0.000001    0.000003
 ---------------------------------------------------------------------
 Rotational constants (GHZ):    145.4300378      5.2570520      5.2570476
 Leave Link  202 at Sat Aug 19 09:58:11 2006, MaxMem=    6291456 cpu:       0.5
 (Enter /usr/local/Gaussian/g03/l301.exe)
 Standard basis: 6-311+G(d,p) (5D, 7F)
 There are    76 symmetry adapted basis functions of A   symmetry.
 Integral buffers will be    131072 words long.
 Raffenetti 2 integral format.
 Two-electron integral symmetry is turned on.
    76 basis functions,   121 primitive gaussians,    78 cartesian basis functions
    14 alpha electrons       13 beta electrons
       nuclear repulsion energy        45.3336567549 Hartrees.
 IExCor= 408 DFT=T Ex=B+HF Corr=PW91 ExCW=0 ScaHFX=  0.200000
 ScaDFX=  0.800000  0.720000  1.000000  0.810000
 IRadAn=      0 IRanWt=     -1 IRanGd=            0 ICorTp=0
 NAtoms=    6 NActive=    6 NUniq=    6 SFac= 1.00D+00 NAtFMM=   60 Big=F
 Leave Link  301 at Sat Aug 19 09:58:13 2006, MaxMem=    6291456 cpu:       0.1
 (Enter /usr/local/Gaussian/g03/l302.exe)
 NPDir=0 NMtPBC=     1 NCelOv=     1 NCel=       1 NClECP=     1 NCelD=      1
         NCelK=      1 NCelE2=     1 NClLst=     1 CellRange=     0.0.
 One-electron integrals computed using PRISM.
 NBasis=    76 RedAO= T  NBF=    76
 NBsUse=    76 1.00D-06 NBFU=    76
 Precomputing XC quadrature grid using
 IXCGrd= 2 IRadAn=           0 IRanWt=          -1 IRanGd=           0.
 NRdTot=     381 NPtTot=       48666 NUsed=       51358 NTot=       51390
 NSgBfM=    78    78    78    78.
 Leave Link  302 at Sat Aug 19 09:58:18 2006, MaxMem=    6291456 cpu:       0.7
 (Enter /usr/local/Gaussian/g03/l303.exe)
 DipDrv:  MaxL=1.
 Leave Link  303 at Sat Aug 19 09:58:19 2006, MaxMem=    6291456 cpu:       0.1
 (Enter /usr/local/Gaussian/g03/l401.exe)
 Initial guess read from the read-write file:
 Guess basis will be translated and rotated to current coordinates.
 Initial guess orbital symmetries:
 Alpha Orbitals:
       Occupied  (A) (A) (A) (A) (A) (A) (A) (A) (A) (A) (A) (A)
                 (A) (A)
       Virtual   (A) (A) (A) (A) (A) (A) (A) (A) (A) (A) (A) (A)
                 (A) (A) (A) (A) (A) (A) (A) (A) (A) (A) (A) (A)
                 (A) (A) (A) (A) (A) (A) (A) (A) (A) (A) (A) (A)
                 (A) (A) (A) (A) (A) (A) (A) (A) (A) (A) (A) (A)
                 (A) (A) (A) (A) (A) (A) (A) (A) (A) (A) (A) (A)
                 (A) (A)
 Beta  Orbitals:
       Occupied  (A) (A) (A) (A) (A) (A) (A) (A) (A) (A) (A) (A)
                 (A)
       Virtual   (A) (A) (A) (A) (A) (A) (A) (A) (A) (A) (A) (A)
                 (A) (A) (A) (A) (A) (A) (A) (A) (A) (A) (A) (A)
                 (A) (A) (A) (A) (A) (A) (A) (A) (A) (A) (A) (A)
                 (A) (A) (A) (A) (A) (A) (A) (A) (A) (A) (A) (A)
                 (A) (A) (A) (A) (A) (A) (A) (A) (A) (A) (A) (A)
                 (A) (A) (A)
 The electronic state of the initial guess is 2-A.
 <S**2> of initial guess= 0.7567
 Leave Link  401 at Sat Aug 19 09:58:22 2006, MaxMem=    6291456 cpu:       0.3
 (Enter /usr/local/Gaussian/g03/l502.exe)
 UHF open shell SCF:
 Requested convergence on RMS density matrix=1.00D-08 within 128 cycles.
 Requested convergence on MAX density matrix=1.00D-06.
 Requested convergence on             energy=1.00D-06.
 No special actions if energy rises.
 Using DIIS extrapolation, IDIIS=  1040.
 Integral symmetry usage will be decided dynamically.
        51357 words used for storage of precomputed grid.
 IEnd=     90701 IEndB=     90701 NGot=   6291456 MDV=   6223558
 LenX=   6223558
 Fock matrices will be formed incrementally for  20 cycles.

 Cycle   1  Pass 1  IDiag  1:
 Petite list used in FoFDir.
 MinBra= 0 MaxBra= 2 Meth= 1.
 IRaf=       0 NMat=   1 IRICut=       1 DoRegI=T DoRafI=F ISym2E= 1 JSym2E=1.
 E= -500.423447329266    
 DIIS: error= 4.70D-02 at cycle   1 NSaved=   1.
 NSaved= 1 IEnMin= 1 EnMin= -500.423447329266     IErMin= 1 ErrMin= 4.70D-02
 ErrMax= 4.70D-02 EMaxC= 1.00D-01 BMatC= 4.42D-01 BMatP= 4.42D-01
 IDIUse=3 WtCom= 5.30D-01 WtEn= 4.70D-01
 Coeff-Com:  0.100D+01
 Coeff-En:   0.100D+01
 Coeff:      0.100D+01
 Gap=     0.335 Goal=   None    Shift=    0.000
 Gap=     0.296 Goal=   None    Shift=    0.000
 GapD=    0.296 DampG=1.000 DampE=0.500 DampFc=0.5000 IDamp=-1.
 Damping current iteration by 5.00D-01
 RMSDP=5.08D-03 MaxDP=6.68D-02              OVMax= 1.89D-01

 Cycle   2  Pass 1  IDiag  1:
 RMSU=  2.52D-03    CP:  9.94D-01
 E= -500.515385088916     Delta-E=       -0.091937759650 Rises=F Damp=T
 DIIS: error= 2.50D-02 at cycle   2 NSaved=   2.
 NSaved= 2 IEnMin= 2 EnMin= -500.515385088916     IErMin= 2 ErrMin= 2.50D-02
 ErrMax= 2.50D-02 EMaxC= 1.00D-01 BMatC= 1.26D-01 BMatP= 4.42D-01
 IDIUse=3 WtCom= 7.50D-01 WtEn= 2.50D-01
 Coeff-Com: -0.110D+01 0.210D+01
 Coeff-En:   0.000D+00 0.100D+01
 Coeff:     -0.826D+00 0.183D+01
 Gap=     0.295 Goal=   None    Shift=    0.000
 Gap=     0.162 Goal=   None    Shift=    0.000
 RMSDP=3.08D-03 MaxDP=4.05D-02 DE=-9.19D-02 OVMax= 5.51D-02

 Cycle   3  Pass 1  IDiag  1:
 RMSU=  7.62D-04    CP:  9.88D-01  2.18D+00
 E= -500.619403669842     Delta-E=       -0.104018580927 Rises=F Damp=F
 DIIS: error= 2.70D-03 at cycle   3 NSaved=   3.
 NSaved= 3 IEnMin= 3 EnMin= -500.619403669842     IErMin= 3 ErrMin= 2.70D-03
 ErrMax= 2.70D-03 EMaxC= 1.00D-01 BMatC= 1.82D-03 BMatP= 1.26D-01
 IDIUse=3 WtCom= 9.73D-01 WtEn= 2.70D-02
 Coeff-Com: -0.334D+00 0.608D+00 0.726D+00
 Coeff-En:   0.000D+00 0.000D+00 0.100D+01
 Coeff:     -0.325D+00 0.592D+00 0.733D+00
 Gap=     0.289 Goal=   None    Shift=    0.000
 Gap=     0.165 Goal=   None    Shift=    0.000
 RMSDP=3.79D-04 MaxDP=5.13D-03 DE=-1.04D-01 OVMax= 1.85D-02

 Cycle   4  Pass 1  IDiag  1:
 RMSU=  3.09D-04    CP:  9.86D-01  2.26D+00  9.25D-01
 E= -500.620113986021     Delta-E=       -0.000710316179 Rises=F Damp=F
 DIIS: error= 1.10D-03 at cycle   4 NSaved=   4.
 NSaved= 4 IEnMin= 4 EnMin= -500.620113986021     IErMin= 4 ErrMin= 1.10D-03
 ErrMax= 1.10D-03 EMaxC= 1.00D-01 BMatC= 1.59D-04 BMatP= 1.82D-03
 IDIUse=3 WtCom= 9.89D-01 WtEn= 1.10D-02
 Coeff-Com:  0.933D-01-0.181D+00 0.846D-01 0.100D+01
 Coeff-En:   0.000D+00 0.000D+00 0.000D+00 0.100D+01
 Coeff:      0.923D-01-0.179D+00 0.837D-01 0.100D+01
 Gap=     0.291 Goal=   None    Shift=    0.000
 Gap=     0.165 Goal=   None    Shift=    0.000
 RMSDP=1.51D-04 MaxDP=1.95D-03 DE=-7.10D-04 OVMax= 1.10D-02

 Cycle   5  Pass 1  IDiag  1:
 RMSU=  8.24D-05    CP:  9.86D-01  2.28D+00  1.05D+00  1.18D+00
 E= -500.620210342321     Delta-E=       -0.000096356300 Rises=F Damp=F
 DIIS: error= 3.00D-04 at cycle   5 NSaved=   5.
 NSaved= 5 IEnMin= 5 EnMin= -500.620210342321     IErMin= 5 ErrMin= 3.00D-04
 ErrMax= 3.00D-04 EMaxC= 1.00D-01 BMatC= 1.78D-05 BMatP= 1.59D-04
 IDIUse=3 WtCom= 9.97D-01 WtEn= 3.00D-03
 Coeff-Com:  0.522D-01-0.977D-01-0.497D-01 0.243D+00 0.853D+00
 Coeff-En:   0.000D+00 0.000D+00 0.000D+00 0.000D+00 0.100D+01
 Coeff:      0.520D-01-0.974D-01-0.496D-01 0.242D+00 0.853D+00
 Gap=     0.291 Goal=   None    Shift=    0.000
 Gap=     0.166 Goal=   None    Shift=    0.000
 RMSDP=4.49D-05 MaxDP=4.92D-04 DE=-9.64D-05 OVMax= 2.90D-03

 Cycle   6  Pass 1  IDiag  1:
 RMSU=  3.17D-05    CP:  9.86D-01  2.28D+00  1.08D+00  1.25D+00  9.56D-01
 E= -500.620219065997     Delta-E=       -0.000008723675 Rises=F Damp=F
 DIIS: error= 8.53D-05 at cycle   6 NSaved=   6.
 NSaved= 6 IEnMin= 6 EnMin= -500.620219065997     IErMin= 6 ErrMin= 8.53D-05
 ErrMax= 8.53D-05 EMaxC= 1.00D-01 BMatC= 2.27D-06 BMatP= 1.78D-05
 IDIUse=1 WtCom= 1.00D+00 WtEn= 0.00D+00
 Coeff-Com:  0.785D-02-0.142D-01-0.231D-01-0.989D-02 0.268D+00 0.771D+00
 Coeff:      0.785D-02-0.142D-01-0.231D-01-0.989D-02 0.268D+00 0.771D+00
 Gap=     0.291 Goal=   None    Shift=    0.000
 Gap=     0.165 Goal=   None    Shift=    0.000
 RMSDP=1.56D-05 MaxDP=1.93D-04 DE=-8.72D-06 OVMax= 6.59D-04

 Cycle   7  Pass 1  IDiag  1:
 RMSU=  9.79D-06    CP:  9.86D-01  2.28D+00  1.08D+00  1.27D+00  1.06D+00
                    CP:  9.71D-01
 E= -500.620219724293     Delta-E=       -0.000000658296 Rises=F Damp=F
 DIIS: error= 5.53D-05 at cycle   7 NSaved=   7.
 NSaved= 7 IEnMin= 7 EnMin= -500.620219724293     IErMin= 7 ErrMin= 5.53D-05
 ErrMax= 5.53D-05 EMaxC= 1.00D-01 BMatC= 6.37D-07 BMatP= 2.27D-06
 IDIUse=1 WtCom= 1.00D+00 WtEn= 0.00D+00
 Coeff-Com: -0.347D-02 0.683D-02-0.526D-02-0.392D-01 0.311D-01 0.389D+00
 Coeff-Com:  0.621D+00
 Coeff:     -0.347D-02 0.683D-02-0.526D-02-0.392D-01 0.311D-01 0.389D+00
 Coeff:      0.621D+00
 Gap=     0.291 Goal=   None    Shift=    0.000
 Gap=     0.165 Goal=   None    Shift=    0.000
 RMSDP=5.82D-06 MaxDP=8.68D-05 DE=-6.58D-07 OVMax= 2.27D-04

 Cycle   8  Pass 1  IDiag  1:
 RMSU=  2.63D-06    CP:  9.86D-01  2.28D+00  1.09D+00  1.27D+00  1.07D+00
                    CP:  1.06D+00  6.35D-01
 E= -500.620219900390     Delta-E=       -0.000000176097 Rises=F Damp=F
 DIIS: error= 5.57D-06 at cycle   8 NSaved=   8.
 NSaved= 8 IEnMin= 8 EnMin= -500.620219900390     IErMin= 8 ErrMin= 5.57D-06
 ErrMax= 5.57D-06 EMaxC= 1.00D-01 BMatC= 1.06D-08 BMatP= 6.37D-07
 IDIUse=1 WtCom= 1.00D+00 WtEn= 0.00D+00
 Coeff-Com: -0.686D-03 0.129D-02 0.627D-03-0.373D-02-0.926D-02-0.525D-02
 Coeff-Com:  0.977D-01 0.919D+00
 Coeff:     -0.686D-03 0.129D-02 0.627D-03-0.373D-02-0.926D-02-0.525D-02
 Coeff:      0.977D-01 0.919D+00
 Gap=     0.291 Goal=   None    Shift=    0.000
 Gap=     0.165 Goal=   None    Shift=    0.000
 RMSDP=1.22D-06 MaxDP=2.42D-05 DE=-1.76D-07 OVMax= 4.04D-05

 Cycle   9  Pass 1  IDiag  1:
 RMSU=  6.32D-07    CP:  9.86D-01  2.28D+00  1.09D+00  1.27D+00  1.07D+00
                    CP:  1.08D+00  7.07D-01  1.06D+00
 E= -500.620219904666     Delta-E=       -0.000000004276 Rises=F Damp=F
 DIIS: error= 1.65D-06 at cycle   9 NSaved=   9.
 NSaved= 9 IEnMin= 9 EnMin= -500.620219904666     IErMin= 9 ErrMin= 1.65D-06
 ErrMax= 1.65D-06 EMaxC= 1.00D-01 BMatC= 7.37D-10 BMatP= 1.06D-08
 IDIUse=1 WtCom= 1.00D+00 WtEn= 0.00D+00
 Coeff-Com:  0.118D-03-0.245D-03 0.544D-03 0.203D-02-0.402D-02-0.276D-01
 Coeff-Com: -0.274D-01 0.194D+00 0.862D+00
 Coeff:      0.118D-03-0.245D-03 0.544D-03 0.203D-02-0.402D-02-0.276D-01
 Coeff:     -0.274D-01 0.194D+00 0.862D+00
 Gap=     0.291 Goal=   None    Shift=    0.000
 Gap=     0.165 Goal=   None    Shift=    0.000
 RMSDP=3.64D-07 MaxDP=6.77D-06 DE=-4.28D-09 OVMax= 1.92D-05

 Cycle  10  Pass 1  IDiag  1:
 RMSU=  1.91D-07    CP:  9.86D-01  2.28D+00  1.09D+00  1.27D+00  1.07D+00
                    CP:  1.08D+00  7.10D-01  1.15D+00  1.02D+00
 E= -500.620219905029     Delta-E=       -0.000000000363 Rises=F Damp=F
 DIIS: error= 4.24D-07 at cycle  10 NSaved=  10.
 NSaved=10 IEnMin=10 EnMin= -500.620219905029     IErMin=10 ErrMin= 4.24D-07
 ErrMax= 4.24D-07 EMaxC= 1.00D-01 BMatC= 5.77D-11 BMatP= 7.37D-10
 IDIUse=1 WtCom= 1.00D+00 WtEn= 0.00D+00
 Coeff-Com:  0.813D-04-0.156D-03 0.427D-04 0.659D-03-0.591D-04-0.304D-02
 Coeff-Com: -0.137D-01-0.460D-01 0.121D+00 0.941D+00
 Coeff:      0.813D-04-0.156D-03 0.427D-04 0.659D-03-0.591D-04-0.304D-02
 Coeff:     -0.137D-01-0.460D-01 0.121D+00 0.941D+00
 Gap=     0.291 Goal=   None    Shift=    0.000
 Gap=     0.165 Goal=   None    Shift=    0.000
 RMSDP=1.34D-07 MaxDP=2.16D-06 DE=-3.63D-10 OVMax= 7.72D-06

 Cycle  11  Pass 1  IDiag  1:
 RMSU=  5.22D-08    CP:  9.86D-01  2.28D+00  1.09D+00  1.27D+00  1.07D+00
                    CP:  1.08D+00  7.10D-01  1.18D+00  1.11D+00  1.11D+00
 E= -500.620219905066     Delta-E=       -0.000000000038 Rises=F Damp=F
 DIIS: error= 1.76D-07 at cycle  11 NSaved=  11.
 NSaved=11 IEnMin=11 EnMin= -500.620219905066     IErMin=11 ErrMin= 1.76D-07
 ErrMax= 1.76D-07 EMaxC= 1.00D-01 BMatC= 6.83D-12 BMatP= 5.77D-11
 IDIUse=1 WtCom= 1.00D+00 WtEn= 0.00D+00
 Coeff-Com:  0.188D-04-0.345D-04-0.384D-04 0.496D-04 0.340D-03 0.145D-02
 Coeff-Com: -0.161D-02-0.348D-01-0.350D-01 0.258D+00 0.812D+00
 Coeff:      0.188D-04-0.345D-04-0.384D-04 0.496D-04 0.340D-03 0.145D-02
 Coeff:     -0.161D-02-0.348D-01-0.350D-01 0.258D+00 0.812D+00
 Gap=     0.291 Goal=   None    Shift=    0.000
 Gap=     0.165 Goal=   None    Shift=    0.000
 RMSDP=3.81D-08 MaxDP=5.67D-07 DE=-3.75D-11 OVMax= 2.42D-06

 Cycle  12  Pass 1  IDiag  1:
 RMSU=  1.39D-08    CP:  9.86D-01  2.28D+00  1.09D+00  1.27D+00  1.07D+00
                    CP:  1.08D+00  7.11D-01  1.18D+00  1.13D+00  1.21D+00
                    CP:  9.62D-01
 E= -500.620219905071     Delta-E=       -0.000000000005 Rises=F Damp=F
 DIIS: error= 3.87D-08 at cycle  12 NSaved=  12.
 NSaved=12 IEnMin=12 EnMin= -500.620219905071     IErMin=12 ErrMin= 3.87D-08
 ErrMax= 3.87D-08 EMaxC= 1.00D-01 BMatC= 3.75D-13 BMatP= 6.83D-12
 IDIUse=1 WtCom= 1.00D+00 WtEn= 0.00D+00
 Coeff-Com: -0.514D-05 0.100D-04-0.509D-05-0.474D-04 0.168D-04 0.269D-03
 Coeff-Com:  0.126D-02 0.113D-02-0.120D-01-0.744D-01 0.633D-01 0.102D+01
 Coeff:     -0.514D-05 0.100D-04-0.509D-05-0.474D-04 0.168D-04 0.269D-03
 Coeff:      0.126D-02 0.113D-02-0.120D-01-0.744D-01 0.633D-01 0.102D+01
 Gap=     0.291 Goal=   None    Shift=    0.000
 Gap=     0.165 Goal=   None    Shift=    0.000
 RMSDP=1.24D-08 MaxDP=2.16D-07 DE=-4.77D-12 OVMax= 9.07D-07

 Cycle  13  Pass 1  IDiag  1:
 RMSU=  2.91D-09    CP:  9.86D-01  2.28D+00  1.09D+00  1.27D+00  1.07D+00
                    CP:  1.08D+00  7.11D-01  1.19D+00  1.13D+00  1.23D+00
                    CP:  1.07D+00  1.08D+00
 E= -500.620219905071     Delta-E=        0.000000000000 Rises=F Damp=F
 DIIS: error= 8.43D-09 at cycle  13 NSaved=  13.
 NSaved=13 IEnMin=12 EnMin= -500.620219905071     IErMin=13 ErrMin= 8.43D-09
 ErrMax= 8.43D-09 EMaxC= 1.00D-01 BMatC= 1.70D-14 BMatP= 3.75D-13
 IDIUse=1 WtCom= 1.00D+00 WtEn= 0.00D+00
 Coeff-Com: -0.839D-06 0.157D-05 0.131D-05-0.562D-05-0.108D-04-0.219D-04
 Coeff-Com:  0.752D-04 0.152D-02 0.125D-03-0.128D-01-0.357D-01 0.783D-01
 Coeff-Com:  0.969D+00
 Coeff:     -0.839D-06 0.157D-05 0.131D-05-0.562D-05-0.108D-04-0.219D-04
 Coeff:      0.752D-04 0.152D-02 0.125D-03-0.128D-01-0.357D-01 0.783D-01
 Coeff:      0.969D+00
 Gap=     0.291 Goal=   None    Shift=    0.000
 Gap=     0.165 Goal=   None    Shift=    0.000
 RMSDP=1.62D-09 MaxDP=2.85D-08 DE= 3.41D-13 OVMax= 1.15D-07

 SCF Done:  E(UB+HF-PW91) =  -500.620219905     A.U. after   13 cycles
             Convg  =    0.1620D-08             -V/T =  2.0026
             S**2   =   0.7554
 KE= 4.993281684322D+02 PE=-1.278280397585D+03 EE= 2.329983524927D+02
 Annihilation of the first spin contaminant:
 S**2 before annihilation     0.7554,   after     0.7500
 Leave Link  502 at Sat Aug 19 10:07:49 2006, MaxMem=    6291456 cpu:     119.4
 (Enter /usr/local/Gaussian/g03/l701.exe)
 Compute integral first derivatives.
 ... and contract with generalized density number  0.
 Leave Link  701 at Sat Aug 19 10:07:52 2006, MaxMem=    6291456 cpu:       0.6
 (Enter /usr/local/Gaussian/g03/l702.exe)
 L702 exits ... SP integral derivatives will be done elsewhere.
 Leave Link  702 at Sat Aug 19 10:07:54 2006, MaxMem=    6291456 cpu:       0.0
 (Enter /usr/local/Gaussian/g03/l703.exe)
 Compute integral first derivatives, UseDBF=F.
 Integral derivatives from FoFDir, PRISM(SPDF).
 Symmetry not used in FoFDir.
 MinBra= 0 MaxBra= 2 Meth= 1.
 IRaf=       0 NMat=   1 IRICut=       1 DoRegI=T DoRafI=F ISym2E= 0 JSym2E=0.
 Leave Link  703 at Sat Aug 19 10:09:46 2006, MaxMem=    6291456 cpu:      23.8
 (Enter /usr/local/Gaussian/g03/l716.exe)
 Dipole        = 1.16803003D+00 7.81843177D-05-1.18495983D-04
 ***** Axes restored to original set *****
 -------------------------------------------------------------------
 Center     Atomic                   Forces (Hartrees/Bohr)
 Number     Number              X              Y              Z
 -------------------------------------------------------------------
    1          6           0.000004772   -0.000004902    0.000001546
    2          1           0.000001251    0.000003025    0.000001611
    3          1           0.000001671   -0.000004191   -0.000003891
    4          1          -0.000005611    0.000001495   -0.000002362
    5          1           0.000007971    0.000083801    0.000011130
    6         17          -0.000010054   -0.000079229   -0.000008034
 -------------------------------------------------------------------
 Cartesian Forces:  Max     0.000083801 RMS     0.000027679
 Leave Link  716 at Sat Aug 19 10:09:47 2006, MaxMem=    6291456 cpu:       0.0
 (Enter /usr/local/Gaussian/g03/l103.exe)

 GradGradGradGradGradGradGradGradGradGradGradGradGradGradGradGradGradGrad
 Berny optimization.
 Internal  Forces:  Max     0.000079391 RMS     0.000023080
 Search for a saddle point.
 Step number   2 out of a maximum of  23
 All quantities printed in internal units (Hartrees-Bohrs-Radians)
 Swaping is turned off.
 Update second derivatives using D2CorX and points  1  2
 The second derivative matrix:
                          R1        R2        R3        R4        R5
           R1           0.36524
           R2          -0.00056   0.36528
           R3          -0.00055  -0.00056   0.36524
           R4           0.00033   0.00032   0.00031   0.01372
           R5          -0.00019  -0.00016  -0.00008   0.06089   0.17076
           A1           0.00713   0.00712  -0.00795  -0.00556   0.00117
           A2           0.00712  -0.00795   0.00712  -0.00557   0.00121
           A3          -0.00159  -0.00525  -0.00525   0.01067  -0.00214
           A4          -0.00795   0.00711   0.00712  -0.00557   0.00128
           A5          -0.00525  -0.00157  -0.00524   0.01073  -0.00272
           A6          -0.00526  -0.00525  -0.00160   0.01068  -0.00217
           A7           0.00094  -0.00191   0.00094   0.00014  -0.00120
           A8          -0.00086  -0.00002   0.00084   0.00003  -0.00045
                          A1        A2        A3        A4        A5
           A1           0.07330
           A2          -0.02672   0.07327
           A3          -0.01270  -0.01266   0.04836
           A4          -0.02672  -0.02672  -0.01277   0.07329
           A5          -0.01267  -0.01277   0.01236  -0.01264   0.04844
           A6          -0.01277  -0.01265   0.01248  -0.01270   0.01232
           A7          -0.00014   0.00043  -0.00023  -0.00019   0.00034
           A8          -0.00020   0.00000   0.00001   0.00021   0.00005
                          A6        A7        A8
           A6           0.04841
           A7          -0.00031   0.02195
           A8          -0.00008   0.00022   0.00580
     Eigenvalues ---   -0.01148   0.00579   0.02192   0.03585   0.03611
     Eigenvalues ---    0.09661   0.09915   0.09917   0.19168   0.36482
     Eigenvalues ---    0.36669   0.366731000.00000
 Eigenvectors required to have negative eigenvalues:
                          R1        R2        R3        R4        R5
         1             -0.00516  -0.00515  -0.00499   0.92746  -0.31506
                          A1        A2        A3        A4        A5
         1              0.05174   0.05214  -0.10140   0.05219  -0.10647
                          A6        A7        A8
         1             -0.10194  -0.01589  -0.00979
 RFO step:  Lambda0=6.851753465D-08 Lambda=-5.94376588D-08.
 Linear search not attempted -- option 19 set.
 Iteration  1 RMS(Cart)=  0.00078676 RMS(Int)=  0.00000061
 Iteration  2 RMS(Cart)=  0.00000051 RMS(Int)=  0.00000006
 Variable       Old X    -DE/DX   Delta X   Delta X   Delta X     New X
                                 (Linear)    (Quad)   (Total)
    R1        2.04922   0.00000   0.00000  -0.00001  -0.00001   2.04921
    R2        2.04921   0.00000   0.00000  -0.00001  -0.00001   2.04920
    R3        2.04921   0.00001   0.00000   0.00000   0.00000   2.04921
    R4        2.97115   0.00000   0.00000   0.00234   0.00234   2.97350
    R5        2.62161   0.00008   0.00000  -0.00040  -0.00040   2.62121
    A1        2.05574   0.00000   0.00000   0.00014   0.00014   2.05588
    A2        2.05568   0.00000   0.00000   0.00015   0.00015   2.05582
    A3        1.72164   0.00000   0.00000  -0.00018  -0.00018   1.72146
    A4        2.05571   0.00000   0.00000   0.00016   0.00016   2.05587
    A5        1.72182  -0.00001   0.00000  -0.00049  -0.00049   1.72133
    A6        1.72144   0.00000   0.00000  -0.00023  -0.00023   1.72121
    A7        3.14262  -0.00002   0.00000  -0.00096  -0.00096   3.14167
    A8        3.14322  -0.00001   0.00000  -0.00126  -0.00126   3.14196
         Item               Value     Threshold  Converged?
 Maximum Force            0.000079     0.000450     YES
 RMS     Force            0.000023     0.000300     YES
 Maximum Displacement     0.001381     0.001800     YES
 RMS     Displacement     0.000787     0.001200     YES
 Predicted change in Energy= 4.540133D-09
 Optimization completed.
    -- Stationary point found.
                           ----------------------------
                           !   Optimized Parameters   !
                           ! (Angstroms and Degrees)  !
 --------------------------                            --------------------------
 ! Name  Definition              Value          Derivative Info.                !
 --------------------------------------------------------------------------------
 ! R1    R(1,2)                  1.0844         -DE/DX =    0.0                 !
 ! R2    R(1,3)                  1.0844         -DE/DX =    0.0                 !
 ! R3    R(1,4)                  1.0844         -DE/DX =    0.0                 !
 ! R4    R(1,5)                  1.5723         -DE/DX =    0.0                 !
 ! R5    R(5,6)                  1.3873         -DE/DX =    0.0001              !
 ! A1    A(2,1,3)              117.7853         -DE/DX =    0.0                 !
 ! A2    A(2,1,4)              117.7815         -DE/DX =    0.0                 !
 ! A3    A(2,1,5)               98.6427         -DE/DX =    0.0                 !
 ! A4    A(3,1,4)              117.7834         -DE/DX =    0.0                 !
 ! A5    A(3,1,5)               98.653          -DE/DX =    0.0                 !
 ! A6    A(4,1,5)               98.6311         -DE/DX =    0.0                 !
 ! A7    L(1,5,6,3,-1)         180.059          -DE/DX =    0.0                 !
 ! A8    L(1,5,6,3,-2)         180.0934         -DE/DX =    0.0                 !
 --------------------------------------------------------------------------------
 GradGradGradGradGradGradGradGradGradGradGradGradGradGradGradGradGradGrad

 Largest change from initial coordinates is atom    2       0.521 Angstoms.
 Leave Link  103 at Sat Aug 19 10:09:49 2006, MaxMem=    6291456 cpu:       0.1
 (Enter /usr/local/Gaussian/g03/l202.exe)
                          Input orientation:                          
 ---------------------------------------------------------------------
 Center     Atomic     Atomic              Coordinates (Angstroms)
 Number     Number      Type              X           Y           Z
 ---------------------------------------------------------------------
    1          6             0        0.000792    0.002523    0.000426
    2          1             0       -0.000858   -0.003110    1.084809
    3          1             0        0.960893   -0.002605   -0.503647
    4          1             0       -0.832300    0.479614   -0.503808
    5          1             0       -0.402851   -1.497219   -0.244252
    6         17             0       -0.760763   -2.819997   -0.460453
 ---------------------------------------------------------------------
                    Distance matrix (angstroms):
                    1          2          3          4          5
     1  C    0.000000
     2  H    1.084399   0.000000
     3  H    1.084394   1.856922   0.000000
     4  H    1.084393   1.856885   1.856900   0.000000
     5  H    1.572266   2.039696   2.039842   2.039525   0.000000
     6  Cl   2.959560   3.301536   3.302069   3.300671   1.387294
                    6
     6  Cl   0.000000
 Stoichiometry    CH4Cl(2)
 Framework group  C1[X(CH4Cl)]
 Deg. of freedom    12
 Full point group                 C1      NOp   1
 Largest Abelian subgroup         C1      NOp   1
 Largest concise Abelian subgroup C1      NOp   1
                         Standard orientation:                         
 ---------------------------------------------------------------------
 Center     Atomic     Atomic              Coordinates (Angstroms)
 Number     Number      Type              X           Y           Z
 ---------------------------------------------------------------------
    1          6             0        1.903553   -0.000026    0.000044
    2          1             0        2.066625   -0.799403   -0.714326
    3          1             0        2.067233    1.018315   -0.334771
    4          1             0        2.065643   -0.219256    1.049603
    5          1             0        0.331288    0.000512   -0.000814
    6         17             0       -1.056006   -0.000001    0.000003
 ---------------------------------------------------------------------
 Rotational constants (GHZ):    145.4300378      5.2570520      5.2570476
 Leave Link  202 at Sat Aug 19 10:09:52 2006, MaxMem=    6291456 cpu:       0.5
 (Enter /usr/local/Gaussian/g03/l601.exe)
 Copying SCF densities to generalized density rwf, ISCF=1 IROHF=0.

 **********************************************************************

            Population analysis using the SCF density.

 **********************************************************************

 Orbital symmetries:
 Alpha Orbitals:
       Occupied  (A) (A) (A) (A) (A) (A) (A) (A) (A) (A) (A) (A)
                 (A) (A)
       Virtual   (A) (A) (A) (A) (A) (A) (A) (A) (A) (A) (A) (A)
                 (A) (A) (A) (A) (A) (A) (A) (A) (A) (A) (A) (A)
                 (A) (A) (A) (A) (A) (A) (A) (A) (A) (A) (A) (A)
                 (A) (A) (A) (A) (A) (A) (A) (A) (A) (A) (A) (A)
                 (A) (A) (A) (A) (A) (A) (A) (A) (A) (A) (A) (A)
                 (A) (A)
 Beta  Orbitals:
       Occupied  (A) (A) (A) (A) (A) (A) (A) (A) (A) (A) (A) (A)
                 (A)
       Virtual   (A) (A) (A) (A) (A) (A) (A) (A) (A) (A) (A) (A)
                 (A) (A) (A) (A) (A) (A) (A) (A) (A) (A) (A) (A)
                 (A) (A) (A) (A) (A) (A) (A) (A) (A) (A) (A) (A)
                 (A) (A) (A) (A) (A) (A) (A) (A) (A) (A) (A) (A)
                 (A) (A) (A) (A) (A) (A) (A) (A) (A) (A) (A) (A)
                 (A) (A) (A)
 The electronic state is 2-A.
 Alpha  occ. eigenvalues -- -101.51731 -10.21594  -9.45302  -7.21580  -7.20399
 Alpha  occ. eigenvalues --   -7.20399  -0.82737  -0.73853  -0.47152  -0.46107
 Alpha  occ. eigenvalues --   -0.46106  -0.31708  -0.31708  -0.28314
 Alpha virt. eigenvalues --    0.00755   0.05086   0.05389   0.05390   0.06840
 Alpha virt. eigenvalues --    0.10399   0.10400   0.13251   0.13436   0.13439
 Alpha virt. eigenvalues --    0.15270   0.21023   0.36894   0.36895   0.40520
 Alpha virt. eigenvalues --    0.41663   0.47806   0.48808   0.48811   0.57391
 Alpha virt. eigenvalues --    0.57393   0.66070   0.77104   0.77105   0.82527
 Alpha virt. eigenvalues --    0.88060   0.88060   0.88362   0.96499   0.96500
 Alpha virt. eigenvalues --    1.15384   1.36258   1.36463   1.36464   1.51243
 Alpha virt. eigenvalues --    1.52427   1.52432   1.75536   1.81990   1.81994
 Alpha virt. eigenvalues --    2.04678   2.04681   2.14208   2.27657   2.27658
 Alpha virt. eigenvalues --    2.42059   2.42896   2.42899   2.48252   2.55917
 Alpha virt. eigenvalues --    2.58294   2.58299   2.88466   3.24279   3.68713
 Alpha virt. eigenvalues --    3.68715   9.74948  23.89259  25.81751  25.81753
 Alpha virt. eigenvalues --   26.12678 215.75144
  Beta  occ. eigenvalues -- -101.51529 -10.20311  -9.45098  -7.20932  -7.20276
  Beta  occ. eigenvalues --   -7.20276  -0.81280  -0.70268  -0.45141  -0.45140
  Beta  occ. eigenvalues --   -0.44386  -0.31274  -0.31274
  Beta virt. eigenvalues --   -0.14750   0.01312   0.05518   0.05519   0.05922
  Beta virt. eigenvalues --    0.07675   0.10451   0.10452   0.13901   0.13903
  Beta virt. eigenvalues --    0.14007   0.18028   0.21585   0.37397   0.37398
  Beta virt. eigenvalues --    0.40970   0.43493   0.48933   0.48936   0.50813
  Beta virt. eigenvalues --    0.58304   0.58305   0.68417   0.78495   0.78496
  Beta virt. eigenvalues --    0.84646   0.88329   0.88330   0.90603   0.99274
  Beta virt. eigenvalues --    0.99275   1.17074   1.35996   1.36814   1.36815
  Beta virt. eigenvalues --    1.52890   1.52894   1.55505   1.76857   1.83102
  Beta virt. eigenvalues --    1.83106   2.06533   2.06536   2.16934   2.27975
  Beta virt. eigenvalues --    2.27976   2.43451   2.43454   2.43706   2.50530
  Beta virt. eigenvalues --    2.55740   2.58887   2.58892   2.89102   3.28864
[...]
 Vibration  2             0.721              1.592              1.205
                       Q            Log10(Q)             Ln(Q)
 Total Bot       0.119637D-05         -5.922135        -13.636220
 Total V=0       0.649718D+12         11.812725         27.199805
 Vib (Bot)       0.305227D-17        -17.515377        -40.330646
 Vib (Bot)  1    0.544754D+00         -0.263799         -0.607421
 Vib (Bot)  2    0.542989D+00         -0.265209         -0.610665
 Vib (V=0)       0.165761D+01          0.219483          0.505378
 Vib (V=0)  1    0.123943D+01          0.093222          0.214652
 Vib (V=0)  2    0.123813D+01          0.092767          0.213603
 Electronic      0.200000D+01          0.301030          0.693147
 Translational   0.143157D+08          7.155812         16.476867
 Rotational      0.136899D+05          4.136400          9.524412
 
                                                        me/cl b3pw91\6-311+G**
                                                             IR Spectrum
 
      3     3                                                             1   1                                                      
      2     0                                                             4   4                      8 7               3             
      6     9                                                             9   0                      1 5               4             
      7     1                                                             6   4                      4 1               1             
 
      X     X                                                             X   X                      X X               X             
                                                                          X                          X X                             
                                                                          X                          X X                             
                                                                          X                          X                               
                                                                          X                          X                               
                                                                          X                          X                               
                                                                          X                          X                               
                                                                          X                                                          
                                                                          X                                                          
                                                                          X                                                          
                                                                          X                                                          
                                                                          X                                                          
                                                                          X                                                          
                                                                          X                                                          
                                                                          X                                                          
                                                                          X                                                          
                                                                          X                                                          
                                                                          X                                                          
                                                                          X                                                          
                                                                          X                                                          
 
 ***** Axes restored to original set *****
 -------------------------------------------------------------------
 Center     Atomic                   Forces (Hartrees/Bohr)
 Number     Number              X              Y              Z
 -------------------------------------------------------------------
    1          6           0.000004775   -0.000004902    0.000001545
    2          1           0.000001251    0.000003026    0.000001611
    3          1           0.000001669   -0.000004191   -0.000003890
    4          1          -0.000005611    0.000001495   -0.000002362
    5          1           0.000007970    0.000083799    0.000011129
    6         17          -0.000010053   -0.000079227   -0.000008034
 -------------------------------------------------------------------
 Cartesian Forces:  Max     0.000083799 RMS     0.000027678
 Force constants in Cartesian coordinates: 
                1             2             3             4             5
      1  0.564896D+00
      2 -0.128289D+00  0.122264D+00
      3 -0.209927D-01 -0.778072D-01  0.586630D+00
      4 -0.506607D-01  0.849602D-02 -0.932115D-03  0.424181D-01
      5  0.850340D-02 -0.213779D-01 -0.376061D-02 -0.715925D-02  0.177579D-01
      6  0.200485D-02  0.720867D-02 -0.349316D+00 -0.120625D-02 -0.422984D-02
      7 -0.284791D+00  0.102032D-01  0.124457D+00  0.453329D-02  0.282967D-04
      8  0.486368D-03 -0.214260D-01  0.935284D-02  0.966774D-03  0.412060D-02
      9  0.121520D+00  0.427271D-02 -0.115261D+00  0.247200D-01  0.108978D-02
     10 -0.223148D+00  0.106765D+00 -0.103003D+00  0.400151D-02  0.397590D-04
     11  0.116457D+00 -0.829799D-01  0.704877D-01 -0.894852D-03  0.465480D-02
     12 -0.102994D+00  0.646085D-01 -0.115281D+00 -0.208448D-01  0.133405D-01
     13 -0.367777D-02  0.193998D-01  0.317608D-02 -0.279671D-03 -0.182521D-02
     14  0.193476D-01  0.629570D-01  0.117278D-01 -0.181827D-02 -0.655521D-02
     15  0.315994D-02  0.117308D-01 -0.698439D-02 -0.177915D-02 -0.659814D-02
     16 -0.261845D-02 -0.165750D-01 -0.270566D-02 -0.125777D-04  0.412997D-03
     17 -0.165051D-01 -0.594371D-01 -0.100005D-01  0.409575D-03  0.139972D-02
     18 -0.269812D-02 -0.100135D-01  0.211956D-03  0.422609D-04  0.158330D-03
                6             7             8             9            10
      6  0.363867D+00
      7 -0.397877D-02  0.293892D+00
      8 -0.478087D-03 -0.694183D-02  0.177964D-01
      9 -0.631649D-02 -0.132735D+00 -0.447137D-02  0.112472D+00
     10  0.320470D-02 -0.113497D-01  0.118366D-01 -0.128048D-01  0.230427D+00
     11 -0.240921D-02 -0.255598D-02  0.465645D-02  0.317604D-03 -0.116341D+00
     12 -0.632448D-02  0.112351D-01 -0.614832D-02  0.902323D-02  0.112615D+00
     13 -0.833076D-04 -0.292132D-02 -0.668169D-02 -0.402277D-03 -0.450022D-03
     14 -0.311419D-03 -0.111418D-02 -0.654595D-02 -0.147210D-02 -0.242762D-02
     15 -0.268012D-02  0.130258D-02  0.145091D-02 -0.263310D-04 -0.401933D-03
     16  0.587774D-04  0.636561D-03  0.333749D-03 -0.298572D-03  0.519359D-03
     17  0.219887D-03  0.380472D-03  0.139852D-02  0.263381D-03  0.127774D-03
     18  0.769756D-03 -0.281648D-03  0.294038D-03  0.108779D-03  0.390188D-03
               11            12            13            14            15
     11  0.811941D-01
     12 -0.704109D-01  0.112504D+00
     13  0.314825D-02 -0.401957D-03  0.202678D-01
     14 -0.904367D-02 -0.146723D-02  0.131737D-01  0.651549D-01
     15  0.189892D-02 -0.298579D-04  0.215863D-02  0.793698D-02  0.179824D-01
     16  0.187300D-03  0.391026D-03 -0.129390D-01 -0.271612D-01 -0.444006D-02
     17  0.151815D-02  0.774637D-04 -0.272149D-01 -0.105967D+00 -0.164195D-01
     18  0.115869D-03  0.108142D-03 -0.444717D-02 -0.164140D-01 -0.826174D-02
               16            17            18
     16  0.144141D-01
     17  0.428022D-01  0.161088D+00
     18  0.699449D-02  0.258593D-01  0.706311D-02
 Force constants in internal coordinates: 
                1             2             3             4             5
      1  0.363905D+00
      2 -0.569508D-03  0.363978D+00
      3 -0.567069D-03 -0.566348D-03  0.363951D+00
      4  0.357722D-03  0.353723D-03  0.357621D-03  0.148962D-01
      5 -0.336011D-03 -0.332142D-03 -0.334137D-03  0.608756D-01  0.176890D+00
      6  0.705379D-02  0.704354D-02 -0.799678D-02 -0.535894D-02  0.124981D-02
      7  0.701638D-02 -0.799582D-02  0.703830D-02 -0.535747D-02  0.125166D-02
      8 -0.161171D-02 -0.522217D-02 -0.522562D-02  0.106298D-01 -0.248614D-02
      9 -0.799575D-02  0.702346D-02  0.705573D-02 -0.535320D-02  0.125381D-02
     10 -0.521849D-02 -0.161195D-02 -0.522442D-02  0.106150D-01 -0.248144D-02
     11 -0.522824D-02 -0.521974D-02 -0.165160D-02  0.106551D-01 -0.248704D-02
     12  0.927329D-03 -0.183153D-02  0.928359D-03 -0.223962D-04 -0.241624D-04
     13 -0.835487D-03  0.498549D-05  0.841264D-03 -0.172389D-04 -0.123824D-04
                6             7             8             9            10
      6  0.725063D-01
      7 -0.268910D-01  0.725456D-01
      8 -0.124207D-01 -0.124467D-01  0.480174D-01
      9 -0.268927D-01 -0.268875D-01 -0.123306D-01  0.725400D-01
     10 -0.124178D-01 -0.123404D-01  0.129230D-01 -0.124767D-01  0.480930D-01
     11 -0.123400D-01 -0.124558D-01  0.129015D-01 -0.124324D-01  0.128971D-01
     12 -0.223244D-03  0.477313D-03 -0.154536D-04 -0.266022D-03  0.646126D-04
     13 -0.209989D-03  0.166433D-05  0.147869D-04  0.214958D-03  0.162858D-05
               11            12            13
     11  0.481047D-01
     12 -0.253526D-04  0.207600D-01
     13 -0.295576D-04 -0.683946D-05  0.572163D-02
 Leave Link  716 at Sat Aug 19 11:04:05 2006, MaxMem=    6291456 cpu:       0.1
 (Enter /usr/local/Gaussian/g03/l103.exe)

 GradGradGradGradGradGradGradGradGradGradGradGradGradGradGradGradGradGrad
 Berny optimization.
 Internal  Forces:  Max     0.000079390 RMS     0.000023080
 Search for a saddle point.
 Step number   1 out of a maximum of   2
 All quantities printed in internal units (Hartrees-Bohrs-Radians)
 Swaping is turned off.
 Second derivative matrix not updated -- analytic derivatives used.
 The second derivative matrix:
                          R1        R2        R3        R4        R5
           R1           0.36390
           R2          -0.00057   0.36398
           R3          -0.00057  -0.00057   0.36395
           R4           0.00036   0.00035   0.00036   0.01490
           R5          -0.00034  -0.00033  -0.00033   0.06088   0.17689
           A1           0.00705   0.00704  -0.00800  -0.00536   0.00125
           A2           0.00702  -0.00800   0.00704  -0.00536   0.00125
           A3          -0.00161  -0.00522  -0.00523   0.01063  -0.00249
           A4          -0.00800   0.00702   0.00706  -0.00535   0.00125
           A5          -0.00522  -0.00161  -0.00522   0.01061  -0.00248
           A6          -0.00523  -0.00522  -0.00165   0.01066  -0.00249
           A7           0.00093  -0.00183   0.00093  -0.00002  -0.00002
           A8          -0.00084   0.00000   0.00084  -0.00002  -0.00001
                          A1        A2        A3        A4        A5
           A1           0.07251
           A2          -0.02689   0.07255
           A3          -0.01242  -0.01245   0.04802
           A4          -0.02689  -0.02689  -0.01233   0.07254
           A5          -0.01242  -0.01234   0.01292  -0.01248   0.04809
           A6          -0.01234  -0.01246   0.01290  -0.01243   0.01290
           A7          -0.00022   0.00048  -0.00002  -0.00027   0.00006
           A8          -0.00021   0.00000   0.00001   0.00021   0.00000
                          A6        A7        A8
           A6           0.04810
           A7          -0.00003   0.02076
           A8          -0.00003  -0.00001   0.00572
     Eigenvalues ---   -0.00981   0.00572   0.02074   0.03508   0.03517
     Eigenvalues ---    0.09630   0.09856   0.09859   0.19725   0.36348
     Eigenvalues ---    0.36539   0.365441000.00000
 Eigenvectors required to have negative eigenvalues:
                          R1        R2        R3        R4        R5
         1             -0.00542  -0.00540  -0.00542   0.92937  -0.30830
                          A1        A2        A3        A4        A5
         1              0.05275   0.05266  -0.10465   0.05264  -0.10410
                          A6        A7        A8
         1             -0.10500   0.00054   0.00068
 Angle between quadratic step and forces=  94.05 degrees.
 Linear search not attempted -- option 19 set.
 Iteration  1 RMS(Cart)=  0.00086561 RMS(Int)=  0.00000063
 Iteration  2 RMS(Cart)=  0.00000053 RMS(Int)=  0.00000008
 Variable       Old X    -DE/DX   Delta X   Delta X   Delta X     New X
                                 (Linear)    (Quad)   (Total)
    R1        2.04922   0.00000   0.00000  -0.00001  -0.00001   2.04921
    R2        2.04921   0.00000   0.00000  -0.00001  -0.00001   2.04920
    R3        2.04921   0.00001   0.00000   0.00000   0.00000   2.04921
    R4        2.97115   0.00000   0.00000   0.00275   0.00275   2.97390
    R5        2.62161   0.00008   0.00000  -0.00052  -0.00052   2.62109
    A1        2.05574   0.00000   0.00000   0.00016   0.00016   2.05590
    A2        2.05568   0.00000   0.00000   0.00017   0.00017   2.05585
    A3        1.72164   0.00000   0.00000  -0.00022  -0.00022   1.72142
    A4        2.05571   0.00000   0.00000   0.00019   0.00019   2.05590
    A5        1.72182  -0.00001   0.00000  -0.00055  -0.00055   1.72128
    A6        1.72144   0.00000   0.00000  -0.00027  -0.00027   1.72117
    A7        3.14262  -0.00002   0.00000  -0.00098  -0.00098   3.14164
    A8        3.14322  -0.00001   0.00000  -0.00127  -0.00127   3.14196
         Item               Value     Threshold  Converged?
 Maximum Force            0.000079     0.000450     YES
 RMS     Force            0.000023     0.000300     YES
 Maximum Displacement     0.001466     0.001800     YES
 RMS     Displacement     0.000865     0.001200     YES
 Predicted change in Energy= 9.720854D-09
 Optimization completed.
    -- Stationary point found.
                           ----------------------------
                           !   Optimized Parameters   !
                           ! (Angstroms and Degrees)  !
 --------------------------                            --------------------------
 ! Name  Definition              Value          Derivative Info.                !
 --------------------------------------------------------------------------------
 ! R1    R(1,2)                  1.0844         -DE/DX =    0.0                 !
 ! R2    R(1,3)                  1.0844         -DE/DX =    0.0                 !
 ! R3    R(1,4)                  1.0844         -DE/DX =    0.0                 !
 ! R4    R(1,5)                  1.5723         -DE/DX =    0.0                 !
 ! R5    R(5,6)                  1.3873         -DE/DX =    0.0001              !
 ! A1    A(2,1,3)              117.7853         -DE/DX =    0.0                 !
 ! A2    A(2,1,4)              117.7815         -DE/DX =    0.0                 !
 ! A3    A(2,1,5)               98.6427         -DE/DX =    0.0                 !
 ! A4    A(3,1,4)              117.7834         -DE/DX =    0.0                 !
 ! A5    A(3,1,5)               98.653          -DE/DX =    0.0                 !
 ! A6    A(4,1,5)               98.6311         -DE/DX =    0.0                 !
 ! A7    L(1,5,6,3,-1)         180.059          -DE/DX =    0.0                 !
 ! A8    L(1,5,6,3,-2)         180.0934         -DE/DX =    0.0                 !
 --------------------------------------------------------------------------------
 GradGradGradGradGradGradGradGradGradGradGradGradGradGradGradGradGradGrad

 Leave Link  103 at Sat Aug 19 11:04:06 2006, MaxMem=    6291456 cpu:       0.1
 (Enter /usr/local/Gaussian/g03/l9999.exe)
 1\1\GINC-PUBLIX\Freq\UB3PW91\6-311+G(d,p)\C1H4Cl1(2)\NOBODY\19-Aug-200
 6\0\\#P GEOM=ALLCHECK GUESS=READ SCRF=CHECK GENCHK UB3PW91/6-311+G(D,P
 ) FREQ\\me/cl b3pw91\6-311+G**\\0,2\C,0.4898040162,1.8154166784,0.2964
 273631\H,0.4881540148,1.8097835812,1.3808101122\H,1.4499052876,1.81028
 86821,-0.2076460309\H,-0.3432877037,2.2925076235,-0.207806342\H,0.0861
 612674,0.3156749662,0.0517498364\Cl,-0.2717504096,-1.0071032308,-0.164
 4512797\\Version=Sun64-SVR4-Unix-G03RevB.04\State=2-A\HF=-500.6202199\
 S2=0.755419\S2-1=0.\S2A=0.750021\RMSD=2.081e-10\RMSF=2.768e-05\Dipole=
 0.3007108,1.1139003,0.1819157\DipoleDeriv=-0.0022648,-0.0375893,-0.006
 1681,-0.0375517,-0.1325994,-0.022882,-0.0061377,-0.0228717,0.0040793,0
 .076646,-0.0011357,-0.0040816,-0.0012045,0.072742,-0.0153087,0.0055033
 ,0.0205576,-0.0034707,0.0143015,0.0176924,0.0381732,-0.0141112,0.07284
 21,0.0061183,0.0285181,-0.0104992,0.0588341,0.0274603,0.008625,-0.0299
 54,0.040246,0.0596274,0.0244222,-0.0299336,0.0051981,0.0588096,0.17465
 72,0.1082622,0.0176704,0.1082661,0.5472916,0.0656067,0.017671,0.06557,
 0.1561639,-0.2908003,-0.0958546,-0.01564,-0.0956447,-0.6199039,-0.0579
 564,-0.015621,-0.0579549,-0.2744162\Polar=23.5869426,5.9186209,43.9145
 049,0.9667567,3.5792574,22.5734537\PG=C01 [X(C1H4Cl1)]\NImag=1\\0.5648
 9565,-0.12828893,0.12226384,-0.02099275,-0.07780718,0.58662992,-0.0506
 6065,0.00849602,-0.00093212,0.04241810,0.00850340,-0.02137786,-0.00376
 061,-0.00715925,0.01775794,0.00200485,0.00720867,-0.34931564,-0.001206
 25,-0.00422984,0.36386697,-0.28479066,0.01020322,0.12445740,0.00453329
 ,0.00002830,-0.00397877,0.29389178,0.00048637,-0.02142599,0.00935284,0
 .00096677,0.00412060,-0.00047809,-0.00694183,0.01779637,0.12152026,0.0
 0427271,-0.11526127,0.02472004,0.00108978,-0.00631649,-0.13273464,-0.0
 0447137,0.11247209,-0.22314812,0.10676482,-0.10300296,0.00400151,0.000
 03976,0.00320470,-0.01134965,0.01183663,-0.01280481,0.23042692,0.11645
 664,-0.08297989,0.07048773,-0.00089485,0.00465480,-0.00240921,-0.00255
 598,0.00465645,0.00031760,-0.11634136,0.08119415,-0.10299418,0.0646085
 1,-0.11528057,-0.02084479,0.01334049,-0.00632448,0.01123508,-0.0061483
 2,0.00902323,0.11261482,-0.07041091,0.11250353,-0.00367777,0.01939984,
 0.00317608,-0.00027967,-0.00182521,-0.00008331,-0.00292132,-0.00668169
 ,-0.00040228,-0.00045002,0.00314825,-0.00040196,0.02026780,0.01934761,
 0.06295696,0.01172776,-0.00181827,-0.00655521,-0.00031142,-0.00111418,
 -0.00654595,-0.00147210,-0.00242762,-0.00904367,-0.00146723,0.01317369
 ,0.06515489,0.00315994,0.01173079,-0.00698439,-0.00177915,-0.00659814,
 -0.00268012,0.00130258,0.00145091,-0.00002633,-0.00040193,0.00189892,-
 0.00002986,0.00215863,0.00793698,0.01798244,-0.00261845,-0.01657497,-0
 .00270566,-0.00001258,0.00041300,0.00005878,0.00063656,0.00033375,-0.0
 0029857,0.00051936,0.00018730,0.00039103,-0.01293901,-0.02716124,-0.00
 444006,0.01441412,-0.01650510,-0.05943707,-0.01000053,0.00040957,0.001
 39972,0.00021989,0.00038047,0.00139852,0.00026338,0.00012777,0.0015181
 5,0.00007746,-0.02721489,-0.10596702,-0.01641945,0.04280217,0.16108770
 ,-0.00269812,-0.01001350,0.00021196,0.00004226,0.00015833,0.00076976,-
 0.00028165,0.00029404,0.00010878,0.00039019,0.00011587,0.00010814,-0.0
 0444717,-0.01641399,-0.00826174,0.00699449,0.02585926,0.00706311\\-0.0
 0000477,0.00000490,-0.00000155,-0.00000125,-0.00000303,-0.00000161,-0.
 00000167,0.00000419,0.00000389,0.00000561,-0.00000150,0.00000236,-0.00
 000797,-0.00008380,-0.00001113,0.00001005,0.00007923,0.00000803\\\@


 IF YOU PERCEIVE THAT THERE ARE FOUR POSSIBLE WAYS IN
 WHICH A PROCEDURE CAN GO WRONG AND CIRCUMVENT THESE, 
 THEN A FIFTH WAY WILL DEVELOP.

                              -- MURPHY'S TWELFTH LAW
 Job cpu time:  0 days  0 hours 11 minutes 28.8 seconds.
 File lengths (MBytes):  RWF=     23 Int=      0 D2E=      0 Chk=     10 Scr=      1
 Normal termination of Gaussian 03 at Sat Aug 19 11:04:08 2006.
