 Entering Gaussian System, Link 0=/usr/local/Gaussian/g03/g03
 Initial command:
 /usr/local/Gaussian/g03/l1.exe /export/scratch//webmo/3307/Gau-7085.inp -scrdir=/export/scratch//webmo/3307/
 Entering Link 1 = /usr/local/Gaussian/g03/l1.exe PID=      7091.
  
 Copyright (c) 1988,1990,1992,1993,1995,1998,2003, Gaussian, Inc.
                  All Rights Reserved.
  
 This is the Gaussian(R) 03 program.  It is based on the
 the Gaussian(R) 98 system (copyright 1998, Gaussian, Inc.),
 the Gaussian(R) 94 system (copyright 1995, Gaussian, Inc.),
 the Gaussian 92(TM) system (copyright 1992, Gaussian, Inc.),
 the Gaussian 90(TM) system (copyright 1990, Gaussian, Inc.),
 the Gaussian 88(TM) system (copyright 1988, Gaussian, Inc.),
 the Gaussian 86(TM) system (copyright 1986, Carnegie Mellon
 University), and the Gaussian 82(TM) system (copyright 1983,
 Carnegie Mellon University). Gaussian is a federally registered
 trademark of Gaussian, Inc.
  
 This software contains proprietary and confidential information,
 including trade secrets, belonging to Gaussian, Inc.
  
 This software is provided under written license and may be
 used, copied, transmitted, or stored only in accord with that
 written license.
  
 The following legend is applicable only to US Government
 contracts under DFARS:
  
                    RESTRICTED RIGHTS LEGEND
  
 Use, duplication or disclosure by the US Government is subject
 to restrictions as set forth in subparagraph (c)(1)(ii) of the
 Rights in Technical Data and Computer Software clause at DFARS
 252.227-7013.
  
 Gaussian, Inc.
 Carnegie Office Park, Building 6, Pittsburgh, PA 15106 USA
  
 The following legend is applicable only to US Government
 contracts under FAR:
  
                    RESTRICTED RIGHTS LEGEND
  
 Use, reproduction and disclosure by the US Government is subject
 to restrictions as set forth in subparagraph (c) of the
 Commercial Computer Software - Restricted Rights clause at FAR
 52.227-19.
  
 Gaussian, Inc.
 Carnegie Office Park, Building 6, Pittsburgh, PA 15106 USA
  
  
 ---------------------------------------------------------------
 Warning -- This program may not be used in any manner that
 competes with the business of Gaussian, Inc. or will provide
 assistance to any competitor of Gaussian, Inc.  The licensee
 of this program is prohibited from giving any competitor of
 Gaussian, Inc. access to this program.  By using this program,
 the user acknowledges that Gaussian, Inc. is engaged in the
 business of creating and licensing software in the field of
 computational chemistry and represents and warrants to the
 licensee that it is not a competitor of Gaussian, Inc. and that
 it will not use this program in any manner prohibited above.
 ---------------------------------------------------------------
  

 Cite this work as:
 Gaussian 03, Revision B.04,
 M. J. Frisch, G. W. Trucks, H. B. Schlegel, G. E. Scuseria, 
 M. A. Robb, J. R. Cheeseman, J. A. Montgomery, Jr., T. Vreven, 
 K. N. Kudin, J. C. Burant, J. M. Millam, S. S. Iyengar, J. Tomasi, 
 V. Barone, B. Mennucci, M. Cossi, G. Scalmani, N. Rega, 
 G. A. Petersson, H. Nakatsuji, M. Hada, M. Ehara, K. Toyota, 
 R. Fukuda, J. Hasegawa, M. Ishida, T. Nakajima, Y. Honda, O. Kitao, 
 H. Nakai, M. Klene, X. Li, J. E. Knox, H. P. Hratchian, J. B. Cross, 
 C. Adamo, J. Jaramillo, R. Gomperts, R. E. Stratmann, O. Yazyev, 
 A. J. Austin, R. Cammi, C. Pomelli, J. W. Ochterski, P. Y. Ayala, 
 K. Morokuma, G. A. Voth, P. Salvador, J. J. Dannenberg, 
 V. G. Zakrzewski, S. Dapprich, A. D. Daniels, M. C. Strain, 
 O. Farkas, D. K. Malick, A. D. Rabuck, K. Raghavachari, 
 J. B. Foresman, J. V. Ortiz, Q. Cui, A. G. Baboul, S. Clifford, 
 J. Cioslowski, B. B. Stefanov, G. Liu, A. Liashenko, P. Piskorz, 
 I. Komaromi, R. L. Martin, D. J. Fox, T. Keith, M. A. Al-Laham, 
 C. Y. Peng, A. Nanayakkara, M. Challacombe, P. M. W. Gill, 
 B. Johnson, W. Chen, M. W. Wong, C. Gonzalez, and J. A. Pople, 
 Gaussian, Inc., Pittsburgh PA, 2003.
 
 ***************************************************
 Gaussian 03:  Sun64-SVR4-Unix-G03RevB.04 2-Jun-2003
                      2-Sep-2006 
 ***************************************************
 ------------------------------
 #P B3LYP/6-311+G(d,p) OPT FREQ
 ------------------------------
 1/14=-1,18=20,26=3,38=1/1,3;
 2/9=110,17=6,18=5,40=1/2;
 3/5=4,6=6,7=111,11=2,16=1,25=1,30=1,74=-5/1,2,3;
 4//1;
 5/5=2,38=5/2;
 6/7=2,8=2,9=2,10=2,28=1/1;
 7//1,2,3,16;
 1/14=-1,18=20/3(1);
 99//99;
 2/9=110/2;
 3/5=4,6=6,7=111,11=2,16=1,25=1,30=1,74=-5/1,2,3;
 4/5=5,16=3/1;
 5/5=2,38=5/2;
 7//1,2,3,16;
 1/14=-1,18=20/3(-5);
 2/9=110/2;
 6/7=2,8=2,9=2,10=2,19=2,28=1/1;
 99/9=1/99;
 Leave Link    1 at Sat Sep  2 08:20:11 2006, MaxMem=          0 cpu:       0.3
 (Enter /usr/local/Gaussian/g03/l101.exe)
 --------------
 bromobz basis2
 --------------
 Symbolic Z-matrix:
 Charge =  0 Multiplicity = 1
 C
 C                    1    B1
 C                    1    B2       2    A1
 C                    1    B3       2    A2       3    D1       0
 C                    1    B4       2    A3       3    D2       0
 C                    1    B5       2    A4       3    D3       0
 H                    1    B6       2    A5       3    D4       0
 H                    1    B7       2    A6       3    D5       0
 H                    1    B8       2    A7       3    D6       0
 Br                   1    B9       2    A8       3    D7       0
 H                    1    B10      2    A9       3    D8       0
 H                    1    B11      2    A10      3    D9       0
       Variables:
  A5                  120.12599                  
  D6                   -0.0137                   
  A6                   25.81515                  
  D7                   -0.02017                  
  A7                   20.74299                  
  D8                   -0.00847                  
  A8                   59.87469                  
  D9                   -0.00722                  
  A9                   99.00624                  
  A10                 145.56475                  
  B1                    1.39065                  
  B2                    2.41493                  
  B3                    2.76959                  
  B4                    2.41493                  
  B5                    1.39067                  
  B6                    1.08351                  
  B7                    2.15086                  
  B8                    3.39858                  
  B9                    4.68345                  
  B10                   3.39858                  
  B11                   2.15089                  
  D1                    0.00316                  
  D2                   -0.0034                   
  A1                   29.77501                  
  D3                   -0.01158                  
  A2                   59.87462                  
  D4                 -179.95088                  
  A3                   89.97443                  
  A4                  119.75079                  
  D5                  179.98634                  
 
                    Isotopes and Nuclear Properties:

  Atom         1           2           3           4           5           6           7           8           9          10
 IAtWgt=          12          12          12          12          12          12           1           1           1          79
 AtmWgt=  12.0000000  12.0000000  12.0000000  12.0000000  12.0000000  12.0000000   1.0078250   1.0078250   1.0078250  78.9183361
 IAtSpn=           0           0           0           0           0           0           1           1           1           3
 AtZEff=   0.0000000   0.0000000   0.0000000   0.0000000   0.0000000   0.0000000   0.0000000   0.0000000   0.0000000   0.0000000
 AtQMom=   0.0000000   0.0000000   0.0000000   0.0000000   0.0000000   0.0000000   0.0000000   0.0000000   0.0000000  29.3000000
 AtGFac=   0.0000000   0.0000000   0.0000000   0.0000000   0.0000000   0.0000000   2.7928460   2.7928460   2.7928460   2.1063990

  Atom        11          12
 IAtWgt=           1           1
 AtmWgt=   1.0078250   1.0078250
 IAtSpn=           1           1
 AtZEff=   0.0000000   0.0000000
 AtQMom=   0.0000000   0.0000000
 AtGFac=   2.7928460   2.7928460
 Leave Link  101 at Sat Sep  2 08:20:12 2006, MaxMem=    6291456 cpu:       0.1
 (Enter /usr/local/Gaussian/g03/l103.exe)

 GradGradGradGradGradGradGradGradGradGradGradGradGradGradGradGradGradGrad
 Berny optimization.
 Initialization pass.
                           ----------------------------
                           !    Initial Parameters    !
                           ! (Angstroms and Degrees)  !
 --------------------------                            --------------------------
 ! Name  Definition              Value          Derivative Info.                !
 --------------------------------------------------------------------------------
 ! R1    R(1,2)                  1.3906         estimate D2E/DX2                !
 ! R2    R(1,6)                  1.3907         estimate D2E/DX2                !
 ! R3    R(1,7)                  1.0835         estimate D2E/DX2                !
 ! R4    R(2,3)                  1.3914         estimate D2E/DX2                !
 ! R5    R(2,8)                  1.0839         estimate D2E/DX2                !
 ! R6    R(3,4)                  1.3891         estimate D2E/DX2                !
 ! R7    R(3,9)                  1.0822         estimate D2E/DX2                !
 ! R8    R(4,5)                  1.3891         estimate D2E/DX2                !
 ! R9    R(4,10)                 1.9139         estimate D2E/DX2                !
 ! R10   R(5,6)                  1.3914         estimate D2E/DX2                !
 ! R11   R(5,11)                 1.0822         estimate D2E/DX2                !
 ! R12   R(6,12)                 1.0839         estimate D2E/DX2                !
 ! A1    A(2,1,6)              119.7508         estimate D2E/DX2                !
 ! A2    A(2,1,7)              120.126          estimate D2E/DX2                !
 ! A3    A(6,1,7)              120.1232         estimate D2E/DX2                !
 ! A4    A(1,2,3)              120.4666         estimate D2E/DX2                !
 ! A5    A(1,2,8)              120.2198         estimate D2E/DX2                !
 ! A6    A(3,2,8)              119.3136         estimate D2E/DX2                !
 ! A7    A(2,3,4)              118.9828         estimate D2E/DX2                !
 ! A8    A(2,3,9)              120.7025         estimate D2E/DX2                !
 ! A9    A(4,3,9)              120.3147         estimate D2E/DX2                !
 ! A10   A(3,4,5)              121.3522         estimate D2E/DX2                !
 ! A11   A(3,4,10)             119.3241         estimate D2E/DX2                !
 ! A12   A(5,4,10)             119.3236         estimate D2E/DX2                !
 ! A13   A(4,5,6)              118.9838         estimate D2E/DX2                !
 ! A14   A(4,5,11)             120.3145         estimate D2E/DX2                !
 ! A15   A(6,5,11)             120.7017         estimate D2E/DX2                !
 ! A16   A(1,6,5)              120.4639         estimate D2E/DX2                !
 ! A17   A(1,6,12)             120.2215         estimate D2E/DX2                !
 ! A18   A(5,6,12)             119.3147         estimate D2E/DX2                !
 ! D1    D(6,1,2,3)             -0.0116         estimate D2E/DX2                !
 ! D2    D(6,1,2,8)           -179.9979         estimate D2E/DX2                !
 ! D3    D(7,1,2,3)           -179.9509         estimate D2E/DX2                !
 ! D4    D(7,1,2,8)              0.0628         estimate D2E/DX2                !
 ! D5    D(2,1,6,5)              0.0165         estimate D2E/DX2                !
 ! D6    D(2,1,6,12)           179.9943         estimate D2E/DX2                !
 ! D7    D(7,1,6,5)            179.9558         estimate D2E/DX2                !
 ! D8    D(7,1,6,12)            -0.0664         estimate D2E/DX2                !
 ! D9    D(1,2,3,4)             -0.0062         estimate D2E/DX2                !
 ! D10   D(1,2,3,9)            179.9823         estimate D2E/DX2                !
 ! D11   D(8,2,3,4)            179.9802         estimate D2E/DX2                !
 ! D12   D(8,2,3,9)             -0.0313         estimate D2E/DX2                !
 ! D13   D(2,3,4,5)              0.0196         estimate D2E/DX2                !
 ! D14   D(2,3,4,10)           179.9465         estimate D2E/DX2                !
 ! D15   D(9,3,4,5)           -179.9689         estimate D2E/DX2                !
 ! D16   D(9,3,4,10)            -0.0421         estimate D2E/DX2                !
 ! D17   D(3,4,5,6)             -0.0148         estimate D2E/DX2                !
 ! D18   D(3,4,5,11)           179.9717         estimate D2E/DX2                !
 ! D19   D(10,4,5,6)          -179.9417         estimate D2E/DX2                !
 ! D20   D(10,4,5,11)            0.0449         estimate D2E/DX2                !
 ! D21   D(4,5,6,1)             -0.0034         estimate D2E/DX2                !
 ! D22   D(4,5,6,12)          -179.9815         estimate D2E/DX2                !
 ! D23   D(11,5,6,1)          -179.9899         estimate D2E/DX2                !
 ! D24   D(11,5,6,12)            0.032          estimate D2E/DX2                !
 --------------------------------------------------------------------------------
 Trust Radius=3.00D-01 FncErr=1.00D-07 GrdErr=1.00D-06
 Number of steps in this run=  64 maximum allowed number of steps= 100.
 GradGradGradGradGradGradGradGradGradGradGradGradGradGradGradGradGradGrad

 Leave Link  103 at Sat Sep  2 08:20:13 2006, MaxMem=    6291456 cpu:       0.0
 (Enter /usr/local/Gaussian/g03/l202.exe)
                          Input orientation:                          
 ---------------------------------------------------------------------
 Center     Atomic     Atomic              Coordinates (Angstroms)
 Number     Number      Type              X           Y           Z
 ---------------------------------------------------------------------
    1          6             0        0.000000    0.000000    0.000000
    2          6             0        0.000000    0.000000    1.390646
    3          6             0        1.199241    0.000000    2.096113
    4          6             0        2.395498   -0.000132    1.390039
    5          6             0        2.414931    0.000143    0.001078
    6          6             0        1.207368    0.000244   -0.690090
    7          1             0       -0.937157    0.000803   -0.543819
    8          1             0       -0.936633   -0.000223    1.936213
    9          1             0        1.203697    0.000288    3.178277
   10         35             0        4.050851    0.001426    2.350588
   11          1             0        3.356683    0.000496   -0.532021
   12          1             0        1.216272    0.000153   -1.773979
 ---------------------------------------------------------------------
                    Distance matrix (angstroms):
                    1          2          3          4          5
     1  C    0.000000
     2  C    1.390646   0.000000
     3  C    2.414926   1.391353   0.000000
     4  C    2.769588   2.395498   1.389089   0.000000
     5  C    2.414931   2.786179   2.422204   1.389097   0.000000
     6  C    1.390669   2.405660   2.786214   2.395535   1.391374
     7  H    1.083515   2.149517   3.396092   3.853103   3.396087
     8  H    2.150861   1.083939   2.141852   3.376596   3.870107
     9  H    3.398578   2.155113   1.082174   2.148996   3.400248
    10  Br   4.683445   4.163037   2.862942   1.913857   2.862941
    11  H    3.398583   3.868330   3.400242   2.148998   1.082170
    12  H    2.150888   3.390305   3.870129   3.376623   2.141870
                    6          7          8          9         10
     6  C    0.000000
     7  H    2.149508   0.000000
     8  H    3.390311   2.480032   0.000000
     9  H    3.868369   4.293863   2.474619   0.000000
    10  Br   4.163066   5.766959   5.004669   2.965022   0.000000
    11  H    2.155120   4.293857   4.952247   4.289716   2.965013
    12  H    1.083926   2.480031   4.289583   4.952272   5.004686
                   11         12
    11  H    0.000000
    12  H    2.474635   0.000000
 Stoichiometry    C6H5Br
 Framework group  C1[X(C6H5Br)]
 Deg. of freedom    30
 Full point group                 C1      NOp   1
 Largest Abelian subgroup         C1      NOp   1
 Largest concise Abelian subgroup C1      NOp   1
                         Standard orientation:                         
 ---------------------------------------------------------------------
 Center     Atomic     Atomic              Coordinates (Angstroms)
 Number     Number      Type              X           Y           Z
 ---------------------------------------------------------------------
    1          6             0       -2.874963   -0.000014    0.000228
    2          6             0       -2.177003   -1.202823    0.000095
    3          6             0       -0.785675   -1.211106   -0.000352
    4          6             0       -0.105375   -0.000007   -0.000795
    5          6             0       -0.785681    1.211098   -0.000393
    6          6             0       -2.177030    1.202837    0.000156
    7          1             0       -3.958477   -0.000005    0.001380
    8          1             0       -2.713306   -2.144791    0.000116
    9          1             0       -0.238687   -2.144864   -0.000169
   10         35             0        1.808482    0.000003    0.000147
   11          1             0       -0.238693    2.144852   -0.000287
   12          1             0       -2.713328    2.144792    0.000166
 ---------------------------------------------------------------------
 Rotational constants (GHZ):      5.7123863      0.9862398      0.8410356
 Leave Link  202 at Sat Sep  2 08:20:14 2006, MaxMem=    6291456 cpu:       0.5
 (Enter /usr/local/Gaussian/g03/l301.exe)
 Standard basis: 6-311+G(d,p) (5D, 7F)
 There are   210 symmetry adapted basis functions of A   symmetry.
 Integral buffers will be    131072 words long.
 Raffenetti 2 integral format.
 Two-electron integral symmetry is turned on.
   210 basis functions,   350 primitive gaussians,   219 cartesian basis functions
    38 alpha electrons       38 beta electrons
       nuclear repulsion energy       430.6033593754 Hartrees.
 IExCor= 402 DFT=T Ex=B+HF Corr=LYP ExCW=0 ScaHFX=  0.200000
 ScaDFX=  0.800000  0.720000  1.000000  0.810000
 IRadAn=      0 IRanWt=     -1 IRanGd=            0 ICorTp=0
 NAtoms=   12 NActive=   12 NUniq=   12 SFac= 1.00D+00 NAtFMM=   60 Big=F
 Leave Link  301 at Sat Sep  2 08:20:15 2006, MaxMem=    6291456 cpu:       0.1
 (Enter /usr/local/Gaussian/g03/l302.exe)
 NPDir=0 NMtPBC=     1 NCelOv=     1 NCel=       1 NClECP=     1 NCelD=      1
         NCelK=      1 NCelE2=     1 NClLst=     1 CellRange=     0.0.
 One-electron integrals computed using PRISM.
 NBasis=   210 RedAO= T  NBF=   210
 NBsUse=   210 1.00D-06 NBFU=   210
 Precomputing XC quadrature grid using
 IXCGrd= 2 IRadAn=           0 IRanWt=          -1 IRanGd=           0.
 NRdTot=     771 NPtTot=      101480 NUsed=      106926 NTot=      106958
 NSgBfM=   219   219   219   219.
 Leave Link  302 at Sat Sep  2 08:20:23 2006, MaxMem=    6291456 cpu:       2.2
 (Enter /usr/local/Gaussian/g03/l303.exe)
 DipDrv:  MaxL=1.
 Leave Link  303 at Sat Sep  2 08:20:24 2006, MaxMem=    6291456 cpu:       0.2
 (Enter /usr/local/Gaussian/g03/l401.exe)
 Harris functional with IExCor=  402 diagonalized for initial guess.
 ExpMin= 3.50D-02 ExpMax= 4.40D+05 ExpMxC= 1.51D+04 IAcc=3 IRadAn=         5 AccDes= 0.00D+00
 HarFok:  IExCor= 402 AccDes= 0.00D+00 IRadAn=         5 IDoV=1
 ScaDFX=  1.000000  1.000000  1.000000  1.000000
 Harris En= -2805.97288446322    
 Initial guess orbital symmetries:
       Occupied  (A) (A) (A) (A) (A) (A) (A) (A) (A) (A) (A) (A)
                 (A) (A) (A) (A) (A) (A) (A) (A) (A) (A) (A) (A)
                 (A) (A) (A) (A) (A) (A) (A) (A) (A) (A) (A) (A)
                 (A) (A)
       Virtual   (A) (A) (A) (A) (A) (A) (A) (A) (A) (A) (A) (A)
                 (A) (A) (A) (A) (A) (A) (A) (A) (A) (A) (A) (A)
                 (A) (A) (A) (A) (A) (A) (A) (A) (A) (A) (A) (A)
                 (A) (A) (A) (A) (A) (A) (A) (A) (A) (A) (A) (A)
                 (A) (A) (A) (A) (A) (A) (A) (A) (A) (A) (A) (A)
                 (A) (A) (A) (A) (A) (A) (A) (A) (A) (A) (A) (A)
                 (A) (A) (A) (A) (A) (A) (A) (A) (A) (A) (A) (A)
                 (A) (A) (A) (A) (A) (A) (A) (A) (A) (A) (A) (A)
                 (A) (A) (A) (A) (A) (A) (A) (A) (A) (A) (A) (A)
                 (A) (A) (A) (A) (A) (A) (A) (A) (A) (A) (A) (A)
                 (A) (A) (A) (A) (A) (A) (A) (A) (A) (A) (A) (A)
                 (A) (A) (A) (A) (A) (A) (A) (A) (A) (A) (A) (A)
                 (A) (A) (A) (A) (A) (A) (A) (A) (A) (A) (A) (A)
                 (A) (A) (A) (A) (A) (A) (A) (A) (A) (A) (A) (A)
                 (A) (A) (A) (A)
 The electronic state of the initial guess is 1-A.
 Leave Link  401 at Sat Sep  2 08:23:38 2006, MaxMem=    6291456 cpu:      61.5
 (Enter /usr/local/Gaussian/g03/l502.exe)
 Closed shell SCF:
 Requested convergence on RMS density matrix=1.00D-08 within 128 cycles.
 Requested convergence on MAX density matrix=1.00D-06.
 Requested convergence on             energy=1.00D-06.
 No special actions if energy rises.
 Using DIIS extrapolation, IDIIS=  1040.
 Integral symmetry usage will be decided dynamically.
       106925 words used for storage of precomputed grid.
 IEnd=    294505 IEndB=    294505 NGot=   6291456 MDV=   6061772
 LenX=   6061772
 Fock matrices will be formed incrementally for  20 cycles.

 Cycle   1  Pass 1  IDiag  1:
 Petite list used in FoFDir.
 MinBra= 0 MaxBra= 2 Meth= 1.
 IRaf=       0 NMat=   1 IRICut=       1 DoRegI=T DoRafI=F ISym2E= 1 JSym2E=1.
 E= -2805.60615994374    
 DIIS: error= 5.50D-02 at cycle   1 NSaved=   1.
 NSaved= 1 IEnMin= 1 EnMin= -2805.60615994374     IErMin= 1 ErrMin= 5.50D-02
 ErrMax= 5.50D-02 EMaxC= 1.00D-01 BMatC= 2.98D-01 BMatP= 2.98D-01
 IDIUse=3 WtCom= 4.50D-01 WtEn= 5.50D-01
 Coeff-Com:  0.100D+01
 Coeff-En:   0.100D+01
 Coeff:      0.100D+01
 Gap=     0.417 Goal=   None    Shift=    0.000
 GapD=    0.417 DampG=2.000 DampE=0.500 DampFc=1.0000 IDamp=-1.
 RMSDP=9.33D-03 MaxDP=4.00D-01              OVMax= 2.54D-01

 Cycle   2  Pass 1  IDiag  1:
 RMSU=  9.24D-03    CP:  1.05D+00
 E= -2805.40415787795     Delta-E=        0.202002065790 Rises=F Damp=F
 DIIS: error= 6.51D-02 at cycle   2 NSaved=   2.
 NSaved= 2 IEnMin= 1 EnMin= -2805.60615994374     IErMin= 1 ErrMin= 5.50D-02
 ErrMax= 6.51D-02 EMaxC= 1.00D-01 BMatC= 4.37D-01 BMatP= 2.98D-01
 IDIUse=2 WtCom= 0.00D+00 WtEn= 1.00D+00
 Coeff-En:   0.635D+00 0.365D+00
 Coeff:      0.635D+00 0.365D+00
 Gap=     0.256 Goal=   None    Shift=    0.000
 RMSDP=6.58D-03 MaxDP=3.25D-01 DE= 2.02D-01 OVMax= 1.48D-01

 Cycle   3  Pass 1  IDiag  1:
 RMSU=  2.77D-03    CP:  1.04D+00  3.54D-01
 E= -2805.84938787048     Delta-E=       -0.445229992539 Rises=F Damp=F
 DIIS: error= 8.00D-03 at cycle   3 NSaved=   3.
 NSaved= 3 IEnMin= 3 EnMin= -2805.84938787048     IErMin= 3 ErrMin= 8.00D-03
 ErrMax= 8.00D-03 EMaxC= 1.00D-01 BMatC= 4.74D-03 BMatP= 2.98D-01
 IDIUse=3 WtCom= 9.20D-01 WtEn= 8.00D-02
 Coeff-Com:  0.800D-01-0.239D-01 0.944D+00
 Coeff-En:   0.000D+00 0.000D+00 0.100D+01
 Coeff:      0.736D-01-0.220D-01 0.948D+00
 Gap=     0.224 Goal=   None    Shift=    0.000
 RMSDP=8.33D-04 MaxDP=3.81D-02 DE=-4.45D-01 OVMax= 1.74D-02

 Cycle   4  Pass 1  IDiag  1:
 RMSU=  6.47D-04    CP:  1.04D+00  3.45D-01  8.13D-01
 E= -2805.85326272693     Delta-E=       -0.003874856441 Rises=F Damp=F
 DIIS: error= 1.50D-03 at cycle   4 NSaved=   4.
 NSaved= 4 IEnMin= 4 EnMin= -2805.85326272693     IErMin= 4 ErrMin= 1.50D-03
 ErrMax= 1.50D-03 EMaxC= 1.00D-01 BMatC= 6.16D-04 BMatP= 4.74D-03
 IDIUse=3 WtCom= 9.85D-01 WtEn= 1.50D-02
 Coeff-Com:  0.175D-01-0.234D-01 0.410D+00 0.596D+00
 Coeff-En:   0.000D+00 0.000D+00 0.000D+00 0.100D+01
 Coeff:      0.173D-01-0.231D-01 0.404D+00 0.602D+00
 Gap=     0.223 Goal=   None    Shift=    0.000
 RMSDP=3.90D-04 MaxDP=1.98D-02 DE=-3.87D-03 OVMax= 8.18D-03

 Cycle   5  Pass 1  IDiag  1:
 RMSU=  2.62D-04    CP:  1.04D+00  3.23D-01  8.68D-01  8.04D-01
 E= -2805.85370317364     Delta-E=       -0.000440446712 Rises=F Damp=F
 DIIS: error= 8.37D-04 at cycle   5 NSaved=   5.
 NSaved= 5 IEnMin= 5 EnMin= -2805.85370317364     IErMin= 5 ErrMin= 8.37D-04
 ErrMax= 8.37D-04 EMaxC= 1.00D-01 BMatC= 1.38D-04 BMatP= 6.16D-04
 IDIUse=3 WtCom= 9.92D-01 WtEn= 8.37D-03
 Coeff-Com:  0.286D-02-0.121D-01 0.148D+00 0.351D+00 0.510D+00
 Coeff-En:   0.000D+00 0.000D+00 0.000D+00 0.146D+00 0.854D+00
 Coeff:      0.284D-02-0.120D-01 0.146D+00 0.350D+00 0.513D+00
 Gap=     0.223 Goal=   None    Shift=    0.000
 RMSDP=9.03D-05 MaxDP=2.81D-03 DE=-4.40D-04 OVMax= 4.28D-03

 Cycle   6  Pass 1  IDiag  1:
 RMSU=  5.13D-05    CP:  1.04D+00  3.22D-01  8.75D-01  7.44D-01  7.73D-01
 E= -2805.85381742838     Delta-E=       -0.000114254743 Rises=F Damp=F
 DIIS: error= 2.81D-04 at cycle   6 NSaved=   6.
 NSaved= 6 IEnMin= 6 EnMin= -2805.85381742838     IErMin= 6 ErrMin= 2.81D-04
 ErrMax= 2.81D-04 EMaxC= 1.00D-01 BMatC= 4.67D-06 BMatP= 1.38D-04
 IDIUse=3 WtCom= 9.97D-01 WtEn= 2.81D-03
 Coeff-Com:  0.142D-02-0.634D-02 0.749D-01 0.184D+00 0.285D+00 0.461D+00
 Coeff-En:   0.000D+00 0.000D+00 0.000D+00 0.000D+00 0.000D+00 0.100D+01
 Coeff:      0.141D-02-0.632D-02 0.747D-01 0.183D+00 0.284D+00 0.463D+00
 Gap=     0.223 Goal=   None    Shift=    0.000
 RMSDP=2.93D-05 MaxDP=1.21D-03 DE=-1.14D-04 OVMax= 1.08D-03

 Cycle   7  Pass 1  IDiag  1:
 RMSU=  1.77D-05    CP:  1.04D+00  3.21D-01  8.79D-01  7.45D-01  8.34D-01
                    CP:  8.60D-01
 E= -2805.85382177082     Delta-E=       -0.000004342442 Rises=F Damp=F
 DIIS: error= 1.31D-04 at cycle   7 NSaved=   7.
 NSaved= 7 IEnMin= 7 EnMin= -2805.85382177082     IErMin= 7 ErrMin= 1.31D-04
 ErrMax= 1.31D-04 EMaxC= 1.00D-01 BMatC= 6.39D-07 BMatP= 4.67D-06
 IDIUse=3 WtCom= 9.99D-01 WtEn= 1.31D-03
 Coeff-Com:  0.226D-03-0.115D-02 0.120D-01 0.353D-01 0.560D-01 0.269D+00
 Coeff-Com:  0.629D+00
 Coeff-En:   0.000D+00 0.000D+00 0.000D+00 0.000D+00 0.000D+00 0.126D+00
 Coeff-En:   0.874D+00
 Coeff:      0.226D-03-0.115D-02 0.120D-01 0.353D-01 0.560D-01 0.268D+00
 Coeff:      0.629D+00
 Gap=     0.223 Goal=   None    Shift=    0.000
 RMSDP=6.67D-06 MaxDP=2.88D-04 DE=-4.34D-06 OVMax= 4.63D-04

 Cycle   8  Pass 1  IDiag  1:
 RMSU=  4.09D-06    CP:  1.04D+00  3.21D-01  8.79D-01  7.46D-01  8.20D-01
                    CP:  8.74D-01  8.60D-01
 E= -2805.85382238584     Delta-E=       -0.000000615015 Rises=F Damp=F
 DIIS: error= 3.61D-05 at cycle   8 NSaved=   8.
 NSaved= 8 IEnMin= 8 EnMin= -2805.85382238584     IErMin= 8 ErrMin= 3.61D-05
 ErrMax= 3.61D-05 EMaxC= 1.00D-01 BMatC= 1.10D-07 BMatP= 6.39D-07
 IDIUse=1 WtCom= 1.00D+00 WtEn= 0.00D+00
 Coeff-Com: -0.173D-04-0.196D-03 0.748D-03 0.682D-02 0.109D-01 0.128D+00
 Coeff-Com:  0.378D+00 0.476D+00
 Coeff:     -0.173D-04-0.196D-03 0.748D-03 0.682D-02 0.109D-01 0.128D+00
 Coeff:      0.378D+00 0.476D+00
 Gap=     0.223 Goal=   None    Shift=    0.000
 RMSDP=2.24D-06 MaxDP=7.08D-05 DE=-6.15D-07 OVMax= 1.07D-04

 Cycle   9  Pass 1  IDiag  1:
 RMSU=  1.06D-06    CP:  1.04D+00  3.21D-01  8.79D-01  7.47D-01  8.25D-01
                    CP:  8.81D-01  8.92D-01  7.05D-01
 E= -2805.85382246678     Delta-E=       -0.000000080947 Rises=F Damp=F
 DIIS: error= 3.43D-06 at cycle   9 NSaved=   9.
 NSaved= 9 IEnMin= 9 EnMin= -2805.85382246678     IErMin= 9 ErrMin= 3.43D-06
 ErrMax= 3.43D-06 EMaxC= 1.00D-01 BMatC= 1.05D-09 BMatP= 1.10D-07
 IDIUse=1 WtCom= 1.00D+00 WtEn= 0.00D+00
 Coeff-Com: -0.107D-04-0.764D-05-0.289D-03 0.761D-04-0.342D-03 0.295D-01
 Coeff-Com:  0.757D-01 0.994D-01 0.796D+00
 Coeff:     -0.107D-04-0.764D-05-0.289D-03 0.761D-04-0.342D-03 0.295D-01
 Coeff:      0.757D-01 0.994D-01 0.796D+00
 Gap=     0.223 Goal=   None    Shift=    0.000
 RMSDP=6.41D-07 MaxDP=3.03D-05 DE=-8.09D-08 OVMax= 1.34D-05

 Cycle  10  Pass 1  IDiag  1:
 RMSU=  1.94D-07    CP:  1.04D+00  3.21D-01  8.79D-01  7.47D-01  8.26D-01
                    CP:  8.85D-01  8.84D-01  6.86D-01  1.15D+00
 E= -2805.85382246789     Delta-E=       -0.000000001110 Rises=F Damp=F
 DIIS: error= 1.25D-06 at cycle  10 NSaved=  10.
 NSaved=10 IEnMin=10 EnMin= -2805.85382246789     IErMin=10 ErrMin= 1.25D-06
 ErrMax= 1.25D-06 EMaxC= 1.00D-01 BMatC= 2.00D-10 BMatP= 1.05D-09
 IDIUse=1 WtCom= 1.00D+00 WtEn= 0.00D+00
 Coeff-Com: -0.373D-05 0.622D-05-0.129D-03-0.209D-03-0.878D-03 0.658D-02
 Coeff-Com:  0.150D-01 0.212D-01 0.343D+00 0.615D+00
 Coeff:     -0.373D-05 0.622D-05-0.129D-03-0.209D-03-0.878D-03 0.658D-02
 Coeff:      0.150D-01 0.212D-01 0.343D+00 0.615D+00
 Gap=     0.223 Goal=   None    Shift=    0.000
 RMSDP=1.32D-07 MaxDP=5.23D-06 DE=-1.11D-09 OVMax= 7.36D-06

 Cycle  11  Pass 1  IDiag  1:
 RMSU=  7.45D-08    CP:  1.04D+00  3.21D-01  8.79D-01  7.47D-01  8.26D-01
                    CP:  8.85D-01  8.88D-01  6.89D-01  1.18D+00  8.93D-01
 E= -2805.85382246807     Delta-E=       -0.000000000172 Rises=F Damp=F
 DIIS: error= 6.12D-07 at cycle  11 NSaved=  11.
 NSaved=11 IEnMin=11 EnMin= -2805.85382246807     IErMin=11 ErrMin= 6.12D-07
 ErrMax= 6.12D-07 EMaxC= 1.00D-01 BMatC= 3.69D-11 BMatP= 2.00D-10
 IDIUse=1 WtCom= 1.00D+00 WtEn= 0.00D+00
 Coeff-Com: -0.139D-05 0.538D-05-0.435D-04-0.139D-03-0.572D-03-0.525D-03
 Coeff-Com: -0.231D-02-0.157D-02 0.860D-01 0.344D+00 0.575D+00
 Coeff:     -0.139D-05 0.538D-05-0.435D-04-0.139D-03-0.572D-03-0.525D-03
 Coeff:     -0.231D-02-0.157D-02 0.860D-01 0.344D+00 0.575D+00
 Gap=     0.223 Goal=   None    Shift=    0.000
 RMSDP=5.93D-08 MaxDP=2.10D-06 DE=-1.72D-10 OVMax= 1.58D-06

 Cycle  12  Pass 1  IDiag  1:
 RMSU=  1.92D-08    CP:  1.04D+00  3.21D-01  8.79D-01  7.47D-01  8.26D-01
                    CP:  8.86D-01  8.89D-01  6.93D-01  1.19D+00  9.75D-01
                    CP:  9.85D-01
 E= -2805.85382246811     Delta-E=       -0.000000000046 Rises=F Damp=F
 DIIS: error= 7.62D-08 at cycle  12 NSaved=  12.
 NSaved=12 IEnMin=12 EnMin= -2805.85382246811     IErMin=12 ErrMin= 7.62D-08
 ErrMax= 7.62D-08 EMaxC= 1.00D-01 BMatC= 7.47D-13 BMatP= 3.69D-11
 IDIUse=1 WtCom= 1.00D+00 WtEn= 0.00D+00
 Coeff-Com:  0.629D-07 0.421D-07-0.163D-05-0.878D-05-0.483D-04-0.402D-03
 Coeff-Com: -0.109D-02-0.205D-02-0.161D-01 0.480D-02 0.111D-01 0.100D+01
 Coeff:      0.629D-07 0.421D-07-0.163D-05-0.878D-05-0.483D-04-0.402D-03
 Coeff:     -0.109D-02-0.205D-02-0.161D-01 0.480D-02 0.111D-01 0.100D+01
 Gap=     0.223 Goal=   None    Shift=    0.000
 RMSDP=2.37D-08 MaxDP=1.08D-06 DE=-4.64D-11 OVMax= 2.92D-07

 Cycle  13  Pass 1  IDiag  1:
 RMSU=  4.55D-09    CP:  1.04D+00  3.21D-01  8.79D-01  7.47D-01  8.26D-01
                    CP:  8.86D-01  8.90D-01  6.93D-01  1.19D+00  9.93D-01
                    CP:  1.00D+00  9.56D-01
 E= -2805.85382246811     Delta-E=       -0.000000000001 Rises=F Damp=F
 DIIS: error= 1.06D-08 at cycle  13 NSaved=  13.
 NSaved=13 IEnMin=13 EnMin= -2805.85382246811     IErMin=13 ErrMin= 1.06D-08
 ErrMax= 1.06D-08 EMaxC= 1.00D-01 BMatC= 1.63D-14 BMatP= 7.47D-13
 IDIUse=1 WtCom= 1.00D+00 WtEn= 0.00D+00
 Coeff-Com:  0.437D-07-0.732D-08 0.638D-07 0.454D-06-0.995D-05-0.108D-03
 Coeff-Com: -0.275D-03-0.569D-03-0.507D-02-0.302D-03-0.461D-02 0.273D+00
 Coeff-Com:  0.738D+00
 Coeff:      0.437D-07-0.732D-08 0.638D-07 0.454D-06-0.995D-05-0.108D-03
 Coeff:     -0.275D-03-0.569D-03-0.507D-02-0.302D-03-0.461D-02 0.273D+00
 Coeff:      0.738D+00
 Gap=     0.223 Goal=   None    Shift=    0.000
 RMSDP=3.73D-09 MaxDP=1.92D-07 DE=-9.09D-13 OVMax= 7.31D-08

 SCF Done:  E(RB+HF-LYP) =  -2805.85382247     A.U. after   13 cycles
             Convg  =    0.3726D-08             -V/T =  2.0015
             S**2   =   0.0000
 KE= 2.801757945460D+03 PE=-7.551275841150D+03 EE= 1.513060713846D+03
 Leave Link  502 at Sat Sep  2 09:37:52 2006, MaxMem=    6291456 cpu:    1417.5
 (Enter /usr/local/Gaussian/g03/l601.exe)
 Copying SCF densities to generalized density rwf, ISCF=0 IROHF=0.

 **********************************************************************

            Population analysis using the SCF density.

 **********************************************************************

 Orbital symmetries:
       Occupied  (A) (A) (A) (A) (A) (A) (A) (A) (A) (A) (A) (A)
                 (A) (A) (A) (A) (A) (A) (A) (A) (A) (A) (A) (A)
                 (A) (A) (A) (A) (A) (A) (A) (A) (A) (A) (A) (A)
                 (A) (A)
       Virtual   (A) (A) (A) (A) (A) (A) (A) (A) (A) (A) (A) (A)
                 (A) (A) (A) (A) (A) (A) (A) (A) (A) (A) (A) (A)
                 (A) (A) (A) (A) (A) (A) (A) (A) (A) (A) (A) (A)
                 (A) (A) (A) (A) (A) (A) (A) (A) (A) (A) (A) (A)
                 (A) (A) (A) (A) (A) (A) (A) (A) (A) (A) (A) (A)
                 (A) (A) (A) (A) (A) (A) (A) (A) (A) (A) (A) (A)
                 (A) (A) (A) (A) (A) (A) (A) (A) (A) (A) (A) (A)
                 (A) (A) (A) (A) (A) (A) (A) (A) (A) (A) (A) (A)
                 (A) (A) (A) (A) (A) (A) (A) (A) (A) (A) (A) (A)
                 (A) (A) (A) (A) (A) (A) (A) (A) (A) (A) (A) (A)
                 (A) (A) (A) (A) (A) (A) (A) (A) (A) (A) (A) (A)
                 (A) (A) (A) (A) (A) (A) (A) (A) (A) (A) (A) (A)
                 (A) (A) (A) (A) (A) (A) (A) (A) (A) (A) (A) (A)
                 (A) (A) (A) (A) (A) (A) (A) (A) (A) (A) (A) (A)
                 (A) (A) (A) (A)
 The electronic state is 1-A.
 Alpha  occ. eigenvalues -- -482.83228 -62.48518 -56.30551 -56.30167 -56.30155
 Alpha  occ. eigenvalues --  -10.23923 -10.19462 -10.19460 -10.19293 -10.19289
 Alpha  occ. eigenvalues --  -10.18958  -8.69489  -6.52625  -6.51342  -6.51317
 Alpha  occ. eigenvalues --   -2.63720  -2.63351  -2.63335  -2.62315  -2.62314
 Alpha  occ. eigenvalues --   -0.88689  -0.81391  -0.76981  -0.73656  -0.62903
 Alpha  occ. eigenvalues --   -0.61026  -0.53514  -0.47800  -0.47211  -0.44457
 Alpha  occ. eigenvalues --   -0.42967  -0.39930  -0.37024  -0.36349  -0.32266
 Alpha  occ. eigenvalues --   -0.29580  -0.27555  -0.25411
 Alpha virt. eigenvalues --   -0.03154  -0.03106  -0.01893   0.00124   0.01826
 Alpha virt. eigenvalues --    0.01915   0.04448   0.04545   0.04590   0.05324
 Alpha virt. eigenvalues --    0.07221   0.07286   0.07954   0.08381   0.09994
 Alpha virt. eigenvalues --    0.11311   0.11790   0.12145   0.13160   0.13355
 Alpha virt. eigenvalues --    0.13818   0.15210   0.15536   0.16334   0.17568
 Alpha virt. eigenvalues --    0.18356   0.18926   0.19188   0.19342   0.20192
 Alpha virt. eigenvalues --    0.21203   0.22525   0.23188   0.23862   0.24015
 Alpha virt. eigenvalues --    0.25434   0.27397   0.29415   0.30532   0.31143
 Alpha virt. eigenvalues --    0.31580   0.39292   0.41911   0.42464   0.44485
 Alpha virt. eigenvalues --    0.48558   0.50821   0.51921   0.52678   0.52918
 Alpha virt. eigenvalues --    0.53013   0.53992   0.56096   0.58230   0.59071
 Alpha virt. eigenvalues --    0.59160   0.59892   0.59912   0.63530   0.64925
 Alpha virt. eigenvalues --    0.67280   0.67741   0.70666   0.70815   0.71666
 Alpha virt. eigenvalues --    0.72807   0.73557   0.77333   0.81454   0.81578
 Alpha virt. eigenvalues --    0.81986   0.82098   0.84827   0.85090   0.86559
 Alpha virt. eigenvalues --    0.89996   0.96634   0.97501   0.98933   0.99394
 Alpha virt. eigenvalues --    1.06058   1.06353   1.09124   1.09709   1.12336
 Alpha virt. eigenvalues --    1.25560   1.29033   1.33503   1.46331   1.48703
 Alpha virt. eigenvalues --    1.49986   1.52913   1.55609   1.55641   1.60595
 Alpha virt. eigenvalues --    1.63603   1.63807   1.66875   1.71168   1.72642
 Alpha virt. eigenvalues --    1.76040   1.80392   1.84354   1.91070   1.91169
 Alpha virt. eigenvalues --    1.92173   1.93108   1.93888   1.96190   1.98370
 Alpha virt. eigenvalues --    2.01332   2.01911   2.02929   2.06852   2.12160
 Alpha virt. eigenvalues --    2.24789   2.27721   2.33101   2.33495   2.36244
 Alpha virt. eigenvalues --    2.38123   2.39037   2.49696   2.60822   2.63941
 Alpha virt. eigenvalues --    2.64356   2.66966   2.69665   2.72795   2.73796
 Alpha virt. eigenvalues --    2.74219   2.77076   2.77488   2.77696   2.83635
 Alpha virt. eigenvalues --    2.86777   2.87331   2.91893   3.06548   3.10750
 Alpha virt. eigenvalues --    3.11578   3.32773   3.34685   3.47328   3.48596
 Alpha virt. eigenvalues --    3.62440   3.74273   3.96895   4.03114   4.10944
 Alpha virt. eigenvalues --    4.12932   4.13907   4.18970   4.21623   4.37159
 Alpha virt. eigenvalues --    4.57144   4.83257   6.72344   7.55322   7.67277
 Alpha virt. eigenvalues --    7.72671  23.51492  23.91148  23.95454  24.06745
 Alpha virt. eigenvalues --   24.08809  24.18924  47.98561 289.75101 289.87236
 Alpha virt. eigenvalues --  289.949541020.78807
          Condensed to atoms (all electrons):
              1          2          3          4          5          6
     1  C    5.114113   0.399647   0.176186  -0.399922   0.176152   0.399635
     2  C    0.399647   5.302533   0.218312   0.068637  -0.501588   0.089687
     3  C    0.176186   0.218312   6.088119   0.083925  -0.039279  -0.501558
     4  C   -0.399922   0.068637   0.083925   5.664143   0.083953   0.068641
     5  C    0.176152  -0.501588  -0.039279   0.083953   6.088061   0.218373
     6  C    0.399635   0.089687  -0.501558   0.068641   0.218373   5.302470
     7  H    0.354209   0.018820  -0.031027   0.022380  -0.031024   0.018812
     8  H   -0.017193   0.409972  -0.046702   0.010602  -0.006335   0.000421
     9  H   -0.008582   0.014729   0.363989  -0.009339  -0.017118   0.009312
    10  Br   0.059699   0.004751   0.137920  -0.203455   0.137920   0.004751
    11  H   -0.008581   0.009314  -0.017123  -0.009341   0.363995   0.014727
    12  H   -0.017197   0.000423  -0.006337   0.010600  -0.046700   0.409977
              7          8          9         10         11         12
     1  C    0.354209  -0.017193  -0.008582   0.059699  -0.008581  -0.017197
     2  C    0.018820   0.409972   0.014729   0.004751   0.009314   0.000423
     3  C   -0.031027  -0.046702   0.363989   0.137920  -0.017123  -0.006337
     4  C    0.022380   0.010602  -0.009339  -0.203455  -0.009341   0.010600
     5  C   -0.031024  -0.006335  -0.017118   0.137920   0.363995  -0.046700
     6  C    0.018812   0.000421   0.009312   0.004751   0.014727   0.409977
     7  H    0.533788  -0.007816  -0.000205  -0.000328  -0.000205  -0.007816
     8  H   -0.007816   0.530859  -0.007755  -0.000035   0.000059  -0.000294
     9  H   -0.000205  -0.007755   0.517926  -0.007438  -0.000148   0.000059
    10  Br  -0.000328  -0.000035  -0.007438  35.019366  -0.007437  -0.000034
    11  H   -0.000205   0.000059  -0.000148  -0.007437   0.517925  -0.007754
    12  H   -0.007816  -0.000294   0.000059  -0.000034  -0.007754   0.530852
 Mulliken atomic charges:
              1
     1  C   -0.228165
     2  C   -0.035235
     3  C   -0.426425
     4  C    0.609176
     5  C   -0.426409
     6  C   -0.035248
     7  H    0.130412
     8  H    0.134217
     9  H    0.144569
    10  Br  -0.145680
    11  H    0.144569
    12  H    0.134220
 Sum of Mulliken charges=   0.00000
 Atomic charges with hydrogens summed into heavy atoms:
              1
     1  C   -0.097754
     2  C    0.098982
     3  C   -0.281856
     4  C    0.609176
     5  C   -0.281840
     6  C    0.098972
     7  H    0.000000
     8  H    0.000000
     9  H    0.000000
    10  Br  -0.145680
    11  H    0.000000
    12  H    0.000000
 Sum of Mulliken charges=   0.00000
 Electronic spatial extent (au):  <R**2>=  1230.9838
 Charge=     0.0000 electrons
 Dipole moment (field-independent basis, Debye):
    X=    -1.8464    Y=     0.0000    Z=     0.0011  Tot=     1.8464
 Quadrupole moment (field-independent basis, Debye-Ang):
   XX=   -49.4433   YY=   -48.5683   ZZ=   -57.7484
   XY=    -0.0002   XZ=    -0.0028   YZ=    -0.0002
 Traceless Quadrupole moment (field-independent basis, Debye-Ang):
   XX=     2.4767   YY=     3.3517   ZZ=    -5.8284
   XY=    -0.0002   XZ=    -0.0028   YZ=    -0.0002
 Octapole moment (field-independent basis, Debye-Ang**2):
  XXX=    43.6972  YYY=     0.0002  ZZZ=     0.0077  XYY=    11.8113
  XXY=     0.0007  XXZ=     0.0246  XZZ=    25.3761  YZZ=     0.0000
  YYZ=     0.0028  XYZ=    -0.0001
 Hexadecapole moment (field-independent basis, Debye-Ang**3):
 XXXX= -1034.2249 YYYY=  -288.0832 ZZZZ=   -70.7032 XXXY=    -0.0019
 XXXZ=    -0.0490 YYYX=    -0.0009 YYYZ=    -0.0011 ZZZX=     0.0076
 ZZZY=    -0.0002 XXYY=  -227.6182 XXZZ=  -221.6280 YYZZ=   -71.5321
 XXYZ=     0.0004 YYXZ=     0.0010 ZZXY=     0.0001
 N-N= 4.306033593754D+02 E-N=-7.551275842127D+03  KE= 2.801757945460D+03
 No NMR shielding tensors so no spin-rotation constants.
 Leave Link  601 at Sat Sep  2 09:37:58 2006, MaxMem=    6291456 cpu:       1.3
 (Enter /usr/local/Gaussian/g03/l701.exe)
 Compute integral first derivatives.
 ... and contract with generalized density number  0.
 Leave Link  701 at Sat Sep  2 09:38:01 2006, MaxMem=    6291456 cpu:       1.1
 (Enter /usr/local/Gaussian/g03/l702.exe)
 L702 exits ... SP integral derivatives will be done elsewhere.
 Leave Link  702 at Sat Sep  2 09:38:02 2006, MaxMem=    6291456 cpu:       0.0
 (Enter /usr/local/Gaussian/g03/l703.exe)
 Compute integral first derivatives, UseDBF=F.
 Integral derivatives from FoFDir, PRISM(SPDF).
 Symmetry not used in FoFDir.
 MinBra= 0 MaxBra= 2 Meth= 1.
 IRaf=       0 NMat=   1 IRICut=       1 DoRegI=T DoRafI=F ISym2E= 0 JSym2E=0.
 Leave Link  703 at Sat Sep  2 10:00:11 2006, MaxMem=    6291456 cpu:     422.0
 (Enter /usr/local/Gaussian/g03/l716.exe)
 Dipole        =-7.26434533D-01 3.44971324D-06 4.19085459D-04
 ***** Axes restored to original set *****
 -------------------------------------------------------------------
 Center     Atomic                   Forces (Hartrees/Bohr)
 Number     Number              X              Y              Z
 -------------------------------------------------------------------
    1          6          -0.002417701    0.000073038   -0.001425793
    2          6          -0.002343439   -0.000035701    0.001328484
    3          6           0.000226370   -0.000017598    0.002852387
    4          6           0.000309234    0.000085259    0.000172374
    5          6           0.002574649   -0.000011163   -0.001225971
    6          6          -0.000006113   -0.000048978   -0.002656320
    7          1          -0.000154556   -0.000041067   -0.000086554
    8          1          -0.000150021    0.000018473    0.000091217
    9          1          -0.000062905   -0.000010166    0.000217147
   10         35           0.001860150   -0.000024679    0.001079557
   11          1           0.000159935   -0.000008188   -0.000163013
   12          1           0.000004397    0.000020772   -0.000183514
 -------------------------------------------------------------------
 Cartesian Forces:  Max     0.002852387 RMS     0.001098990
 Leave Link  716 at Sat Sep  2 10:00:12 2006, MaxMem=    6291456 cpu:       0.0
 (Enter /usr/local/Gaussian/g03/l103.exe)

 GradGradGradGradGradGradGradGradGradGradGradGradGradGradGradGradGradGrad
 Berny optimization.
 Internal  Forces:  Max     0.002935962 RMS     0.001009048
 Search for a local minimum.
 Step number   1 out of a maximum of  64
 All quantities printed in internal units (Hartrees-Bohrs-Radians)
 Second derivative matrix not updated -- first step.
     Eigenvalues ---    0.02207   0.02207   0.02210   0.02211   0.02212
     Eigenvalues ---    0.02217   0.02220   0.02228   0.02233   0.16000
     Eigenvalues ---    0.16000   0.16000   0.16000   0.16000   0.17590
     Eigenvalues ---    0.22000   0.22000   0.23498   0.25000   0.35523
     Eigenvalues ---    0.35524   0.35573   0.35733   0.35733   0.42709
     Eigenvalues ---    0.42968   0.47082   0.47179   0.47343   0.47422
     Eigenvalues --- 1000.000001000.000001000.000001000.000001000.00000
     Eigenvalues --- 1000.000001000.000001000.000001000.000001000.00000
     Eigenvalues --- 1000.000001000.000001000.000001000.000001000.00000
     Eigenvalues --- 1000.000001000.000001000.000001000.000001000.00000
     Eigenvalues --- 1000.000001000.000001000.000001000.00000
 RFO step:  Lambda=-1.33324393D-04.
 Linear search not attempted -- first point.
 Iteration  1 RMS(Cart)=  0.00376687 RMS(Int)=  0.00000110
 Iteration  2 RMS(Cart)=  0.00000102 RMS(Int)=  0.00000011
 Iteration  3 RMS(Cart)=  0.00000000 RMS(Int)=  0.00000011
 Variable       Old X    -DE/DX   Delta X   Delta X   Delta X     New X
                                 (Linear)    (Quad)   (Total)
    R1        2.62794   0.00293   0.00000   0.00621   0.00621   2.63416
    R2        2.62798   0.00292   0.00000   0.00618   0.00618   2.63417
    R3        2.04755   0.00018   0.00000   0.00050   0.00050   2.04804
    R4        2.62928   0.00294   0.00000   0.00624   0.00624   2.63551
    R5        2.04835   0.00018   0.00000   0.00049   0.00049   2.04884
    R6        2.62500   0.00282   0.00000   0.00593   0.00593   2.63093
    R7        2.04501   0.00022   0.00000   0.00061   0.00061   2.04562
    R8        2.62501   0.00281   0.00000   0.00591   0.00591   2.63093
    R9        3.61667   0.00215   0.00000   0.01222   0.01222   3.62888
   R10        2.62932   0.00292   0.00000   0.00620   0.00620   2.63551
   R11        2.04501   0.00022   0.00000   0.00061   0.00061   2.04562
   R12        2.04832   0.00018   0.00000   0.00052   0.00052   2.04884
    A1        2.09005  -0.00003   0.00000  -0.00010  -0.00010   2.08994
    A2        2.09659   0.00001   0.00000   0.00003   0.00003   2.09663
    A3        2.09655   0.00002   0.00000   0.00007   0.00007   2.09661
    A4        2.10254   0.00001   0.00000   0.00010   0.00010   2.10264
    A5        2.09823   0.00000   0.00000  -0.00003  -0.00003   2.09820
    A6        2.08242  -0.00001   0.00000  -0.00007  -0.00007   2.08235
    A7        2.07664  -0.00007   0.00000  -0.00033  -0.00033   2.07631
    A8        2.10666  -0.00003   0.00000  -0.00024  -0.00024   2.10641
    A9        2.09989   0.00010   0.00000   0.00057   0.00057   2.10046
   A10        2.11800   0.00014   0.00000   0.00054   0.00054   2.11853
   A11        2.08260  -0.00007   0.00000  -0.00027  -0.00027   2.08233
   A12        2.08259  -0.00007   0.00000  -0.00027  -0.00027   2.08232
   A13        2.07666  -0.00007   0.00000  -0.00034  -0.00034   2.07632
   A14        2.09988   0.00010   0.00000   0.00057   0.00057   2.10046
   A15        2.10664  -0.00003   0.00000  -0.00023  -0.00023   2.10641
   A16        2.10249   0.00003   0.00000   0.00014   0.00014   2.10263
   A17        2.09826  -0.00001   0.00000  -0.00005  -0.00005   2.09821
   A18        2.08243  -0.00002   0.00000  -0.00009  -0.00009   2.08235
    D1       -0.00020   0.00001   0.00000   0.00038   0.00038   0.00018
    D2       -3.14156   0.00001   0.00000   0.00023   0.00022  -3.14133
    D3       -3.14074  -0.00002   0.00000  -0.00075  -0.00075  -3.14148
    D4        0.00110  -0.00002   0.00000  -0.00090  -0.00090   0.00019
    D5        0.00029  -0.00001   0.00000  -0.00049  -0.00049  -0.00020
    D6        3.14149   0.00000   0.00000  -0.00014  -0.00014   3.14135
    D7        3.14082   0.00001   0.00000   0.00064   0.00064   3.14146
    D8       -0.00116   0.00002   0.00000   0.00098   0.00098  -0.00018
    D9       -0.00011   0.00000   0.00000   0.00016   0.00016   0.00005
   D10        3.14128   0.00001   0.00000   0.00034   0.00034  -3.14156
   D11        3.14125   0.00001   0.00000   0.00031   0.00031   3.14156
   D12       -0.00055   0.00001   0.00000   0.00049   0.00049  -0.00005
   D13        0.00034  -0.00001   0.00000  -0.00061  -0.00061  -0.00027
   D14        3.14066   0.00002   0.00000   0.00099   0.00099  -3.14154
   D15       -3.14105  -0.00002   0.00000  -0.00079  -0.00079   3.14135
   D16       -0.00073   0.00002   0.00000   0.00081   0.00081   0.00007
   D17       -0.00026   0.00001   0.00000   0.00050   0.00050   0.00025
   D18        3.14110   0.00002   0.00000   0.00076   0.00076  -3.14133
   D19       -3.14057  -0.00002   0.00000  -0.00109  -0.00109   3.14152
   D20        0.00078  -0.00002   0.00000  -0.00084  -0.00084  -0.00006
   D21       -0.00006   0.00000   0.00000   0.00005   0.00005  -0.00001
   D22       -3.14127  -0.00001   0.00000  -0.00029  -0.00029  -3.14156
   D23       -3.14142   0.00000   0.00000  -0.00020  -0.00020   3.14157
   D24        0.00056  -0.00001   0.00000  -0.00054  -0.00054   0.00002
         Item               Value     Threshold  Converged?
 Maximum Force            0.002936     0.000450     NO 
 RMS     Force            0.001009     0.000300     NO 
 Maximum Displacement     0.014596     0.001800     NO 
 RMS     Displacement     0.003767     0.001200     NO 
 Predicted change in Energy=-6.668793D-05
 GradGradGradGradGradGradGradGradGradGradGradGradGradGradGradGradGradGrad

 Leave Link  103 at Sat Sep  2 10:00:14 2006, MaxMem=    6291456 cpu:       0.3
 (Enter /usr/local/Gaussian/g03/l202.exe)
                          Input orientation:                          
 ---------------------------------------------------------------------
 Center     Atomic     Atomic              Coordinates (Angstroms)
 Number     Number      Type              X           Y           Z
 ---------------------------------------------------------------------
    1          6             0       -0.003237    0.000198   -0.001885
    2          6             0       -0.003183    0.000092    1.392050
    3          6             0        1.198861    0.000250    2.099261
    4          6             0        2.397629    0.000581    1.391269
    5          6             0        2.417477    0.000436   -0.000816
    6          6             0        1.207016    0.000250   -0.693521
    7          1             0       -0.940625    0.000177   -0.545832
    8          1             0       -0.940036   -0.000194    1.937758
    9          1             0        1.202991    0.000140    3.181748
   10         35             0        4.058575    0.000713    2.355062
   11          1             0        3.359348    0.000453   -0.534365
   12          1             0        1.215936    0.000104   -1.777683
 ---------------------------------------------------------------------
                    Distance matrix (angstroms):
                    1          2          3          4          5
     1  C    0.000000
     2  C    1.393935   0.000000
     3  C    2.420713   1.394653   0.000000
     4  C    2.775795   2.400812   1.392227   0.000000
     5  C    2.420714   2.792789   2.428034   1.392227   0.000000
     6  C    1.393941   2.411263   2.792794   2.400815   1.394653
     7  H    1.083778   2.152716   3.402046   3.859573   3.402042
     8  H    2.154022   1.084201   2.144986   3.382109   3.876979
     9  H    3.404483   2.158210   1.082495   2.152434   3.406419
    10  Br   4.696117   4.174359   2.871132   1.920322   2.871127
    11  H    3.404484   3.875267   3.406419   2.152434   1.082495
    12  H    2.154029   3.396095   3.876982   3.382109   2.144984
                    6          7          8          9         10
     6  C    0.000000
     7  H    2.152712   0.000000
     8  H    3.396095   2.483590   0.000000
     9  H    3.875271   4.299993   2.477917   0.000000
    10  Br   4.174357   5.779895   5.016000   2.972839   0.000000
    11  H    2.158209   4.299988   4.959446   4.296437   2.972828
    12  H    1.084199   2.483588   4.295663   4.959448   5.015993
                   11         12
    11  H    0.000000
    12  H    2.477914   0.000000
 Stoichiometry    C6H5Br
 Framework group  C1[X(C6H5Br)]
 Deg. of freedom    30
 Full point group                 C1      NOp   1
 Largest Abelian subgroup         C1      NOp   1
 Largest concise Abelian subgroup C1      NOp   1
                         Standard orientation:                         
 ---------------------------------------------------------------------
 Center     Atomic     Atomic              Coordinates (Angstroms)
 Number     Number      Type              X           Y           Z
 ---------------------------------------------------------------------
    1          6             0        2.882514    0.000000   -0.000085
    2          6             0        2.182862   -1.205629    0.000025
    3          6             0        0.788234   -1.214019    0.000043
    4          6             0        0.106720   -0.000003   -0.000114
    5          6             0        0.788230    1.214015    0.000030
    6          6             0        2.182858    1.205634    0.000038
    7          1             0        3.966292    0.000008   -0.000202
    8          1             0        2.719287   -2.147828    0.000175
    9          1             0        0.241370   -2.148222    0.000157
   10         35             0       -1.813603    0.000000   -0.000002
   11          1             0        0.241362    2.148215    0.000149
   12          1             0        2.719276    2.147835    0.000182
 ---------------------------------------------------------------------
 Rotational constants (GHZ):      5.6875091      0.9808731      0.8365935
 Leave Link  202 at Sat Sep  2 10:00:15 2006, MaxMem=    6291456 cpu:       0.5
 (Enter /usr/local/Gaussian/g03/l301.exe)
 Standard basis: 6-311+G(d,p) (5D, 7F)
 There are   210 symmetry adapted basis functions of A   symmetry.
 Integral buffers will be    131072 words long.
 Raffenetti 2 integral format.
 Two-electron integral symmetry is turned on.
   210 basis functions,   350 primitive gaussians,   219 cartesian basis functions
    38 alpha electrons       38 beta electrons
       nuclear repulsion energy       429.5211190246 Hartrees.
 IExCor= 402 DFT=T Ex=B+HF Corr=LYP ExCW=0 ScaHFX=  0.200000
 ScaDFX=  0.800000  0.720000  1.000000  0.810000
 IRadAn=      0 IRanWt=     -1 IRanGd=            0 ICorTp=0
 NAtoms=   12 NActive=   12 NUniq=   12 SFac= 1.00D+00 NAtFMM=   60 Big=F
 Leave Link  301 at Sat Sep  2 10:00:17 2006, MaxMem=    6291456 cpu:       0.1
 (Enter /usr/local/Gaussian/g03/l302.exe)
 NPDir=0 NMtPBC=     1 NCelOv=     1 NCel=       1 NClECP=     1 NCelD=      1
         NCelK=      1 NCelE2=     1 NClLst=     1 CellRange=     0.0.
 One-electron integrals computed using PRISM.
 NBasis=   210 RedAO= T  NBF=   210
 NBsUse=   210 1.00D-06 NBFU=   210
 Precomputing XC quadrature grid using
 IXCGrd= 2 IRadAn=           0 IRanWt=          -1 IRanGd=           0.
 NRdTot=     771 NPtTot=      101480 NUsed=      106926 NTot=      106958
 NSgBfM=   219   219   219   219.
 Leave Link  302 at Sat Sep  2 10:00:25 2006, MaxMem=    6291456 cpu:       2.2
 (Enter /usr/local/Gaussian/g03/l303.exe)
 DipDrv:  MaxL=1.
 Leave Link  303 at Sat Sep  2 10:00:26 2006, MaxMem=    6291456 cpu:       0.2
 (Enter /usr/local/Gaussian/g03/l401.exe)
 Initial guess read from the read-write file:
 Guess basis will be translated and rotated to current coordinates.
 Initial guess orbital symmetries:
       Occupied  (A) (A) (A) (A) (A) (A) (A) (A) (A) (A) (A) (A)
                 (A) (A) (A) (A) (A) (A) (A) (A) (A) (A) (A) (A)
                 (A) (A) (A) (A) (A) (A) (A) (A) (A) (A) (A) (A)
                 (A) (A)
       Virtual   (A) (A) (A) (A) (A) (A) (A) (A) (A) (A) (A) (A)
                 (A) (A) (A) (A) (A) (A) (A) (A) (A) (A) (A) (A)
                 (A) (A) (A) (A) (A) (A) (A) (A) (A) (A) (A) (A)
                 (A) (A) (A) (A) (A) (A) (A) (A) (A) (A) (A) (A)
                 (A) (A) (A) (A) (A) (A) (A) (A) (A) (A) (A) (A)
                 (A) (A) (A) (A) (A) (A) (A) (A) (A) (A) (A) (A)
                 (A) (A) (A) (A) (A) (A) (A) (A) (A) (A) (A) (A)
                 (A) (A) (A) (A) (A) (A) (A) (A) (A) (A) (A) (A)
                 (A) (A) (A) (A) (A) (A) (A) (A) (A) (A) (A) (A)
                 (A) (A) (A) (A) (A) (A) (A) (A) (A) (A) (A) (A)
                 (A) (A) (A) (A) (A) (A) (A) (A) (A) (A) (A) (A)
                 (A) (A) (A) (A) (A) (A) (A) (A) (A) (A) (A) (A)
                 (A) (A) (A) (A) (A) (A) (A) (A) (A) (A) (A) (A)
                 (A) (A) (A) (A) (A) (A) (A) (A) (A) (A) (A) (A)
                 (A) (A) (A) (A)
 The electronic state of the initial guess is 1-A.
 Leave Link  401 at Sat Sep  2 10:00:31 2006, MaxMem=    6291456 cpu:       1.1
 (Enter /usr/local/Gaussian/g03/l502.exe)
 Closed shell SCF:
 Requested convergence on RMS density matrix=1.00D-08 within 128 cycles.
 Requested convergence on MAX density matrix=1.00D-06.
 Requested convergence on             energy=1.00D-06.
 No special actions if energy rises.
 Using DIIS extrapolation, IDIIS=  1040.
 Integral symmetry usage will be decided dynamically.
       106925 words used for storage of precomputed grid.
 IEnd=    294505 IEndB=    294505 NGot=   6291456 MDV=   6061772
 LenX=   6061772
 Fock matrices will be formed incrementally for  20 cycles.

 Cycle   1  Pass 1  IDiag  1:
 Petite list used in FoFDir.
 MinBra= 0 MaxBra= 2 Meth= 1.
 IRaf=       0 NMat=   1 IRICut=       1 DoRegI=T DoRafI=F ISym2E= 1 JSym2E=1.
 E= -2801.02787916717    
 DIIS: error= 1.63D-01 at cycle   1 NSaved=   1.
 NSaved= 1 IEnMin= 1 EnMin= -2801.02787916717     IErMin= 1 ErrMin= 1.63D-01
 ErrMax= 1.63D-01 EMaxC= 1.00D-01 BMatC= 3.82D+00 BMatP= 3.82D+00
 IDIUse=3 WtCom= 0.00D+00 WtEn= 1.00D+00
 Coeff-Com:  0.100D+01
 Coeff-En:   0.100D+01
 Coeff:      0.100D+01
 Gap=     0.693 Goal=   None    Shift=    0.000
 GapD=    0.693 DampG=2.000 DampE=0.250 DampFc=0.5000 IDamp=-1.
 Damping current iteration by 5.00D-01
 RMSDP=2.44D-02 MaxDP=6.36D-01              OVMax= 7.70D-01

 Cycle   2  Pass 1  IDiag  1:
 RMSU=  1.08D-02    CP:  8.32D-01
 E= -2803.34226260219     Delta-E=       -2.314383435017 Rises=F Damp=T
 DIIS: error= 8.31D-02 at cycle   2 NSaved=   2.
 NSaved= 2 IEnMin= 2 EnMin= -2803.34226260219     IErMin= 2 ErrMin= 8.31D-02
 ErrMax= 8.31D-02 EMaxC= 1.00D-01 BMatC= 9.91D-01 BMatP= 3.82D+00
 IDIUse=3 WtCom= 1.69D-01 WtEn= 8.31D-01
 Coeff-Com: -0.910D+00 0.191D+01
 Coeff-En:   0.000D+00 0.100D+01
 Coeff:     -0.154D+00 0.115D+01
 Gap=     0.298 Goal=   None    Shift=    0.000
 RMSDP=1.25D-02 MaxDP=4.57D-01 DE=-2.31D+00 OVMax= 2.47D-01

 Cycle   3  Pass 1  IDiag  1:
 RMSU=  6.20D-03    CP:  6.11D-01  1.73D+00
 E= -2805.76463301412     Delta-E=       -2.422370411935 Rises=F Damp=F
 DIIS: error= 3.48D-02 at cycle   3 NSaved=   3.
 NSaved= 3 IEnMin= 3 EnMin= -2805.76463301412     IErMin= 3 ErrMin= 3.48D-02
 ErrMax= 3.48D-02 EMaxC= 1.00D-01 BMatC= 7.95D-02 BMatP= 9.91D-01
 IDIUse=3 WtCom= 6.52D-01 WtEn= 3.48D-01
 Coeff-Com: -0.400D+00 0.789D+00 0.611D+00
 Coeff-En:   0.000D+00 0.000D+00 0.100D+01
 Coeff:     -0.261D+00 0.515D+00 0.746D+00
 Gap=     0.225 Goal=   None    Shift=    0.000
 RMSDP=8.78D-03 MaxDP=5.77D-01 DE=-2.42D+00 OVMax= 1.75D-01

 Cycle   4  Pass 1  IDiag  1:
 RMSU=  6.95D-03    CP:  5.59D-01  1.52D+00  2.76D-01
 E= -2805.77669802488     Delta-E=       -0.012065010763 Rises=F Damp=F
 DIIS: error= 3.61D-02 at cycle   4 NSaved=   4.
 NSaved= 4 IEnMin= 4 EnMin= -2805.77669802488     IErMin= 3 ErrMin= 3.48D-02
 ErrMax= 3.61D-02 EMaxC= 1.00D-01 BMatC= 7.21D-02 BMatP= 7.95D-02
 IDIUse=3 WtCom= 6.39D-01 WtEn= 3.61D-01
 Coeff-Com: -0.537D-01 0.979D-01 0.494D+00 0.462D+00
 Coeff-En:   0.000D+00 0.000D+00 0.473D+00 0.527D+00
 Coeff:     -0.343D-01 0.625D-01 0.486D+00 0.486D+00
 Gap=     0.231 Goal=   None    Shift=    0.000
 RMSDP=2.98D-03 MaxDP=1.14D-01 DE=-1.21D-02 OVMax= 9.90D-02

 Cycle   5  Pass 1  IDiag  1:
 RMSU=  1.39D-03    CP:  5.68D-01  1.50D+00  5.83D-01  7.41D-01
 E= -2805.85292095361     Delta-E=       -0.076222928727 Rises=F Damp=F
 DIIS: error= 3.51D-03 at cycle   5 NSaved=   5.
 NSaved= 5 IEnMin= 5 EnMin= -2805.85292095361     IErMin= 5 ErrMin= 3.51D-03
 ErrMax= 3.51D-03 EMaxC= 1.00D-01 BMatC= 1.64D-03 BMatP= 7.21D-02
 IDIUse=3 WtCom= 9.65D-01 WtEn= 3.51D-02
 Coeff-Com:  0.153D-01-0.337D-01 0.190D+00 0.235D+00 0.594D+00
 Coeff-En:   0.000D+00 0.000D+00 0.000D+00 0.000D+00 0.100D+01
 Coeff:      0.148D-01-0.325D-01 0.183D+00 0.227D+00 0.608D+00
 Gap=     0.223 Goal=   None    Shift=    0.000
 RMSDP=2.42D-04 MaxDP=7.22D-03 DE=-7.62D-02 OVMax= 1.30D-02

 Cycle   6  Pass 1  IDiag  1:
 RMSU=  1.87D-04    CP:  5.67D-01  1.50D+00  5.74D-01  7.55D-01  9.28D-01
 E= -2805.85375944896     Delta-E=       -0.000838495351 Rises=F Damp=F
 DIIS: error= 1.51D-03 at cycle   6 NSaved=   6.
 NSaved= 6 IEnMin= 6 EnMin= -2805.85375944896     IErMin= 6 ErrMin= 1.51D-03
 ErrMax= 1.51D-03 EMaxC= 1.00D-01 BMatC= 1.28D-04 BMatP= 1.64D-03
 IDIUse=3 WtCom= 9.85D-01 WtEn= 1.51D-02
 Coeff-Com:  0.665D-02-0.140D-01 0.336D-01 0.389D-01 0.235D+00 0.700D+00
 Coeff-En:   0.000D+00 0.000D+00 0.000D+00 0.000D+00 0.655D-01 0.934D+00
 Coeff:      0.655D-02-0.138D-01 0.331D-01 0.383D-01 0.233D+00 0.703D+00
 Gap=     0.222 Goal=   None    Shift=    0.000
 RMSDP=1.14D-04 MaxDP=5.22D-03 DE=-8.38D-04 OVMax= 5.81D-03

 Cycle   7  Pass 1  IDiag  1:
 RMSU=  7.14D-05    CP:  5.66D-01  1.50D+00  5.77D-01  7.62D-01  9.07D-01
                    CP:  7.60D-01
 E= -2805.85385723250     Delta-E=       -0.000097783535 Rises=F Damp=F
 DIIS: error= 4.35D-04 at cycle   7 NSaved=   7.
 NSaved= 7 IEnMin= 7 EnMin= -2805.85385723250     IErMin= 7 ErrMin= 4.35D-04
 ErrMax= 4.35D-04 EMaxC= 1.00D-01 BMatC= 3.01D-05 BMatP= 1.28D-04
 IDIUse=3 WtCom= 9.96D-01 WtEn= 4.35D-03
 Coeff-Com:  0.233D-02-0.478D-02 0.481D-02 0.356D-02 0.936D-01 0.412D+00
 Coeff-Com:  0.489D+00
 Coeff-En:   0.000D+00 0.000D+00 0.000D+00 0.000D+00 0.000D+00 0.159D+00
 Coeff-En:   0.841D+00
 Coeff:      0.232D-02-0.475D-02 0.479D-02 0.354D-02 0.932D-01 0.411D+00
 Coeff:      0.490D+00
 Gap=     0.222 Goal=   None    Shift=    0.000
 RMSDP=4.23D-05 MaxDP=2.13D-03 DE=-9.78D-05 OVMax= 1.56D-03

 Cycle   8  Pass 1  IDiag  1:
 RMSU=  1.78D-05    CP:  5.66D-01  1.50D+00  5.78D-01  7.59D-01  9.07D-01
                    CP:  8.39D-01  7.60D-01
 E= -2805.85388111004     Delta-E=       -0.000023877547 Rises=F Damp=F
 DIIS: error= 5.60D-05 at cycle   8 NSaved=   8.
 NSaved= 8 IEnMin= 8 EnMin= -2805.85388111004     IErMin= 8 ErrMin= 5.60D-05
 ErrMax= 5.60D-05 EMaxC= 1.00D-01 BMatC= 5.62D-07 BMatP= 3.01D-05
 IDIUse=1 WtCom= 1.00D+00 WtEn= 0.00D+00
 Coeff-Com: -0.797D-04 0.146D-03-0.969D-03-0.271D-02 0.218D-01 0.108D+00
 Coeff-Com:  0.160D+00 0.714D+00
 Coeff:     -0.797D-04 0.146D-03-0.969D-03-0.271D-02 0.218D-01 0.108D+00
 Coeff:      0.160D+00 0.714D+00
 Gap=     0.222 Goal=   None    Shift=    0.000
 RMSDP=1.04D-05 MaxDP=4.48D-04 DE=-2.39D-05 OVMax= 1.95D-04

 Cycle   9  Pass 1  IDiag  1:
 RMSU=  4.63D-06    CP:  5.66D-01  1.50D+00  5.78D-01  7.58D-01  9.08D-01
                    CP:  8.34D-01  7.70D-01  1.06D+00
 E= -2805.85388162141     Delta-E=       -0.000000511363 Rises=F Damp=F
 DIIS: error= 1.34D-05 at cycle   9 NSaved=   9.
 NSaved= 9 IEnMin= 9 EnMin= -2805.85388162141     IErMin= 9 ErrMin= 1.34D-05
 ErrMax= 1.34D-05 EMaxC= 1.00D-01 BMatC= 2.13D-08 BMatP= 5.62D-07
 IDIUse=1 WtCom= 1.00D+00 WtEn= 0.00D+00
 Coeff-Com: -0.792D-04 0.155D-03-0.495D-03-0.121D-02 0.763D-02 0.377D-01
 Coeff-Com:  0.590D-01 0.319D+00 0.579D+00
 Coeff:     -0.792D-04 0.155D-03-0.495D-03-0.121D-02 0.763D-02 0.377D-01
 Coeff:      0.590D-01 0.319D+00 0.579D+00
 Gap=     0.222 Goal=   None    Shift=    0.000
 RMSDP=1.72D-06 MaxDP=6.42D-05 DE=-5.11D-07 OVMax= 4.81D-05

 Cycle  10  Pass 1  IDiag  1:
 RMSU=  1.11D-06    CP:  5.66D-01  1.50D+00  5.78D-01  7.58D-01  9.08D-01
                    CP:  8.34D-01  7.68D-01  1.09D+00  9.05D-01
 E= -2805.85388164175     Delta-E=       -0.000000020341 Rises=F Damp=F
 DIIS: error= 3.10D-06 at cycle  10 NSaved=  10.
 NSaved=10 IEnMin=10 EnMin= -2805.85388164175     IErMin=10 ErrMin= 3.10D-06
 ErrMax= 3.10D-06 EMaxC= 1.00D-01 BMatC= 2.08D-09 BMatP= 2.13D-08
 IDIUse=1 WtCom= 1.00D+00 WtEn= 0.00D+00
 Coeff-Com: -0.163D-04 0.323D-04-0.755D-04-0.128D-03 0.239D-04 0.123D-02
 Coeff-Com:  0.420D-02 0.304D-01 0.246D+00 0.718D+00
 Coeff:     -0.163D-04 0.323D-04-0.755D-04-0.128D-03 0.239D-04 0.123D-02
 Coeff:      0.420D-02 0.304D-01 0.246D+00 0.718D+00
 Gap=     0.222 Goal=   None    Shift=    0.000
 RMSDP=1.18D-06 MaxDP=5.88D-05 DE=-2.03D-08 OVMax= 2.02D-05

 Cycle  11  Pass 1  IDiag  1:
 RMSU=  4.27D-07    CP:  5.66D-01  1.50D+00  5.78D-01  7.58D-01  9.08D-01
                    CP:  8.34D-01  7.73D-01  1.08D+00  9.81D-01  8.72D-01
 E= -2805.85388164421     Delta-E=       -0.000000002465 Rises=F Damp=F
 DIIS: error= 7.54D-07 at cycle  11 NSaved=  11.
 NSaved=11 IEnMin=11 EnMin= -2805.85388164421     IErMin=11 ErrMin= 7.54D-07
 ErrMax= 7.54D-07 EMaxC= 1.00D-01 BMatC= 5.74D-11 BMatP= 2.08D-09
 IDIUse=1 WtCom= 1.00D+00 WtEn= 0.00D+00
 Coeff-Com:  0.919D-06-0.155D-05-0.140D-04 0.113D-05-0.215D-03-0.827D-03
 Coeff-Com: -0.934D-03-0.228D-02 0.467D-01 0.223D+00 0.735D+00
 Coeff:      0.919D-06-0.155D-05-0.140D-04 0.113D-05-0.215D-03-0.827D-03
 Coeff:     -0.934D-03-0.228D-02 0.467D-01 0.223D+00 0.735D+00
 Gap=     0.222 Goal=   None    Shift=    0.000
 RMSDP=3.30D-07 MaxDP=1.61D-05 DE=-2.46D-09 OVMax= 4.25D-06

 Cycle  12  Pass 1  IDiag  1:
 RMSU=  7.26D-08    CP:  5.66D-01  1.50D+00  5.78D-01  7.58D-01  9.08D-01
                    CP:  8.34D-01  7.72D-01  1.09D+00  9.71D-01  8.96D-01
                    CP:  7.76D-01
 E= -2805.85388164429     Delta-E=       -0.000000000078 Rises=F Damp=F
 DIIS: error= 2.29D-07 at cycle  12 NSaved=  12.
 NSaved=12 IEnMin=12 EnMin= -2805.85388164429     IErMin=12 ErrMin= 2.29D-07
 ErrMax= 2.29D-07 EMaxC= 1.00D-01 BMatC= 2.70D-12 BMatP= 5.74D-11
 IDIUse=1 WtCom= 1.00D+00 WtEn= 0.00D+00
 Coeff-Com:  0.500D-06-0.887D-06-0.253D-05 0.233D-05-0.723D-04-0.299D-03
 Coeff-Com: -0.394D-03-0.140D-02 0.897D-02 0.528D-01 0.238D+00 0.702D+00
 Coeff:      0.500D-06-0.887D-06-0.253D-05 0.233D-05-0.723D-04-0.299D-03
 Coeff:     -0.394D-03-0.140D-02 0.897D-02 0.528D-01 0.238D+00 0.702D+00
 Gap=     0.222 Goal=   None    Shift=    0.000
 RMSDP=3.01D-08 MaxDP=9.95D-07 DE=-7.82D-11 OVMax= 1.10D-06

 Cycle  13  Pass 1  IDiag  1:
 RMSU=  1.17D-08    CP:  5.66D-01  1.50D+00  5.78D-01  7.58D-01  9.08D-01
                    CP:  8.34D-01  7.72D-01  1.09D+00  9.72D-01  9.03D-01
                    CP:  8.01D-01  9.96D-01
 E= -2805.85388164430     Delta-E=       -0.000000000011 Rises=F Damp=F
 DIIS: error= 1.09D-07 at cycle  13 NSaved=  13.
 NSaved=13 IEnMin=13 EnMin= -2805.85388164430     IErMin=13 ErrMin= 1.09D-07
 ErrMax= 1.09D-07 EMaxC= 1.00D-01 BMatC= 1.18D-12 BMatP= 2.70D-12
 IDIUse=1 WtCom= 1.00D+00 WtEn= 0.00D+00
 Coeff-Com:  0.238D-06-0.460D-06 0.107D-05 0.186D-05-0.182D-04-0.851D-04
 Coeff-Com: -0.138D-03-0.759D-03-0.227D-02-0.353D-02 0.244D-01 0.413D+00
 Coeff-Com:  0.570D+00
 Coeff:      0.238D-06-0.460D-06 0.107D-05 0.186D-05-0.182D-04-0.851D-04
 Coeff:     -0.138D-03-0.759D-03-0.227D-02-0.353D-02 0.244D-01 0.413D+00
 Coeff:      0.570D+00
 Gap=     0.222 Goal=   None    Shift=    0.000
 RMSDP=8.42D-09 MaxDP=2.13D-07 DE=-1.09D-11 OVMax= 2.78D-07

 SCF Done:  E(RB+HF-LYP) =  -2805.85388164     A.U. after   13 cycles
             Convg  =    0.8423D-08             -V/T =  2.0015
             S**2   =   0.0000
 KE= 2.801698038640D+03 PE=-7.549060823435D+03 EE= 1.511987784126D+03
 Leave Link  502 at Sat Sep  2 11:16:46 2006, MaxMem=    6291456 cpu:    1455.6
 (Enter /usr/local/Gaussian/g03/l701.exe)
 Compute integral first derivatives.
 ... and contract with generalized density number  0.
 Leave Link  701 at Sat Sep  2 11:16:50 2006, MaxMem=    6291456 cpu:       1.1
 (Enter /usr/local/Gaussian/g03/l702.exe)
 L702 exits ... SP integral derivatives will be done elsewhere.
 Leave Link  702 at Sat Sep  2 11:16:51 2006, MaxMem=    6291456 cpu:       0.0
 (Enter /usr/local/Gaussian/g03/l703.exe)
 Compute integral first derivatives, UseDBF=F.
 Integral derivatives from FoFDir, PRISM(SPDF).
 Symmetry not used in FoFDir.
 MinBra= 0 MaxBra= 2 Meth= 1.
 IRaf=       0 NMat=   1 IRICut=       1 DoRegI=T DoRafI=F ISym2E= 0 JSym2E=0.
 Leave Link  703 at Sat Sep  2 11:38:51 2006, MaxMem=    6291456 cpu:     418.9
 (Enter /usr/local/Gaussian/g03/l716.exe)
 Dipole        = 7.32432406D-01 2.41452778D-06 1.24045090D-04
 ***** Axes restored to original set *****
 -------------------------------------------------------------------
 Center     Atomic                   Forces (Hartrees/Bohr)
 Number     Number              X              Y              Z
 -------------------------------------------------------------------
    1          6           0.000171932   -0.000006122    0.000094369
    2          6           0.000141947    0.000000088   -0.000180242
    3          6           0.000349394    0.000008679    0.000074854
    4          6          -0.000599091   -0.000024081   -0.000347428
    5          6           0.000238109    0.000004863    0.000264326
    6          6          -0.000087839    0.000003989    0.000217855
    7          1           0.000054945   -0.000005009    0.000032762
    8          1           0.000060070    0.000005362   -0.000017810
    9          1          -0.000008501    0.000001563   -0.000062739
   10         35          -0.000275993    0.000003815   -0.000159781
   11          1          -0.000058807    0.000002308    0.000023945
   12          1           0.000013834    0.000004545    0.000059890
 -------------------------------------------------------------------
 Cartesian Forces:  Max     0.000599091 RMS     0.000166875
 Leave Link  716 at Sat Sep  2 11:38:51 2006, MaxMem=    6291456 cpu:       0.0
 (Enter /usr/local/Gaussian/g03/l103.exe)

 GradGradGradGradGradGradGradGradGradGradGradGradGradGradGradGradGradGrad
 Berny optimization.
 Internal  Forces:  Max     0.000473202 RMS     0.000139300
 Search for a local minimum.
 Step number   2 out of a maximum of  64
 All quantities printed in internal units (Hartrees-Bohrs-Radians)
 Update second derivatives using D2CorX and points  1  2
 Trust test= 8.87D-01 RLast= 1.96D-02 DXMaxT set to 3.00D-01
     Eigenvalues ---    0.02207   0.02207   0.02210   0.02211   0.02212
     Eigenvalues ---    0.02217   0.02220   0.02228   0.02233   0.15993
     Eigenvalues ---    0.16000   0.16000   0.16000   0.16001   0.18059
     Eigenvalues ---    0.21994   0.22000   0.23360   0.25000   0.35523
     Eigenvalues ---    0.35536   0.35583   0.35733   0.35759   0.42671
     Eigenvalues ---    0.42726   0.46972   0.47179   0.47422   0.51889
     Eigenvalues --- 1000.000001000.000001000.000001000.000001000.00000
     Eigenvalues --- 1000.000001000.000001000.000001000.000001000.00000
     Eigenvalues --- 1000.000001000.000001000.000001000.000001000.00000
     Eigenvalues --- 1000.000001000.000001000.000001000.000001000.00000
     Eigenvalues --- 1000.000001000.000001000.000001000.00000
 RFO step:  Lambda=-1.34362816D-06.
 Quartic linear search produced a step of -0.09877.
 Iteration  1 RMS(Cart)=  0.00057795 RMS(Int)=  0.00000017
 Iteration  2 RMS(Cart)=  0.00000022 RMS(Int)=  0.00000006
 Variable       Old X    -DE/DX   Delta X   Delta X   Delta X     New X
                                 (Linear)    (Quad)   (Total)
    R1        2.63416  -0.00022  -0.00061   0.00027  -0.00034   2.63382
    R2        2.63417  -0.00022  -0.00061   0.00026  -0.00035   2.63382
    R3        2.04804  -0.00006  -0.00005  -0.00011  -0.00016   2.04789
    R4        2.63551  -0.00020  -0.00062   0.00028  -0.00033   2.63518
    R5        2.04884  -0.00006  -0.00005  -0.00010  -0.00015   2.04869
    R6        2.63093  -0.00047  -0.00059  -0.00027  -0.00086   2.63007
    R7        2.04562  -0.00006  -0.00006  -0.00009  -0.00015   2.04547
    R8        2.63093  -0.00047  -0.00058  -0.00027  -0.00086   2.63007
    R9        3.62888  -0.00032  -0.00121  -0.00033  -0.00153   3.62735
   R10        2.63551  -0.00021  -0.00061   0.00028  -0.00033   2.63518
   R11        2.04562  -0.00006  -0.00006  -0.00009  -0.00015   2.04547
   R12        2.04884  -0.00006  -0.00005  -0.00010  -0.00015   2.04869
    A1        2.08994   0.00002   0.00001   0.00016   0.00017   2.09012
    A2        2.09663  -0.00001   0.00000  -0.00009  -0.00009   2.09654
    A3        2.09661  -0.00001  -0.00001  -0.00008  -0.00008   2.09653
    A4        2.10264  -0.00001  -0.00001   0.00002   0.00001   2.10265
    A5        2.09820   0.00002   0.00000   0.00008   0.00008   2.09828
    A6        2.08235  -0.00001   0.00001  -0.00010  -0.00009   2.08225
    A7        2.07631  -0.00018   0.00003  -0.00078  -0.00075   2.07557
    A8        2.10641   0.00008   0.00002   0.00030   0.00032   2.10674
    A9        2.10046   0.00010  -0.00006   0.00048   0.00042   2.10088
   A10        2.11853   0.00036  -0.00005   0.00134   0.00129   2.11982
   A11        2.08233  -0.00018   0.00003  -0.00067  -0.00065   2.08168
   A12        2.08232  -0.00018   0.00003  -0.00067  -0.00064   2.08168
   A13        2.07632  -0.00018   0.00003  -0.00078  -0.00075   2.07557
   A14        2.10046   0.00010  -0.00006   0.00048   0.00042   2.10088
   A15        2.10641   0.00008   0.00002   0.00030   0.00032   2.10674
   A16        2.10263  -0.00001  -0.00001   0.00003   0.00002   2.10265
   A17        2.09821   0.00002   0.00001   0.00007   0.00007   2.09828
   A18        2.08235  -0.00001   0.00001  -0.00010  -0.00009   2.08225
    D1        0.00018   0.00000  -0.00004  -0.00016  -0.00020  -0.00002
    D2       -3.14133  -0.00001  -0.00002  -0.00023  -0.00025  -3.14158
    D3       -3.14148   0.00000   0.00007  -0.00013  -0.00006  -3.14154
    D4        0.00019   0.00000   0.00009  -0.00020  -0.00011   0.00009
    D5       -0.00020   0.00001   0.00005   0.00018   0.00023   0.00003
    D6        3.14135   0.00001   0.00001   0.00022   0.00023   3.14158
    D7        3.14146   0.00000  -0.00006   0.00015   0.00009   3.14155
    D8       -0.00018   0.00000  -0.00010   0.00019   0.00009  -0.00009
    D9        0.00005   0.00000  -0.00002  -0.00003  -0.00005   0.00001
   D10       -3.14156   0.00000  -0.00003   0.00001  -0.00002  -3.14159
   D11        3.14156   0.00000  -0.00003   0.00003   0.00000   3.14156
   D12       -0.00005   0.00000  -0.00005   0.00007   0.00002  -0.00003
   D13       -0.00027   0.00001   0.00006   0.00021   0.00027   0.00001
   D14       -3.14154   0.00000  -0.00010  -0.00002  -0.00011   3.14153
   D15        3.14135   0.00001   0.00008   0.00017   0.00025  -3.14159
   D16        0.00007   0.00000  -0.00008  -0.00006  -0.00014  -0.00006
   D17        0.00025  -0.00001  -0.00005  -0.00020  -0.00025   0.00000
   D18       -3.14133  -0.00001  -0.00007  -0.00019  -0.00027   3.14159
   D19        3.14152   0.00000   0.00011   0.00003   0.00014  -3.14153
   D20       -0.00006   0.00000   0.00008   0.00004   0.00012   0.00006
   D21       -0.00001   0.00000  -0.00001   0.00000  -0.00001  -0.00002
   D22       -3.14156   0.00000   0.00003  -0.00004  -0.00001  -3.14157
   D23        3.14157   0.00000   0.00002  -0.00001   0.00001   3.14158
   D24        0.00002   0.00000   0.00005  -0.00004   0.00001   0.00003
         Item               Value     Threshold  Converged?
 Maximum Force            0.000473     0.000450     NO 
 RMS     Force            0.000139     0.000300     YES
 Maximum Displacement     0.002853     0.001800     NO 
 RMS     Displacement     0.000578     0.001200     YES
 Predicted change in Energy=-1.379584D-06
 GradGradGradGradGradGradGradGradGradGradGradGradGradGradGradGradGradGrad

 Leave Link  103 at Sat Sep  2 11:38:52 2006, MaxMem=    6291456 cpu:       0.1
 (Enter /usr/local/Gaussian/g03/l202.exe)
                          Input orientation:                          
 ---------------------------------------------------------------------
 Center     Atomic     Atomic              Coordinates (Angstroms)
 Number     Number      Type              X           Y           Z
 ---------------------------------------------------------------------
    1          6             0       -0.002848    0.000096   -0.001662
    2          6             0       -0.002917    0.000095    1.392093
    3          6             0        1.198903    0.000240    2.099336
    4          6             0        2.396824    0.000393    1.390801
    5          6             0        2.417564    0.000410   -0.000819
    6          6             0        1.207185    0.000270   -0.693311
    7          1             0       -0.940166    0.000030   -0.545564
    8          1             0       -0.939707   -0.000053    1.937753
    9          1             0        1.203272    0.000233    3.181741
   10         35             0        4.057065    0.000696    2.354191
   11          1             0        3.359483    0.000533   -0.534119
   12          1             0        1.216092    0.000258   -1.777395
 ---------------------------------------------------------------------
                    Distance matrix (angstroms):
                    1          2          3          4          5
     1  C    0.000000
     2  C    1.393755   0.000000
     3  C    2.420413   1.394476   0.000000
     4  C    2.774415   2.399742   1.391774   0.000000
     5  C    2.420413   2.792657   2.428124   1.391775   0.000000
     6  C    1.393757   2.411070   2.792659   2.399742   1.394476
     7  H    1.083695   2.152429   3.401634   3.858110   3.401632
     8  H    2.153842   1.084121   2.144706   3.381064   3.876768
     9  H    3.404230   2.158178   1.082414   2.152215   3.406346
    10  Br   4.693926   4.172420   2.869502   1.919510   2.869500
    11  H    3.404230   3.875052   3.406346   2.152215   1.082414
    12  H    2.153844   3.395827   3.876769   3.381064   2.144705
                    6          7          8          9         10
     6  C    0.000000
     7  H    2.152428   0.000000
     8  H    3.395827   2.483317   0.000000
     9  H    3.875053   4.299666   2.477875   0.000000
    10  Br   4.172419   5.777620   5.014096   2.971359   0.000000
    11  H    2.158177   4.299664   4.959152   4.296145   2.971355
    12  H    1.084121   2.483315   4.295322   4.959153   5.014093
                   11         12
    11  H    0.000000
    12  H    2.477875   0.000000
 Stoichiometry    C6H5Br
 Framework group  C1[X(C6H5Br)]
 Deg. of freedom    30
 Full point group                 C1      NOp   1
 Largest Abelian subgroup         C1      NOp   1
 Largest concise Abelian subgroup C1      NOp   1
                         Standard orientation:                         
 ---------------------------------------------------------------------
 Center     Atomic     Atomic              Coordinates (Angstroms)
 Number     Number      Type              X           Y           Z
 ---------------------------------------------------------------------
    1          6             0        2.881297    0.000000   -0.000015
    2          6             0        2.181840   -1.205534   -0.000010
    3          6             0        0.787390   -1.214063    0.000024
    4          6             0        0.106882   -0.000001    0.000046
    5          6             0        0.787389    1.214061    0.000027
    6          6             0        2.181839    1.205536   -0.000013
    7          1             0        3.964992    0.000003   -0.000089
    8          1             0        2.718234   -2.147660    0.000002
    9          1             0        0.240358   -2.148074    0.000035
   10         35             0       -1.812628    0.000000   -0.000010
   11          1             0        0.240356    2.148071    0.000041
   12          1             0        2.718230    2.147662   -0.000004
 ---------------------------------------------------------------------
 Rotational constants (GHZ):      5.6878764      0.9818633      0.8373216
 Leave Link  202 at Sat Sep  2 11:38:55 2006, MaxMem=    6291456 cpu:       0.5
 (Enter /usr/local/Gaussian/g03/l301.exe)
 Standard basis: 6-311+G(d,p) (5D, 7F)
 There are   210 symmetry adapted basis functions of A   symmetry.
 Integral buffers will be    131072 words long.
 Raffenetti 2 integral format.
 Two-electron integral symmetry is turned on.
[...]
    R4        2.63518   0.00002   0.00000   0.00007   0.00007   2.63525
    R5        2.04869   0.00000   0.00000   0.00000   0.00000   2.04870
    R6        2.63007  -0.00006   0.00000  -0.00018  -0.00018   2.62989
    R7        2.04547  -0.00002   0.00000  -0.00008  -0.00008   2.04538
    R8        2.63007  -0.00006   0.00000  -0.00018  -0.00018   2.62989
    R9        3.62735   0.00009   0.00000   0.00065   0.00065   3.62800
   R10        2.63518   0.00002   0.00000   0.00007   0.00007   2.63525
   R11        2.04547  -0.00002   0.00000  -0.00008  -0.00008   2.04538
   R12        2.04869   0.00000   0.00000   0.00001   0.00001   2.04870
    A1        2.09012   0.00001   0.00000   0.00008   0.00008   2.09020
    A2        2.09654   0.00000   0.00000  -0.00004  -0.00004   2.09649
    A3        2.09653   0.00000   0.00000  -0.00004  -0.00004   2.09649
    A4        2.10265   0.00000   0.00000   0.00000   0.00000   2.10265
    A5        2.09828  -0.00001   0.00000  -0.00008  -0.00008   2.09820
    A6        2.08225   0.00001   0.00000   0.00008   0.00008   2.08234
    A7        2.07557  -0.00003   0.00000  -0.00021  -0.00021   2.07535
    A8        2.10674   0.00001   0.00000   0.00011   0.00011   2.10684
    A9        2.10088   0.00001   0.00000   0.00011   0.00011   2.10099
   A10        2.11982   0.00005   0.00000   0.00035   0.00035   2.12017
   A11        2.08168  -0.00002   0.00000  -0.00018  -0.00018   2.08151
   A12        2.08168  -0.00002   0.00000  -0.00017  -0.00017   2.08151
   A13        2.07557  -0.00003   0.00000  -0.00021  -0.00021   2.07535
   A14        2.10088   0.00001   0.00000   0.00011   0.00011   2.10099
   A15        2.10674   0.00002   0.00000   0.00011   0.00011   2.10684
   A16        2.10265   0.00000   0.00000   0.00000   0.00000   2.10265
   A17        2.09828  -0.00001   0.00000  -0.00008  -0.00008   2.09820
   A18        2.08225   0.00001   0.00000   0.00008   0.00008   2.08234
    D1       -0.00002   0.00000   0.00000   0.00002   0.00002   0.00000
    D2       -3.14158   0.00000   0.00000  -0.00001  -0.00001   3.14159
    D3       -3.14154   0.00000   0.00000  -0.00005  -0.00005   3.14159
    D4        0.00009   0.00000   0.00000  -0.00009  -0.00009   0.00000
    D5        0.00003   0.00000   0.00000  -0.00003  -0.00003   0.00000
    D6        3.14158   0.00000   0.00000   0.00001   0.00001  -3.14159
    D7        3.14155   0.00000   0.00000   0.00005   0.00005  -3.14159
    D8       -0.00009   0.00000   0.00000   0.00009   0.00009   0.00000
    D9        0.00001   0.00000   0.00000  -0.00001  -0.00001   0.00000
   D10       -3.14159   0.00000   0.00000  -0.00001  -0.00001  -3.14159
   D11        3.14156   0.00000   0.00000   0.00003   0.00003   3.14159
   D12       -0.00003   0.00000   0.00000   0.00003   0.00003   0.00000
   D13        0.00001   0.00000   0.00000  -0.00001  -0.00001   0.00000
   D14        3.14153   0.00000   0.00000   0.00006   0.00006  -3.14159
   D15       -3.14159   0.00000   0.00000   0.00000   0.00000   3.14159
   D16       -0.00006   0.00000   0.00000   0.00006   0.00006   0.00000
   D17        0.00000   0.00000   0.00000   0.00000   0.00000   0.00000
   D18        3.14159   0.00000   0.00000   0.00000   0.00000  -3.14159
   D19       -3.14153   0.00000   0.00000  -0.00007  -0.00007   3.14159
   D20        0.00006   0.00000   0.00000  -0.00006  -0.00006   0.00000
   D21       -0.00002   0.00000   0.00000   0.00002   0.00002   0.00000
   D22       -3.14157   0.00000   0.00000  -0.00003  -0.00003   3.14159
   D23        3.14158   0.00000   0.00000   0.00001   0.00001   3.14159
   D24        0.00003   0.00000   0.00000  -0.00003  -0.00003   0.00000
         Item               Value     Threshold  Converged?
 Maximum Force            0.000088     0.000450     YES
 RMS     Force            0.000023     0.000300     YES
 Maximum Displacement     0.000367     0.001800     YES
 RMS     Displacement     0.000099     0.001200     YES
 Predicted change in Energy=-7.175860D-08
 Optimization completed.
    -- Stationary point found.
                           ----------------------------
                           !   Optimized Parameters   !
                           ! (Angstroms and Degrees)  !
 --------------------------                            --------------------------
 ! Name  Definition              Value          Derivative Info.                !
 --------------------------------------------------------------------------------
 ! R1    R(1,2)                  1.3938         -DE/DX =    0.0                 !
 ! R2    R(1,6)                  1.3938         -DE/DX =    0.0                 !
 ! R3    R(1,7)                  1.0837         -DE/DX =    0.0                 !
 ! R4    R(2,3)                  1.3945         -DE/DX =    0.0                 !
 ! R5    R(2,8)                  1.0841         -DE/DX =    0.0                 !
 ! R6    R(3,4)                  1.3918         -DE/DX =   -0.0001              !
 ! R7    R(3,9)                  1.0824         -DE/DX =    0.0                 !
 ! R8    R(4,5)                  1.3918         -DE/DX =   -0.0001              !
 ! R9    R(4,10)                 1.9195         -DE/DX =    0.0001              !
 ! R10   R(5,6)                  1.3945         -DE/DX =    0.0                 !
 ! R11   R(5,11)                 1.0824         -DE/DX =    0.0                 !
 ! R12   R(6,12)                 1.0841         -DE/DX =    0.0                 !
 ! A1    A(2,1,6)              119.7549         -DE/DX =    0.0                 !
 ! A2    A(2,1,7)              120.1227         -DE/DX =    0.0                 !
 ! A3    A(6,1,7)              120.1224         -DE/DX =    0.0                 !
 ! A4    A(1,2,3)              120.473          -DE/DX =    0.0                 !
 ! A5    A(1,2,8)              120.2227         -DE/DX =    0.0                 !
 ! A6    A(3,2,8)              119.3043         -DE/DX =    0.0                 !
 ! A7    A(2,3,4)              118.9212         -DE/DX =    0.0                 !
 ! A8    A(2,3,9)              120.7071         -DE/DX =    0.0                 !
 ! A9    A(4,3,9)              120.3718         -DE/DX =    0.0                 !
 ! A10   A(3,4,5)              121.4569         -DE/DX =    0.0                 !
 ! A11   A(3,4,10)             119.2716         -DE/DX =    0.0                 !
 ! A12   A(5,4,10)             119.2715         -DE/DX =    0.0                 !
 ! A13   A(4,5,6)              118.9212         -DE/DX =    0.0                 !
 ! A14   A(4,5,11)             120.3717         -DE/DX =    0.0                 !
 ! A15   A(6,5,11)             120.707          -DE/DX =    0.0                 !
 ! A16   A(1,6,5)              120.4729         -DE/DX =    0.0                 !
 ! A17   A(1,6,12)             120.2228         -DE/DX =    0.0                 !
 ! A18   A(5,6,12)             119.3044         -DE/DX =    0.0                 !
 ! D1    D(6,1,2,3)             -0.0013         -DE/DX =    0.0                 !
 ! D2    D(6,1,2,8)            180.0008         -DE/DX =    0.0                 !
 ! D3    D(7,1,2,3)            180.0029         -DE/DX =    0.0                 !
 ! D4    D(7,1,2,8)              0.0049         -DE/DX =    0.0                 !
 ! D5    D(2,1,6,5)              0.0016         -DE/DX =    0.0                 !
 ! D6    D(2,1,6,12)          -180.0008         -DE/DX =    0.0                 !
 ! D7    D(7,1,6,5)           -180.0026         -DE/DX =    0.0                 !
 ! D8    D(7,1,6,12)            -0.005          -DE/DX =    0.0                 !
 ! D9    D(1,2,3,4)              0.0004         -DE/DX =    0.0                 !
 ! D10   D(1,2,3,9)           -179.9996         -DE/DX =    0.0                 !
 ! D11   D(8,2,3,4)            179.9983         -DE/DX =    0.0                 !
 ! D12   D(8,2,3,9)             -0.0017         -DE/DX =    0.0                 !
 ! D13   D(2,3,4,5)              0.0003         -DE/DX =    0.0                 !
 ! D14   D(2,3,4,10)          -180.0035         -DE/DX =    0.0                 !
 ! D15   D(9,3,4,5)            180.0003         -DE/DX =    0.0                 !
 ! D16   D(9,3,4,10)            -0.0036         -DE/DX =    0.0                 !
 ! D17   D(3,4,5,6)              0.0            -DE/DX =    0.0                 !
 ! D18   D(3,4,5,11)          -180.0002         -DE/DX =    0.0                 !
 ! D19   D(10,4,5,6)           180.0038         -DE/DX =    0.0                 !
 ! D20   D(10,4,5,11)            0.0036         -DE/DX =    0.0                 !
 ! D21   D(4,5,6,1)             -0.0009         -DE/DX =    0.0                 !
 ! D22   D(4,5,6,12)           180.0014         -DE/DX =    0.0                 !
 ! D23   D(11,5,6,1)           179.9993         -DE/DX =    0.0                 !
 ! D24   D(11,5,6,12)            0.0016         -DE/DX =    0.0                 !
 --------------------------------------------------------------------------------
 GradGradGradGradGradGradGradGradGradGradGradGradGradGradGradGradGradGrad

 Leave Link  103 at Sat Sep  2 23:42:37 2006, MaxMem=    6291456 cpu:       0.2
 (Enter /usr/local/Gaussian/g03/l9999.exe)
 1\1\GINC-PUBLIX\Freq\RB3LYP\6-311+G(d,p)\C6H5Br1\NOBODY\02-Sep-2006\0\
 \#P GEOM=ALLCHECK GUESS=READ SCRF=CHECK GENCHK RB3LYP/6-311+G(D,P) FRE
 Q\\bromobz basis2\\0,1\C,-2.4921181854,-0.0003563766,-1.4461055849\C,-
 2.4921873837,-0.0003572365,-0.0523505917\C,-1.2903669249,-0.0002123119
 ,0.6548921268\C,-0.0924460971,-0.0000595385,-0.0536423893\C,-0.0717058
 015,-0.0000425083,-1.4452624483\C,-1.2820850348,-0.000182493,-2.137754
 2653\H,-3.4294357567,-0.0004225169,-1.9900078917\H,-3.4289770497,-0.00
 05047893,0.493309044\H,-1.2859977748,-0.0002188308,1.7372972502\Br,1.5
 677952103,0.0002434903,0.9097469124\H,0.8702130711,0.0000805525,-1.978
 5626252\H,-1.273178288,-0.0001937865,-3.2218387955\\Version=Sun64-SVR4
 -Unix-G03RevB.04\State=1-A\HF=-2805.8538831\RMSD=4.323e-09\RMSF=4.909e
 -05\Dipole=-0.6335266,-0.0000849,-0.3676183\DipoleDeriv=0.0057534,0.00
 06402,0.0430702,0.0040625,-0.1420589,0.0011035,0.0481825,0.002048,-0.0
 43326,0.0831473,-0.0004302,-0.0661362,-0.0008752,-0.1160502,-0.0004764
 ,0.0239846,-0.0004109,0.0502032,-0.3281893,-0.0008523,-0.0785408,0.000
 2667,-0.1050096,0.0001219,-0.1553639,-0.0031237,-0.0334576,0.8915104,-
 0.000443,0.5095401,-0.0035531,-0.0524361,-0.0008721,0.5193028,0.001985
 2,0.3059752,-0.2021856,0.0000787,-0.2149545,0.0051418,-0.1033489,0.001
 6107,-0.1482053,0.0008988,-0.1539403,0.0388562,-0.000264,0.0524291,-0.
 0058743,-0.1177413,-0.0018893,-0.0443351,-0.0006461,0.0913152,-0.05170
 21,0.000118,-0.0744507,0.0001716,0.1418518,0.0001387,-0.0740353,-0.000
 1455,0.0314492,-0.0669337,0.0002545,0.0564881,-0.0001336,0.1384509,0.0
 000103,0.0563707,-0.0003409,0.0253586,0.0866182,0.0000358,-0.0148481,0
 .0004982,0.1358058,0.0002372,0.000134,0.0006432,-0.0307708,-0.5017996,
 0.0001422,-0.254381,-0.000071,-0.053675,-0.0002463,-0.2552177,-0.00057
 24,-0.2142988,-0.0073307,0.0005235,0.0525739,0.0000362,0.1356283,0.000
 147,0.0400174,0.0000583,0.0651897,0.0522555,0.0001966,-0.0107901,0.000
 3303,0.1385833,0.0001148,-0.0108347,-0.000394,-0.0936976\Polar=112.762
 0208,0.0081688,51.8197897,14.2094838,-0.0786445,95.8718018\PG=C01 [X(C
 6H5Br1)]\NImag=0\\0.71870421,0.00007086,0.13350758,0.03732658,-0.00002
 138,0.67600214,-0.12841324,-0.00001592,0.03192392,0.71056449,-0.000012
 09,-0.06315871,0.00000351,0.00008194,0.13427200,-0.03166849,0.00001433
 ,-0.33105031,-0.03601199,-0.00001466,0.67680535,0.03264362,0.00004320,
 -0.07618890,-0.27565381,-0.00003333,-0.05449308,0.64008973,0.00000386,
 0.00736518,-0.00000849,-0.00002764,-0.06102990,-0.00000600,0.00006921,
 0.12860386,-0.02967594,0.00002764,-0.02595737,-0.12300530,-0.00001313,
 -0.18063617,0.00234872,-0.00000323,0.74715315,-0.01803547,-0.00003033,
 0.03215799,-0.06151309,-0.00000103,-0.03010090,-0.25334665,-0.00002763
 ,0.13002960,0.50811278,-0.00000532,-0.00614331,0.00002161,-0.00000424,
 0.00688059,-0.00002084,-0.00006226,-0.05964432,-0.00001757,0.00008189,
 0.11094952,0.03218047,-0.00004320,-0.05490345,0.02790111,0.00000960,0.
 06477461,0.06908141,0.00000714,-0.17667225,-0.07542489,0.00003582,0.59
 413622,-0.05721451,0.00000274,0.02169213,-0.01637863,-0.00000352,-0.02
 810172,0.03165248,0.00000336,0.02739636,-0.10994790,-0.00001916,0.0480
 3522,0.72301229,0.00000074,0.00736476,-0.00001322,-0.00001074,-0.00454
 153,0.00001861,0.00005029,0.00662693,0.00003726,-0.00004491,-0.0596400
 2,-0.00004782,0.00009235,0.12860695,-0.02490465,-0.00000520,0.06382540
 ,-0.02852453,-0.00000586,-0.05206404,0.07261538,0.00000985,-0.02549452
 ,-0.01299711,0.00000162,-0.32023214,-0.04489351,-0.00000770,0.66442229
 ,-0.28105124,0.00000343,0.05562527,0.03318839,-0.00000348,0.07663550,-
 0.06772058,-0.00000521,0.00114491,0.03268904,-0.00002514,-0.08388808,-
 0.28045550,0.00001263,-0.05170885,0.65407272,-0.00004188,-0.06315858,0
 .00002251,0.00001675,0.00753353,-0.00001253,-0.00006300,-0.00453827,-0
 .00003322,0.00004755,0.00687607,0.00005111,-0.00004212,-0.06103616,-0.
 00000672,0.00001960,0.13428171,0.11917789,0.00002117,-0.17840850,0.030
 49681,0.00000566,-0.02806507,0.00076030,-0.00000010,-0.00080146,-0.025
 91744,-0.00000707,-0.02945289,-0.12028397,-0.00001058,-0.17579382,-0.0
 0376442,-0.00000451,0.73328513,-0.26696253,-0.00002725,-0.12075655,0.0
 0383446,0.00000187,0.00237685,0.00177264,-0.00000096,0.00055650,0.0002
 6341,0.00000842,0.00108445,-0.00298022,-0.00001198,0.00381511,-0.01839
 896,0.00001064,-0.01599337,0.28174327,-0.00001452,-0.03638866,-0.00000
 531,-0.00000134,0.00301550,-0.00000045,0.00000015,0.00691775,-0.000002
 77,-0.00000164,-0.00063772,0.00000039,-0.00000131,0.00691998,0.0000015
 5,-0.00000266,0.00301325,-0.00000267,0.00002027,0.02550089,-0.12074297
 ,-0.00001283,-0.12895341,-0.02871220,-0.00000129,-0.01061689,0.0011154
 9,-0.00000006,-0.00545796,0.00111017,0.00000359,-0.00100508,0.00323596
 ,-0.00000472,-0.00073276,0.01508257,0.00000790,0.01162820,0.12979383,0
 .00000878,0.13338617,0.00386890,-0.00000693,-0.00231156,-0.26571459,-0
 .00003398,0.12074892,-0.01924567,-0.00000367,0.01536665,-0.00200870,0.
 00000496,-0.00304292,0.00013541,-0.00000748,-0.00086627,0.00178873,0.0
 0000802,-0.00041616,0.00068269,0.00000065,0.00039235,0.28072744,0.0000
 0053,0.00352758,-0.00000011,-0.00003615,-0.03679896,0.00001946,-0.0000
 0364,0.00350765,0.00000005,-0.00000050,0.00722434,0.00000136,-0.000000
 20,-0.00098889,0.00000008,-0.00000155,0.00689205,-0.00000017,0.0000006
 5,-0.00396038,-0.00000005,0.00003908,0.02539808,0.02868441,0.00000839,
 -0.01011664,0.12070437,0.00001878,-0.12902079,-0.01564333,-0.00000205,
 0.01100190,-0.00275173,-0.00000440,-0.00021931,-0.00086808,0.00000420,
 -0.00069637,-0.00111678,-0.00000471,-0.00571505,-0.00039886,-0.0000003
 5,0.00099241,-0.12955606,-0.00002060,0.13367461,-0.00439962,-0.0000017
 2,-0.00223361,0.00440346,0.00000008,-0.02787386,-0.05614688,-0.0000025
 2,-0.00163644,0.00210490,0.00000027,0.02783397,-0.00471324,-0.00000181
 ,0.00228472,-0.00117927,0.00000036,-0.00008514,0.00004620,0.00000006,-
 0.00132834,0.00093492,0.00000066,0.00045720,0.05793122,0.00000053,0.00
 722136,0.00000033,-0.00000137,0.00358844,-0.00000173,0.00000045,-0.035
 65500,0.00000128,-0.00000364,0.00209761,-0.00000059,-0.00000024,0.0059
 6787,0.00000159,0.00000342,-0.00104251,-0.00000030,-0.00000091,0.00016
 804,-0.00000094,0.00000022,-0.00418798,0.00000008,0.00000423,0.0245784
 3,-0.00278837,-0.00000437,0.00083396,0.00220324,-0.00000097,-0.0103184
 3,0.00133787,0.00000243,-0.34093247,-0.00339903,0.00000603,-0.01222469
 ,0.00288054,-0.00000496,0.00073790,-0.00000863,0.00000409,0.00073618,0
 .00018533,0.00000095,-0.00055547,-0.00018251,0.00000041,0.00079168,0.0
 0044423,-0.00000131,0.36022852,-0.00121107,-0.00001813,-0.00160852,-0.
 00000332,0.00000263,0.00679226,-0.03446333,-0.00000744,-0.02174851,-0.
 09700200,0.00000312,-0.03836895,-0.01559610,-0.00002555,-0.01030844,0.
 00345881,0.00002491,-0.00122291,-0.00000943,-0.00000031,-0.00014315,-0
 .00118391,0.00000046,-0.00098979,0.00067038,-0.00000145,-0.00055398,0.
 14497026,-0.00000255,-0.00088601,-0.00000642,0.00000175,0.00438636,0.0
 0000285,-0.00000316,0.00287018,0.00000656,-0.00001379,-0.01728470,-0.0
 0001303,-0.00000242,0.00286472,-0.00000372,0.00000063,0.00439196,0.000
 00140,-0.00000040,-0.00075626,0.00000037,-0.00000090,0.00012087,0.0000
 0082,0.00000023,-0.00219337,-0.00000281,0.00002263,0.00855858,-0.00157
 429,0.00000466,0.00060296,0.00072610,-0.00000005,0.00026246,0.00047921
 ,0.00000005,0.00272667,-0.03830840,-0.00001109,-0.05317835,-0.03260156
 ,-0.00000123,-0.01615410,0.00479985,-0.00000443,-0.00316649,-0.0001376
 2,-0.00000019,0.00016208,0.00001333,-0.00000013,-0.00012282,0.00076577
 ,0.00000031,0.00124456,0.06788607,0.00001298,0.06740052,-0.00261762,-0
 .00001910,-0.00383963,0.00021356,0.00000282,-0.00080244,0.00164880,-0.
 00000145,-0.00070181,0.00184914,0.00001735,-0.00328586,-0.27095507,-0.
 00005255,0.12409310,-0.01774186,0.00002106,0.01488257,-0.00090233,-0.0
 0000021,0.00072821,-0.00002940,0.00000063,0.00008364,0.00024518,-0.000
 00152,-0.00012425,0.00117861,-0.00000116,-0.00084176,0.28616952,-0.000
 00055,0.00722143,0.00000266,-0.00000066,-0.00103959,-0.00000056,-0.000
 00096,0.00596532,-0.00000421,-0.00000212,0.00209714,0.00000262,-0.0000
 3049,-0.03565290,0.00001724,-0.00000202,0.00358662,0.00000089,-0.00000
 008,0.00016778,-0.00000012,0.00000049,-0.00087765,-0.00000050,0.000000
 05,0.00033451,0.00000073,0.00000063,-0.00219276,-0.00000096,0.00003474
 ,0.02457799,-0.00324956,0.00000877,-0.00093509,-0.00088472,-0.00000240
 ,-0.00066730,-0.00133796,0.00000063,-0.00560711,0.02797441,-0.00000429
 ,-0.01194131,0.12113287,0.00002757,-0.12613505,-0.01520771,-0.00001522
 ,0.01183057,-0.00078864,0.00000038,0.00038836,0.00006670,-0.00000014,0
 .00006026,0.00137832,0.00000144,-0.00047253,0.00046908,-0.00000019,0.0
 0071625,-0.13000567,-0.00001726,0.13198175,0.00468857,-0.00000084,0.02
 821289,-0.00452766,-0.00000192,0.00249894,-0.00123035,0.00000010,-0.00
 007474,-0.00316545,0.00000010,-0.00210593,0.00344099,-0.00000098,-0.02
 860495,-0.05865027,-0.00000189,0.00236583,0.00091080,0.00000086,-0.000
 53191,0.00004417,0.00000004,0.00139500,0.00010276,0.00000029,0.0000055
 7,-0.00080891,-0.00000084,-0.00120669,0.00094147,0.00000096,0.00045288
 ,0.05825387,0.00000040,0.00352739,0.00000430,-0.00000237,0.00689227,0.
 00000152,0.00000305,-0.00098938,0.00000135,-0.00000385,0.00722478,-0.0
 0000340,0.00000102,0.00350830,-0.00000272,0.00000034,-0.03679968,-0.00
 000371,-0.00000026,-0.00396017,-0.00000063,-0.00000047,0.00014328,0.00
 000036,0.00000011,-0.00087741,-0.00000020,-0.00000149,0.00012044,0.000
 00007,-0.00000060,-0.00418788,0.00000071,0.00000413,0.02539805,-0.0027
 6507,0.00000201,-0.01093967,0.00318321,0.00000081,0.00059657,-0.000075
 11,-0.00000015,0.00067758,-0.00237268,-0.00000341,0.00091863,0.0023757
 6,0.00000260,-0.01168279,0.00240638,-0.00000427,-0.33607680,0.00026297
 ,-0.00000029,0.00076436,-0.00021247,-0.00000016,-0.00062987,-0.0000068
 2,-0.00000017,-0.00006922,-0.00020315,0.00000119,-0.00049373,-0.000186
 10,-0.00000052,0.00078122,-0.00240690,0.00000236,0.35615371\\-0.000039
 12,-0.00000625,-0.00002110,0.00000378,0.00000392,0.00006091,-0.0000838
 0,0.00000092,-0.00004836,0.00019157,-0.00000430,0.00011131,-0.00008393
 ,0.00000044,-0.00004859,0.00005569,0.00000451,-0.00002810,-0.00000313,
 0.00000269,-0.00000213,0.00000558,-0.00000154,0.00000823,-0.00000112,-
 0.00000026,0.00002438,-0.00007620,0.00000172,-0.00004434,0.00002066,-0
 .00000031,-0.00001314,0.00001002,-0.00000153,0.00000094\\\@


 ...THOSE SCIENCES ARE VAIN AND FULL OF ERRORS WHICH 
 ARE NOT BORN FROM EXPERIMENT, THE MOTHER OF CERTAINTY...

                          -- LEONARDO DA VINCI, 1452-1519
 Job cpu time:  0 days  2 hours 59 minutes 29.8 seconds.
 File lengths (MBytes):  RWF=     91 Int=      0 D2E=      0 Chk=     12 Scr=      1
 Normal termination of Gaussian 03 at Sat Sep  2 23:42:39 2006.
