----- GAMESS execution script -----
This job is running on host s04c3b08
under operating system Linux at Thu Jun 12 13:14:43 CEST 2008
Available scratch disk space (Kbyte units) at beginning of the job is
Filesystem           1K-blocks      Used Available Use% Mounted on
/dev/gpfs_scratch    3898716160 119676928 3779039232   4% /gpfs/scratch

 Distributed Data Interface kickoff program.
 Initiating 16 compute processes on 16 nodes to run the following command:
 /gpfs/apps/GAMESS/bin//gamess.02.x PESs/B3LYP/cc-pVDZ/B3LYP_Df-15_p-15.inp 

          ******************************************************
          *         GAMESS VERSION = 22 FEB 2006 (R2)          *
          *             FROM IOWA STATE UNIVERSITY             *
          * M.W.SCHMIDT, K.K.BALDRIDGE, J.A.BOATZ, S.T.ELBERT, *
          *   M.S.GORDON, J.H.JENSEN, S.KOSEKI, N.MATSUNAGA,   *
          *          K.A.NGUYEN, S.J.SU, T.L.WINDUS,           *
          *       TOGETHER WITH M.DUPUIS, J.A.MONTGOMERY       *
          *         J.COMPUT.CHEM.  14, 1347-1363(1993)        *
          ****************** IBM (AIX) VERSION *****************

     SINCE 1993, STUDENTS AND POSTDOCS WORKING AT IOWA STATE UNIVERSITY
     AND ALSO IN THEIR VARIOUS JOBS AFTER LEAVING ISU HAVE MADE IMPORTANT
     CONTRIBUTIONS TO THE CODE:
     IVANA ADAMOVIC, CHRISTINE AIKENS, YURI ALEXEEV, POOJA ARORA, ROB BELL,
     PRADIPTA BANDYOPADHYAY, BRETT BODE, GALINA CHABAN, WEI CHEN,
     CHEOL HO CHOI, PAUL DAY, TIM DUDLEY, DMITRI FEDOROV, GRAHAM FLETCHER,
     MARK FREITAG, KURT GLAESEMANN, GRANT MERRILL, TAKESHI NAGATA,
     HEATHER NETZLOFF, BOSILJKA NJEGIC, RYAN OLSON, MIKE PAK, JIM SHOEMAKER,
     LYUDMILA SLIPCHENKO, JIE SONG, TETSUYA TAKETSUGU, SIMON WEBB.

     ADDITIONAL CODE HAS BEEN PROVIDED BY COLLABORATORS IN OTHER GROUPS:
     IOWA STATE UNIVERSITY: JOE IVANIC, KLAUS RUEDENBERG
     UNIVERSITY OF TOKYO: KIMIHIKO HIRAO, HARUYUKI NAKANO, TAKAHITO
          NAKAJIMA, TAKAO TSUNEDA, MUNEAKI KAMIYA, SUSUMU YANAGISAWA,
          KIYOSHI YAGI
     UNIVERSITY OF SOUTHERN DENMARK: FRANK JENSEN
     UNIVERSITY OF IOWA: VISVALDAS KAIRYS, HUI LI
     NATIONAL INST. OF STANDARDS AND TECHNOLOGY: WALT STEVENS, DAVID GARMER
     UNIVERSITY OF PISA: BENEDETTA MENNUCCI, JACOPO TOMASI
     UNIVERSITY OF MEMPHIS: HENRY KURTZ, PRAKASHAN KORAMBATH
     UNIVERSITY OF ALBERTA: MARIUSZ KLOBUKOWSKI
     UNIVERSITY OF NEW ENGLAND: MARK SPACKMAN
     MIE UNIVERSITY: HIROAKI UMEDA
     MICHIGAN STATE UNIVERSITY:
          KAROL KOWALSKI, MARTA WLOCH, PIOTR PIECUCH
     UNIVERSITY OF SILESIA: MONIKA MUSIAL, STANISLAW KUCHARSKI
     FACULTES UNIVERSITAIRES NOTRE-DAME DE LA PAIX:
          OLIVIER QUINET, BENOIT CHAMPAGNE
     UNIVERSITY OF CALIFORNIA - SANTA BARBARA: BERNARD KIRTMAN
     INSTITUTE FOR MOLECULAR SCIENCE: KAZUYA ISHIMURA AND SHIGERU NAGASE
     UNIVERSITY OF NOTRE DAME: DAN CHIPMAN

 PARALLEL VERSION RUNNING ON    16 PROCESSORS IN    16 NODES.

 EXECUTION OF GAMESS BEGUN Thu Jun 12 13:14:45 2008

            ECHO OF THE FIRST FEW INPUT CARDS -
 INPUT CARD> $CONTRL SCFTYP=RHF RUNTYP=OPTIMIZE EXETYP=RUN                                  
 INPUT CARD>         COORD=ZMT NZVAR=42                                                     
 INPUT CARD>         QMTTOL=5.0E-6 NPRINT=-5 ICHARG=0 MULT=1                                
 INPUT CARD>         ISPHER=-1                                                              
 INPUT CARD> $END                                                                           
 INPUT CARD> $SYSTEM TIMLIM=14400 MWORDS=50 MEMDDI=0 PARALL=.T. $END                        
 INPUT CARD> $DFT DFTTYP=B3LYP $END                                                         
 INPUT CARD> $BASIS GBASIS=CCD $END                                                         
 INPUT CARD> $SCF DIRSCF=.T. FDIFF=.T. NPUNCH=0 DIIS=.T. CONV=1.0E-5 $END                   
 INPUT CARD> $GUESS GUESS=HUCKEL $END                                                       
 INPUT CARD> $STATPT NSTEP=100 OPTTOL=0.0001 NPRT=-2 NPUN=-2 $END                           
 INPUT CARD> $ZMAT DLC=.T. AUTO=.T.                                                         
 INPUT CARD>       IFZMAT(1)=3,7,5,3,2, 3,13,7,5,3                                          
 INPUT CARD>       FVALUE(1)=-15, -15                                                       
 INPUT CARD> $END                                                                           
 INPUT CARD> $DATA                                                                          
 INPUT CARD>HCO-L-Ala-NH2 - OPTIMIZE - B3LYP/cc-pVDZ - N_at = 16                            
 INPUT CARD>C1                                                                              
 INPUT CARD>H1                                                                              
 INPUT CARD>C2         1 rC2H1                                                              
 INPUT CARD>N3         2 rN3C2             1 aN3C2H1                                        
 INPUT CARD>O4         2 rO4C2             3 aO4C2N3                 1 pO4C2N3H1            
 INPUT CARD>C5         3 rC5N3             2 aC5N3C2                 1 dC5N3C2H1            
 INPUT CARD>H6         3 rH6N3             2 aH6N3C2                 5 pH6N3C2C5            
 INPUT CARD>C7         5 rC7C5             3 aC7C5N3                 2 dC7C5N3C2            
 INPUT CARD>C8         5 rC8C5             3 aC8C5N3                 7 pC8C5N3C7            
 INPUT CARD>H9         5 rH9C5             3 aH9C5N3                 7 pH9C5N3C7            
 INPUT CARD>H10        8 rH10C8            5 aH10C8C5                3 dH10C8C5N3           
 INPUT CARD>H11        8 rH11C8            5 aH11C8C5               10 pH11C8C5H10          
 INPUT CARD>H12        8 rH12C8            5 aH12C8C5               10 pH12C8C5H10          
 INPUT CARD>N13        7 rN13C7            5 aN13C7C5                3 dN13C7C5N3           
 INPUT CARD>O14        7 rO14C7            5 aO14C7C5               13 pO14C7C5N13          
 INPUT CARD>H15       13 rH15N13           7 aH15N13C7               5 dH15N13C7C5          
 INPUT CARD>H16       13 rH16N13           7 aH16N13C7              15 pH16N13C7H15         
 INPUT CARD>                                                                                
 INPUT CARD>rC2H1         1.0889743331                                                      
 INPUT CARD>rN3C2         1.3394412977                                                      
 INPUT CARD>rO4C2         1.1949195168                                                      
 INPUT CARD>rC5N3         1.4715526971                                                      
 INPUT CARD>rH6N3         0.9914777727                                                      
 INPUT CARD>rC7C5         1.5364411325                                                      
 INPUT CARD>rC8C5         1.5307685736                                                      
 INPUT CARD>rH9C5         1.0805256411                                                      
 INPUT CARD>rH10C8        1.0827052097                                                      
 INPUT CARD>rH11C8        1.0773852597                                                      
 INPUT CARD>rH12C8        1.0840000558                                                      
 INPUT CARD>rN13C7        1.3406756284                                                      
 INPUT CARD>rO14C7        1.1966494931                                                      
 INPUT CARD>rH15N13       0.9929237138                                                      
 INPUT CARD>rH16N13       0.9941599400                                                      

 ..... DONE SETTING UP THE RUN .....
   50000000 WORDS OF MEMORY AVAILABLE

     BASIS OPTIONS
     -------------
     GBASIS=CCD          IGAUSS=       0      POLAR=NONE    
     NDFUNC=       0     NFFUNC=       0     DIFFSP=       F
     NPFUNC=       0      DIFFS=       F

     GRID-BASED DFT OPTIONS
     ----------------------
     DFTTYP=B3LYP        QOP   =    .000     PFTYP =NONE    
     NRAD  =      96     NTHE  =      12     NPHI  =      24
     NRAD0 =      24     NTHE0 =       8     NPHI0 =      16
      SWOFF=    5.00E-03 (PURE SCF -> DFT)
     SWITCH=    3.00E-04 (COARSE -> TIGHT GRID)
     THRESH=    0.00E+00 GTHRE=    1.00E+00


     RUN TITLE
     ---------
 HCO-L-Ala-NH2 - OPTIMIZE - B3LYP/cc-pVDZ - N_at = 16                            

 THE POINT GROUP OF THE MOLECULE IS C1      
 THE ORDER OF THE PRINCIPAL AXIS IS     0

 YOUR FULLY SUBSTITUTED Z-MATRIX IS
 H1  
 C2     1   1.0889743
 N3     2   1.3394413  1  110.9023
 O4     2   1.1949195  3  128.5419  1  179.1631  0
 C5     3   1.4715527  2  135.6502  1  178.0029  0
 H6     3    .9914778  2  112.5598  5 -175.9459  0
 C7     5   1.5364411  3  122.6250  2  -15.0000  0
 C8     5   1.5307686  3  107.5525  7 -125.2733  0
 H9     5   1.0805256  3  107.2280  7  118.5153  0
 H10    8   1.0827052  5  110.6412  3   66.2896  0
 H11    8   1.0773853  5  109.7915 10  120.5815  0
 H12    8   1.0840001  5  110.2787 10 -119.9767  0
 N13    7   1.3406756  5  121.5511  3  -15.0000  0
 O14    7   1.1966495  5  115.3496 13 -175.5223  0
 H15   13    .9929237  7  114.2984  5  175.9394  0
 H16   13    .9941599  7  119.3011 15 -146.5150  0

 THE MOMENTS OF INERTIA ARE (AMU-ANGSTROM**2)
 IXX=   168.115   IYY=   294.618   IZZ=   425.775

 ATOM      ATOMIC                      COORDINATES (BOHR)
           CHARGE         X                   Y                   Z
 H1          1.0    -5.6323795868        1.7285397701         .2002789171
 C2          6.0    -3.9684084472         .5493943358        -.0747058430
 N3          7.0    -1.8853444007        1.9678862790        -.3104640648
 O4          8.0    -4.1563348215       -1.6992639197        -.1589789036
 C5          6.0      .8313826846        1.4723804458        -.6374060228
 H6          1.0    -2.2384609238        3.7990715419        -.1301141836
 C7          6.0     2.0151274405       -1.1358952458        -.1623438547
 C8          6.0     2.2690321453        3.3896082345         .9828738108
 H9          1.0     1.2795330260        1.8287309504       -2.5973857466
 H10         1.0     1.9193775043        3.0593612974        2.9715569851
 H11         1.0     4.2667502200        3.2379178942         .6205789546
 H12         1.0     1.6703392031        5.2948872511         .5271550334
 N13         7.0      .7702633145       -2.9469833378        1.0981893670
 O14         8.0     4.1564036752       -1.3673642724        -.8515572960
 H15         1.0     1.6747774040       -4.5886573386        1.1845844829
 H16         1.0    -1.1064326959       -2.9938370870        1.0254401021

          INTERNUCLEAR DISTANCES (ANGS.)
          ------------------------------

                    H1             C2             N3             O4        

  1  H1               .0000000      1.0889743 *    2.0051851 *    1.9840698 *  
  2  C2              1.0889743 *     .0000000      1.3394413 *    1.1949195 *  
  3  N3              2.0051851 *    1.3394413 *     .0000000      2.2839584 *  
  4  O4              1.9840698 *    1.1949195 *    2.2839584 *     .0000000    
  5  C5              3.4517432      2.6035590 *    1.4715527 *    3.1380499    
  6  H6              2.1110754 *    1.9483635 *     .9914778 *    3.0815553    
  7  C7              4.3257075      3.2898734      2.6389492 *    3.2793769    
  8  C8              4.2926652      3.6697195      2.4222715 *    4.3792667    
  9  H9              3.9462398      3.1547800      2.0675751 *    3.6640026    
 10  H10             4.3146643      3.7510297      2.7209638 *    4.4070982    
 11  H11             5.3036035      4.5989558      3.3605084      5.1830159    
 12  H12             4.3041140      3.9129577      2.6146619 *    4.8308713    
 13  N13             4.2221778      3.1775034      3.0487453      2.7704157 *  
 14  O14             5.4613363      4.4365772      3.6631680      4.4176458    
 15  H15             5.1379372      4.0932103      4.0265452      3.5163670    
 16  H16             3.4887966      2.4795619 *    2.7501969 *    1.8619725 *  

                    C5             H6             C7             C8        

  1  H1              3.4517432      2.1110754 *    4.3257075      4.2926652    
  2  C2              2.6035590 *    1.9483635 *    3.2898734      3.6697195    
  3  N3              1.4715527 *     .9914778 *    2.6389492 *    2.4222715 *  
  4  O4              3.1380499      3.0815553      3.2793769      4.3792667    
  5  C5               .0000000      2.0559593 *    1.5364411 *    1.5307686 *  
  6  H6              2.0559593 *     .0000000      3.4477004      2.4664370 *  
  7  C7              1.5364411 *    3.4477004       .0000000      2.4739346 *  
  8  C8              1.5307686 *    2.4664370 *    2.4739346 *     .0000000    
  9  H9              1.0805256 *    2.5015005 *    2.0671493 *    2.1321119 *  
 10  H10             2.1642544 *    2.7727654 *    2.7715292 *    1.0827052 *  
 11  H11             2.1496193 *    3.4779550      2.6359728 *    1.0773853 *  
 12  H12             2.1606774 *    2.2418753 *    3.4273880      1.0840001 *  
 13  N13             2.5127174 *    3.9624886      1.3406756 *    3.4462401    
 14  O14             2.3166710 *    4.3671339      1.1966495 *    2.8768996 *  
 15  H15             3.3787519      4.9470534      1.9694794 *    4.2349572    
 16  H16             2.7224246 *    3.6951732      2.0224623 *    3.8212295    

                    H9             H10            H11            H12       

  1  H1              3.9462398      4.3146643      5.3036035      4.3041140    
  2  C2              3.1547800      3.7510297      4.5989558      3.9129577    
  3  N3              2.0675751 *    2.7209638 *    3.3605084      2.6146619 *  
  4  O4              3.6640026      4.4070982      5.1830159      4.8308713    
  5  C5              1.0805256 *    2.1642544 *    2.1496193 *    2.1606774 *  
  6  H6              2.5015005 *    2.7727654 *    3.4779550      2.2418753 *  
  7  C7              2.0671493 *    2.7715292 *    2.6359728 *    3.4273880    
  8  C8              2.1321119 *    1.0827052 *    1.0773853 *    1.0840001 *  
  9  H9               .0000000      3.0369876      2.4402228 *    2.4780938 *  
 10  H10             3.0369876       .0000000      1.7605894 *    1.7578482 *  
 11  H11             2.4402228 *    1.7605894 *     .0000000      1.7535820 *  
 12  H12             2.4780938 *    1.7578482 *    1.7535820 *     .0000000    
 13  N13             3.2068350      3.3845072      3.7681930      4.3977351    
 14  O14             2.4559370 *    3.3138661      2.5591608 *    3.8330467    
 15  H15             3.9473356      4.1581780      4.3730570      5.2417053    
 16  H16             3.4325156      3.7262537      4.3595270      4.6332997    

                    N13            O14            H15            H16       

  1  H1              4.2221778      5.4613363      5.1379372      3.4887966    
  2  C2              3.1775034      4.4365772      4.0932103      2.4795619 *  
  3  N3              3.0487453      3.6631680      4.0265452      2.7501969 *  
  4  O4              2.7704157 *    4.4176458      3.5163670      1.8619725 *  
  5  C5              2.5127174 *    2.3166710 *    3.3787519      2.7224246 *  
  6  H6              3.9624886      4.3671339      4.9470534      3.6951732    
  7  C7              1.3406756 *    1.1966495 *    1.9694794 *    2.0224623 *  
  8  C8              3.4462401      2.8768996 *    4.2349572      3.8212295    
  9  H9              3.2068350      2.4559370 *    3.9473356      3.4325156    
 10  H10             3.3845072      3.3138661      4.1581780      3.7262537    
 11  H11             3.7681930      2.5591608 *    4.3730570      4.3595270    
 12  H12             4.3977351      3.8330467      5.2417053      4.6332997    
 13  N13              .0000000      2.2302580 *     .9929237 *     .9941599 *  
 14  O14             2.2302580 *     .0000000      2.4065101 *    3.0795197    
 15  H15              .9929237 *    2.4065101 *     .0000000      1.6986432 *  
 16  H16              .9941599 *    3.0795197      1.6986432 *     .0000000    

  * ... LESS THAN  3.000


     ATOMIC BASIS SET
     ----------------
 THE CONTRACTED PRIMITIVE FUNCTIONS HAVE BEEN UNNORMALIZED
 THE CONTRACTED BASIS FUNCTIONS ARE NOW NORMALIZED TO UNITY

  SHELL TYPE  PRIMITIVE        EXPONENT          CONTRACTION COEFFICIENT(S)

 H1        

      1   S       1            13.0100000     .033498726390
      1   S       2             1.9620000     .234800801174
      1   S       3              .4446000     .813682957883

      2   S       4              .1220000    1.000000000000

      3   P       5              .7270000    1.000000000000

 C2        

      4   S       6          6665.0000000     .000691583963
      4   S       7          1000.0000000     .005325796153
      4   S       8           228.0000000     .027060721042
      4   S       9            64.7100000     .101656846141
      4   S      10            21.0600000     .274574823617
      4   S      11             7.4950000     .448294318924
      4   S      12             2.7970000     .284902610715
      4   S      13              .5215000     .015194859206

      5   S      14          6665.0000000    -.000293269653
      5   S      15          1000.0000000    -.002318035474
      5   S      16           228.0000000    -.011499786039
      5   S      17            64.7100000    -.046826727010
      5   S      18            21.0600000    -.128466168750
      5   S      19             7.4950000    -.301266272463
      5   S      20             2.7970000    -.255630702330
      5   S      21              .5215000    1.093793361012

      6   S      22              .1596000    1.000000000000

      7   P      23             9.4390000     .056979251590
      7   P      24             2.0020000     .313207211501
      7   P      25              .5456000     .760376741738

      8   P      26              .1517000    1.000000000000

      9   D      27              .5500000    1.000000000000

 N3        

     10   S      28          9046.0000000     .000699617413
     10   S      29          1357.0000000     .005386054630
     10   S      30           309.3000000     .027391021189
     10   S      31            87.7300000     .103150591982
     10   S      32            28.5600000     .278570663317
     10   S      33            10.2100000     .448294849454
     10   S      34             3.8380000     .278085928395
     10   S      35              .7466000     .015431561233

     11   S      36          9046.0000000    -.000304990096
     11   S      37          1357.0000000    -.002408026379
     11   S      38           309.3000000    -.011944448725
     11   S      39            87.7300000    -.048925992909
     11   S      40            28.5600000    -.134472724725
     11   S      41            10.2100000    -.315112577700
     11   S      42             3.8380000    -.242857832550
     11   S      43              .7466000    1.094382206854

     12   S      44              .2248000    1.000000000000

     13   P      45            13.5500000     .058905676772
     13   P      46             2.9170000     .320461106714
     13   P      47              .7973000     .753042061792

     14   P      48              .2185000    1.000000000000

     15   D      49              .8170000    1.000000000000

 O4        

     16   S      50         11720.0000000     .000709645947
     16   S      51          1759.0000000     .005467272292
     16   S      52           400.8000000     .027823118610
     16   S      53           113.7000000     .104747739711
     16   S      54            37.0300000     .282920846357
     16   S      55            13.2700000     .448495238698
     16   S      56             5.0250000     .270816885213
     16   S      57             1.0130000     .015450291607

     17   S      58         11720.0000000    -.000314443412
     17   S      59          1759.0000000    -.002482137681
     17   S      60           400.8000000    -.012316355382
     17   S      61           113.7000000    -.050538917344
     17   S      62            37.0300000    -.139384903316
     17   S      63            13.2700000    -.325077494818
     17   S      64             5.0250000    -.229848307588
     17   S      65             1.0130000    1.095379346788

     18   S      66              .3023000    1.000000000000

     19   P      67            17.7000000     .062679166282
     19   P      68             3.8540000     .333536565879
     19   P      69             1.0460000     .741239641640

     20   P      70              .2753000    1.000000000000

     21   D      71             1.1850000    1.000000000000

 C5        

     22   S      72          6665.0000000     .000691583963
     22   S      73          1000.0000000     .005325796153
     22   S      74           228.0000000     .027060721042
     22   S      75            64.7100000     .101656846141
     22   S      76            21.0600000     .274574823617
     22   S      77             7.4950000     .448294318924
     22   S      78             2.7970000     .284902610715
     22   S      79              .5215000     .015194859206

     23   S      80          6665.0000000    -.000293269653
     23   S      81          1000.0000000    -.002318035474
     23   S      82           228.0000000    -.011499786039
     23   S      83            64.7100000    -.046826727010
     23   S      84            21.0600000    -.128466168750
     23   S      85             7.4950000    -.301266272463
     23   S      86             2.7970000    -.255630702330
     23   S      87              .5215000    1.093793361012

     24   S      88              .1596000    1.000000000000

     25   P      89             9.4390000     .056979251590
     25   P      90             2.0020000     .313207211501
     25   P      91              .5456000     .760376741738

     26   P      92              .1517000    1.000000000000

     27   D      93              .5500000    1.000000000000

 H6        

     28   S      94            13.0100000     .033498726390
     28   S      95             1.9620000     .234800801174
     28   S      96              .4446000     .813682957883

     29   S      97              .1220000    1.000000000000

     30   P      98              .7270000    1.000000000000

 C7        

     31   S      99          6665.0000000     .000691583963
     31   S     100          1000.0000000     .005325796153
     31   S     101           228.0000000     .027060721042
     31   S     102            64.7100000     .101656846141
     31   S     103            21.0600000     .274574823617
     31   S     104             7.4950000     .448294318924
     31   S     105             2.7970000     .284902610715
     31   S     106              .5215000     .015194859206

     32   S     107          6665.0000000    -.000293269653
     32   S     108          1000.0000000    -.002318035474
     32   S     109           228.0000000    -.011499786039
     32   S     110            64.7100000    -.046826727010
     32   S     111            21.0600000    -.128466168750
     32   S     112             7.4950000    -.301266272463
     32   S     113             2.7970000    -.255630702330
     32   S     114              .5215000    1.093793361012

     33   S     115              .1596000    1.000000000000

     34   P     116             9.4390000     .056979251590
     34   P     117             2.0020000     .313207211501
     34   P     118              .5456000     .760376741738

     35   P     119              .1517000    1.000000000000

     36   D     120              .5500000    1.000000000000

 C8        

     37   S     121          6665.0000000     .000691583963
     37   S     122          1000.0000000     .005325796153
     37   S     123           228.0000000     .027060721042
     37   S     124            64.7100000     .101656846141
     37   S     125            21.0600000     .274574823617
     37   S     126             7.4950000     .448294318924
     37   S     127             2.7970000     .284902610715
     37   S     128              .5215000     .015194859206

     38   S     129          6665.0000000    -.000293269653
     38   S     130          1000.0000000    -.002318035474
     38   S     131           228.0000000    -.011499786039
     38   S     132            64.7100000    -.046826727010
     38   S     133            21.0600000    -.128466168750
     38   S     134             7.4950000    -.301266272463
     38   S     135             2.7970000    -.255630702330
     38   S     136              .5215000    1.093793361012

     39   S     137              .1596000    1.000000000000

     40   P     138             9.4390000     .056979251590
     40   P     139             2.0020000     .313207211501
     40   P     140              .5456000     .760376741738

     41   P     141              .1517000    1.000000000000

     42   D     142              .5500000    1.000000000000

 H9        

     43   S     143            13.0100000     .033498726390
     43   S     144             1.9620000     .234800801174
     43   S     145              .4446000     .813682957883

     44   S     146              .1220000    1.000000000000

     45   P     147              .7270000    1.000000000000

 H10       

     46   S     148            13.0100000     .033498726390
     46   S     149             1.9620000     .234800801174
     46   S     150              .4446000     .813682957883

     47   S     151              .1220000    1.000000000000

     48   P     152              .7270000    1.000000000000

 H11       

     49   S     153            13.0100000     .033498726390
     49   S     154             1.9620000     .234800801174
     49   S     155              .4446000     .813682957883

     50   S     156              .1220000    1.000000000000

     51   P     157              .7270000    1.000000000000

 H12       

     52   S     158            13.0100000     .033498726390
     52   S     159             1.9620000     .234800801174
     52   S     160              .4446000     .813682957883

     53   S     161              .1220000    1.000000000000

     54   P     162              .7270000    1.000000000000

 N13       

     55   S     163          9046.0000000     .000699617413
     55   S     164          1357.0000000     .005386054630
     55   S     165           309.3000000     .027391021189
     55   S     166            87.7300000     .103150591982
     55   S     167            28.5600000     .278570663317
     55   S     168            10.2100000     .448294849454
     55   S     169             3.8380000     .278085928395
     55   S     170              .7466000     .015431561233

     56   S     171          9046.0000000    -.000304990096
     56   S     172          1357.0000000    -.002408026379
     56   S     173           309.3000000    -.011944448725
     56   S     174            87.7300000    -.048925992909
     56   S     175            28.5600000    -.134472724725
     56   S     176            10.2100000    -.315112577700
     56   S     177             3.8380000    -.242857832550
     56   S     178              .7466000    1.094382206854

     57   S     179              .2248000    1.000000000000

     58   P     180            13.5500000     .058905676772
     58   P     181             2.9170000     .320461106714
     58   P     182              .7973000     .753042061792

     59   P     183              .2185000    1.000000000000

     60   D     184              .8170000    1.000000000000

 O14       

     61   S     185         11720.0000000     .000709645947
     61   S     186          1759.0000000     .005467272292
     61   S     187           400.8000000     .027823118610
     61   S     188           113.7000000     .104747739711
     61   S     189            37.0300000     .282920846357
     61   S     190            13.2700000     .448495238698
     61   S     191             5.0250000     .270816885213
     61   S     192             1.0130000     .015450291607

     62   S     193         11720.0000000    -.000314443412
     62   S     194          1759.0000000    -.002482137681
     62   S     195           400.8000000    -.012316355382
     62   S     196           113.7000000    -.050538917344
     62   S     197            37.0300000    -.139384903316
     62   S     198            13.2700000    -.325077494818
     62   S     199             5.0250000    -.229848307588
     62   S     200             1.0130000    1.095379346788

     63   S     201              .3023000    1.000000000000

     64   P     202            17.7000000     .062679166282
     64   P     203             3.8540000     .333536565879
     64   P     204             1.0460000     .741239641640

     65   P     205              .2753000    1.000000000000

     66   D     206             1.1850000    1.000000000000

 H15       

     67   S     207            13.0100000     .033498726390
     67   S     208             1.9620000     .234800801174
     67   S     209              .4446000     .813682957883

     68   S     210              .1220000    1.000000000000

     69   P     211              .7270000    1.000000000000

 H16       

     70   S     212            13.0100000     .033498726390
     70   S     213             1.9620000     .234800801174
     70   S     214              .4446000     .813682957883

     71   S     215              .1220000    1.000000000000

     72   P     216              .7270000    1.000000000000

 TOTAL NUMBER OF BASIS SET SHELLS             =   72
 NUMBER OF CARTESIAN GAUSSIAN BASIS FUNCTIONS =  160
 NUMBER OF ELECTRONS                          =   62
 CHARGE OF MOLECULE                           =    0
 SPIN MULTIPLICITY                            =    1
 NUMBER OF OCCUPIED ORBITALS (ALPHA)          =   31
 NUMBER OF OCCUPIED ORBITALS (BETA )          =   31
 TOTAL NUMBER OF ATOMS                        =   16
 THE NUCLEAR REPULSION ENERGY IS      388.4575091929

     $CONTRL OPTIONS
     ---------------
 SCFTYP=RHF          RUNTYP=OPTIMIZE     EXETYP=RUN     
 MPLEVL=       0     CITYP =NONE         CCTYP =NONE         VBTYP =NONE    
 MULT  =       1     ICHARG=       0     NZVAR =      42     COORD =ZMT     
 PP    =NONE         RELWFN=NONE         LOCAL =NONE         NUMGRD=       F
 ISPHER=      -1     NOSYM =       0     MAXIT =      30     UNITS =ANGS    
 PLTORB=       F     MOLPLT=       F     AIMPAC=       F     FRIEND=        
 NPRINT=      -5     IREST =       0     GEOM  =INPUT   
 NORMF =       0     NORMP =       0     ITOL  =      20     ICUT  =       9
 INTTYP=BEST         GRDTYP=BEST         QMTTOL= 5.0E-06

     $SYSTEM OPTIONS
     ---------------
  REPLICATED MEMORY=    50000000 WORDS (ON EVERY NODE).
 DISTRIBUTED MEMDDI=           0 MILLION WORDS IN AGGREGATE,
 MEMDDI DISTRIBUTED OVER  16 PROCESSORS IS           0 WORDS/PROCESSOR.
 TOTAL MEMORY REQUESTED ON EACH PROCESSOR=    50000000 WORDS.
 TIMLIM=       14400.00 MINUTES, OR    10.00 DAYS.
 PARALL= T  BALTYP=  NXTVAL  KDIAG=    0  COREFL= F

          ----------------
          PROPERTIES INPUT
          ----------------

     MOMENTS            FIELD           POTENTIAL          DENSITY
 IEMOM =       1   IEFLD =       0   IEPOT =       0   IEDEN =       0
 WHERE =COMASS     WHERE =NUCLEI     WHERE =NUCLEI     WHERE =NUCLEI  
 OUTPUT=BOTH       OUTPUT=BOTH       OUTPUT=BOTH       OUTPUT=BOTH    
 IEMINT=       0   IEFINT=       0                     IEDINT=       0
                                                       MORB  =       0
          EXTRAPOLATION IN EFFECT
          DIIS IN EFFECT
 ORBITAL PRINTING OPTION: NPREO=   1 160   2   1

     -------------------------------
     INTEGRAL TRANSFORMATION OPTIONS
     -------------------------------
     NWORD  =       0     CUTOFF = 1.0E-09
     MPTRAN =       0     DIRTRF =       T
     AOINTS =DUP     

          ----------------------
          INTEGRAL INPUT OPTIONS
          ----------------------
 NOPK  =       1 NORDER=       0 SCHWRZ=       T
 
 
 -----------------------------------------------
  STATISTICS ON AUTOMATIC COORDINATE GENERATION 
 -----------------------------------------------
  NUMBER OF USER SPECIFIED BONDS          0
  NUMBER OF BONDS                         15
  NUMBER OF ANGLES                        24
  NUMBER OF TORSIONS                      29
  NUMBER OF EXTRA COORD.                  0
  NUMBER OF EXTRA COORD. FOR CONSTRAINTS  0
  NUMBER OF CONSTRAINED COORD.            2
 
  TOTAL NUMBER OF PRIMITIVES              68
 -----------------------------------------------

   --- ENCODED Z MATRIX ---
 COORD  TYPE   I   J   K   L   M   N
    1      3    2   3   5   7
    2      3    3   5   7  13
    3      1    1   2
    4      1    2   4
    5      1    2   3
    6      1    3   6
    7      1    3   5
    8      1    5   8
    9      1    5   9
   10      1    5   7
   11      1    7  14
   12      1    7  13
   13      1    8  12
   14      1    8  11
   15      1    8  10
   16      1   13  16
   17      1   13  15
   18      2    1   2   3
   19      2    1   2   4
   20      2    2   3   5
   21      2    2   3   6
   22      2    3   2   4
   23      2    3   5   9
   24      2    3   5   8
   25      2    3   5   7
   26      2    5   8  10
   27      2    5   8  12
   28      2    5   3   6
   29      2    5   8  11
   30      2    5   7  13
   31      2    5   7  14
   32      2    7   5   9
   33      2    7   5   8
   34      2    7  13  15
   35      2    7  13  16
   36      2    8   5   9
   37      2   10   8  11
   38      2   10   8  12
   39      2   11   8  12
   40      2   13   7  14
   41      2   15  13  16
   42      3    1   2   3   6
   43      3    1   2   3   5
   44      3    2   3   5   9
   45      3    2   3   5   8
   46      3    3   5   7  14
   47      3    3   5   8  10
   48      3    3   5   8  11
   49      3    3   5   8  12
   50      3    4   2   3   6
   51      3    4   2   3   5
   52      3    5   7  13  15
   53      3    5   7  13  16
   54      3    6   3   5   8
   55      3    6   3   5   9
   56      3    6   3   5   7
   57      3    7   5   8  12
   58      3    7   5   8  10
   59      3    7   5   8  11
   60      3    8   5   7  14
   61      3    8   5   7  13
   62      3    9   5   8  12
   63      3    9   5   8  10
   64      3    9   5   7  14
   65      3    9   5   7  13
   66      3    9   5   8  11
   67      3   14   7  13  16
   68      3   14   7  13  15

 THE DETERMINANT OF THE G MATRIX IS 10**(   -23)


                     --------------------
                     INTERNAL COORDINATES
                     --------------------

                 - - ATOMS - -         COORDINATE      COORDINATE
 NO.   TYPE    I  J  K  L  M  N        (BOHR,RAD)       (ANG,DEG)
 ----------------------------------------------------------------
   1 TORSION   2  3  5  7               -.2617994     -15.0000000
   2 TORSION   3  5  7 13               -.2617994     -15.0000000
   3 STRETCH   1  2                     2.0578631       1.0889743
   4 STRETCH   2  4                     2.2580705       1.1949195
   5 STRETCH   2  3                     2.5311770       1.3394413
   6 STRETCH   3  6                     1.8736213        .9914778
   7 STRETCH   3  5                     2.7808314       1.4715527
   8 STRETCH   5  8                     2.8927332       1.5307686
   9 STRETCH   5  9                     2.0418974       1.0805256
  10 STRETCH   5  7                     2.9034527       1.5364411
  11 STRETCH   7 14                     2.2613396       1.1966495
  12 STRETCH   7 13                     2.5335096       1.3406756
  13 STRETCH   8 12                     2.0484631       1.0840001
  14 STRETCH   8 11                     2.0359629       1.0773853
  15 STRETCH   8 10                     2.0460162       1.0827052
  16 STRETCH  13 16                     1.8786899        .9941599
  17 STRETCH  13 15                     1.8763537        .9929237
  18 BEND      1  2  3                  1.9356107     110.9023260
  19 BEND      1  2  4                  2.1040050     120.5506094
  20 BEND      2  3  5                  2.3675423     135.6501802
  21 BEND      2  3  6                  1.9645397     112.5598343
  22 BEND      3  2  4                  2.2434790     128.5418781
  23 BEND      3  5  9                  1.8714809     107.2279597
  24 BEND      3  5  8                  1.8771451     107.5524923
  25 BEND      3  5  7                  2.1402100     122.6249997
  26 BEND      5  8 10                  1.9310529     110.6411800
  27 BEND      5  8 12                  1.9247257     110.2786574
  28 BEND      5  3  6                  1.9493643     111.6903469
  29 BEND      5  8 11                  1.9162232     109.7915031
  30 BEND      5  7 13                  2.1214661     121.5510515
  31 BEND      5  7 14                  2.0132307     115.3496222
  32 BEND      7  5  9                  1.7970734     102.9647202
  33 BEND      7  5  8                  1.8766675     107.5251285
  34 BEND      7 13 15                  1.9948842     114.2984453
  35 BEND      7 13 16                  2.0821975     119.3011273
  36 BEND      8  5  9                  1.8890469     108.2344139
  37 BEND     10  8 11                  1.9056389     109.1850663
  38 BEND     10  8 12                  1.8927448     108.4462878
  39 BEND     11  8 12                  1.8928172     108.4504395
  40 BEND     13  7 14                  2.1456852     122.9387069
  41 BEND     15 13 16                  2.0504935     117.4846207
  42 TORSION   1  2  3  6                .0359016       2.0570125
  43 TORSION   1  2  3  5               3.1067368     178.0029069
  44 TORSION   2  3  5  9               1.8066831     103.5153143
  45 TORSION   2  3  5  8              -2.4482313    -140.2733227
  46 TORSION   3  5  7 14               2.9579440     169.4777049
  47 TORSION   3  5  8 10               1.1569711      66.2895588
  48 TORSION   3  5  8 11              -3.0216699    -173.1289297
  49 TORSION   3  5  8 12               -.9370169     -53.6871135
  50 TORSION   4  2  3  6              -3.1202984    -178.7799270
  51 TORSION   4  2  3  5               -.0494632      -2.8340326
  52 TORSION   5  7 13 15               3.0707223     175.9394304
  53 TORSION   5  7 13 16                .5135540      29.4244792
  54 TORSION   6  3  5  8                .6230398      35.6975498
  55 TORSION   6  3  5  9              -1.4052311     -80.5138132
  56 TORSION   6  3  5  7               2.8094717     160.9708725
  57 TORSION   7  5  8 12               3.0099063     172.4549251
  58 TORSION   7  5  8 10              -1.1792911     -67.5684026
  59 TORSION   7  5  8 11                .9252533      53.0131089
  60 TORSION   8  5  7 14              -1.1385961     -65.2367489
  61 TORSION   8  5  7 13               1.9248459     110.2855462
  62 TORSION   9  5  8 12               1.0796766      61.8609120
  63 TORSION   9  5  8 10              -3.1095208    -178.1624157
  64 TORSION   9  5  7 14                .8540168      48.9315573
  65 TORSION   9  5  7 13              -2.3657266    -135.5461476
  66 TORSION   9  5  8 11              -1.0049764     -57.5809042
  67 TORSION  14  7 13 16              -2.7122054    -155.3979239
  68 TORSION  14  7 13 15               -.1550371      -8.8829728

     ------------------------------------------
     THE POINT GROUP IS C1 , NAXIS= 0, ORDER= 1
     ------------------------------------------

     DIMENSIONS OF THE SYMMETRY SUBSPACES ARE
 A   =  160

 ..... DONE SETTING UP THE RUN .....
 ON NODE 0, STEP CPU TIME =      .04 TOTAL CPU TIME =         .0 (     .0 MIN)
 TOTAL WALL CLOCK TIME=         .0 SECONDS, CPU UTILIZATION IS 100.00%


          -----------------------------
          STATIONARY POINT LOCATION RUN
          -----------------------------


           ** GEOMETRY CONSTRAINTS ARE BEING APPLIED. **

          TRANSFORMING DISPLACEMENT FROM INTERNALS TO CARTESIANS
          THE ROOT MEAN SQUARE ERROR IN ITERATION   1 IS    .00000000
 WARNING! THE RADIUS IN CARTESIANS IS     .00000
 OBTAINING INITIAL HESSIAN, HESS=GUESS   
 DIAGONAL GUESS HESSIAN IN INTERNAL COORDS IS
     1   .2500     2   .2500     3   .3471     4   .5687     5   .4641
     6   .3661     7   .3590     8   .3666     9   .3528    10   .3626
    11   .5668    12   .4630    13   .3504    14   .3550    15   .3513
    16   .3642    17   .3651    18   .2287    19   .2336    20   .2499
    21   .2265    22   .2655    23   .2213    24   .2446    25   .2442
    26   .2245    27   .2244    28   .2187    29   .2248    30   .2534
    31   .2591    32   .2243    33   .2480    34   .2263    35   .2262
    36   .2246    37   .2044    38   .2041    39   .2043    40   .2653
    41   .1996    42   .2500    43   .2500    44   .2500    45   .2500
    46   .2500    47   .2500    48   .2500    49   .2500    50   .2500
    51   .2500    52   .2500    53   .2500    54   .2500    55   .2500
    56   .2500    57   .2500    58   .2500    59   .2500    60   .2500
    61   .2500    62   .2500    63   .2500    64   .2500    65   .2500
    66   .2500    67   .2500    68   .2500
 TRANSFORMING HESSIAN TO SYMMETRY COORDINATES

          PARAMETERS CONTROLLING GEOMETRY SEARCH ARE
          METHOD =QA                  UPHESS =BFGS    
          NNEG   =         0          NFRZ   =         0
          NSTEP  =       100          IFOLOW =         1
          HESS   =GUESS               RESTAR =         F
          IHREP  =         0          HSSEND =         F
          NPRT   =        -2          NPUN   =        -2
          OPTTOL = 1.000E-04          RMIN   = 1.500E-03
          RMAX   = 1.000E-01          RLIM   = 7.000E-02
          DXMAX  = 3.000E-01          PURIFY =         F
          MOVIE  =         F          TRUPD  =         T
          TRMAX  = 5.000E-01          TRMIN  = 5.000E-02
          ITBMAT =         5          STPT   =         F
          STSTEP = 1.000E-02          PROJCT=          T

 BEGINNING GEOMETRY SEARCH POINT NSERCH=   0 ...

 COORDINATES OF ALL ATOMS ARE (ANGS)
   ATOM   CHARGE       X              Y              Z
 ------------------------------------------------------------
 H1          1.0  -2.9805271364    .9147039208    .1059830464
 C2          6.0  -2.0999914660    .2907269834   -.0395326325
 N3          7.0   -.9976813639   1.0413606479   -.1642905198
 O4          8.0  -2.1994378278   -.8992118067   -.0841280189
 C5          6.0    .4399488021    .7791502342   -.3373007658
 H6          1.0  -1.1845425942   2.0103822282   -.0688534658
 C7          6.0   1.0663595958   -.6010899216   -.0859086744
 C8          6.0   1.2007201891   1.7937035615    .5201144595
 H9          1.0    .6770997670    .9677228139  -1.3744774446
 H10         1.0   1.0156909080   1.6189443958   1.5724803513
 H11         1.0   2.2578671446   1.7134324845    .3283962642
 H12         1.0    .8839055048   2.8019338706    .2789584505
 N13         7.0    .4076058219  -1.5594765363    .5811368284
 O14         8.0   2.1994742636   -.7235780644   -.4506247474
 H15         1.0    .8862540998  -2.4282130682    .6268551582
 H16         1.0   -.5854990105  -1.5842704744    .5426395725


                     --------------------
                     INTERNAL COORDINATES
                     --------------------

                 - - ATOMS - -         COORDINATE      COORDINATE
 NO.   TYPE    I  J  K  L  M  N        (BOHR,RAD)       (ANG,DEG)
 ----------------------------------------------------------------
   1 TORSION   2  3  5  7               -.2617994     -15.0000000
   2 TORSION   3  5  7 13               -.2617994     -15.0000000
   3 STRETCH   1  2                     2.0578631       1.0889743
   4 STRETCH   2  4                     2.2580705       1.1949195
   5 STRETCH   2  3                     2.5311770       1.3394413
   6 STRETCH   3  6                     1.8736213        .9914778
   7 STRETCH   3  5                     2.7808314       1.4715527
   8 STRETCH   5  8                     2.8927332       1.5307686
   9 STRETCH   5  9                     2.0418974       1.0805256
  10 STRETCH   5  7                     2.9034527       1.5364411
  11 STRETCH   7 14                     2.2613396       1.1966495
  12 STRETCH   7 13                     2.5335096       1.3406756
  13 STRETCH   8 12                     2.0484631       1.0840001
  14 STRETCH   8 11                     2.0359629       1.0773853
  15 STRETCH   8 10                     2.0460162       1.0827052
  16 STRETCH  13 16                     1.8786899        .9941599
  17 STRETCH  13 15                     1.8763537        .9929237
  18 BEND      1  2  3                  1.9356107     110.9023260
  19 BEND      1  2  4                  2.1040050     120.5506094
  20 BEND      2  3  5                  2.3675423     135.6501802
  21 BEND      2  3  6                  1.9645397     112.5598343
  22 BEND      3  2  4                  2.2434790     128.5418781
  23 BEND      3  5  9                  1.8714809     107.2279597
  24 BEND      3  5  8                  1.8771451     107.5524923
  25 BEND      3  5  7                  2.1402100     122.6249997
  26 BEND      5  8 10                  1.9310529     110.6411800
  27 BEND      5  8 12                  1.9247257     110.2786574
  28 BEND      5  3  6                  1.9493643     111.6903469
  29 BEND      5  8 11                  1.9162232     109.7915031
  30 BEND      5  7 13                  2.1214661     121.5510515
  31 BEND      5  7 14                  2.0132307     115.3496222
  32 BEND      7  5  9                  1.7970734     102.9647202
  33 BEND      7  5  8                  1.8766675     107.5251285
  34 BEND      7 13 15                  1.9948842     114.2984453
  35 BEND      7 13 16                  2.0821975     119.3011273
  36 BEND      8  5  9                  1.8890469     108.2344139
  37 BEND     10  8 11                  1.9056389     109.1850663
  38 BEND     10  8 12                  1.8927448     108.4462878
  39 BEND     11  8 12                  1.8928172     108.4504395
  40 BEND     13  7 14                  2.1456852     122.9387069
  41 BEND     15 13 16                  2.0504935     117.4846207
  42 TORSION   1  2  3  6                .0359016       2.0570125
  43 TORSION   1  2  3  5               3.1067368     178.0029069
  44 TORSION   2  3  5  9               1.8066831     103.5153143
  45 TORSION   2  3  5  8              -2.4482313    -140.2733227
  46 TORSION   3  5  7 14               2.9579440     169.4777049
  47 TORSION   3  5  8 10               1.1569711      66.2895588
  48 TORSION   3  5  8 11              -3.0216699    -173.1289297
  49 TORSION   3  5  8 12               -.9370169     -53.6871135
  50 TORSION   4  2  3  6              -3.1202984    -178.7799270
  51 TORSION   4  2  3  5               -.0494632      -2.8340326
  52 TORSION   5  7 13 15               3.0707223     175.9394304
  53 TORSION   5  7 13 16                .5135540      29.4244792
  54 TORSION   6  3  5  8                .6230398      35.6975498
  55 TORSION   6  3  5  9              -1.4052311     -80.5138132
  56 TORSION   6  3  5  7               2.8094717     160.9708725
  57 TORSION   7  5  8 12               3.0099063     172.4549251
  58 TORSION   7  5  8 10              -1.1792911     -67.5684026
  59 TORSION   7  5  8 11                .9252533      53.0131089
  60 TORSION   8  5  7 14              -1.1385961     -65.2367489
  61 TORSION   8  5  7 13               1.9248459     110.2855462
  62 TORSION   9  5  8 12               1.0796766      61.8609120
  63 TORSION   9  5  8 10              -3.1095208    -178.1624157
  64 TORSION   9  5  7 14                .8540168      48.9315573
  65 TORSION   9  5  7 13              -2.3657266    -135.5461476
  66 TORSION   9  5  8 11              -1.0049764     -57.5809042
  67 TORSION  14  7 13 16              -2.7122054    -155.3979239
  68 TORSION  14  7 13 15               -.1550371      -8.8829728
 ...... END OF ONE-ELECTRON INTEGRALS ......
 ON NODE 0, STEP CPU TIME =      .05 TOTAL CPU TIME =         .1 (     .0 MIN)
 TOTAL WALL CLOCK TIME=        1.0 SECONDS, CPU UTILIZATION IS   9.00%

          -------------
          GUESS OPTIONS
          -------------
          GUESS =HUCKEL            NORB  =       0          NORDER=       0
          MIX   =       F          PRTMO =       F          PUNMO =       F
          TOLZ  = 1.0E-08          TOLE  = 1.0E-05
          SYMDEN=       F          PURIFY=       F

 INITIAL GUESS ORBITALS GENERATED BY HUCKEL   ROUTINE.
 HUCKEL GUESS REQUIRES    206464 WORDS.

 SYMMETRIES FOR INITIAL GUESS ORBITALS FOLLOW.   BOTH SET(S).
    31 ORBITALS ARE OCCUPIED (    8 CORE ORBITALS).
     9=A       10=A       11=A       12=A       13=A       14=A       15=A   
    16=A       17=A       18=A       19=A       20=A       21=A       22=A   
    23=A       24=A       25=A       26=A       27=A       28=A       29=A   
    30=A       31=A       32=A       33=A       34=A       35=A       36=A   
    37=A       38=A       39=A       40=A       41=A   
 ...... END OF INITIAL ORBITAL SELECTION ......
 ON NODE 0, STEP CPU TIME =      .25 TOTAL CPU TIME =         .3 (     .0 MIN)
 TOTAL WALL CLOCK TIME=        2.0 SECONDS, CPU UTILIZATION IS  17.00%

                    ----------------------
                    AO INTEGRAL TECHNOLOGY
                    ----------------------
     S,P,L SHELL ROTATED AXIS INTEGRALS, REPROGRAMMED BY
        KAZUYA ISHIMURA (IMS) AND JOSE SIERRA (SYNSTAR).
     S,P,D,L SHELL ROTATED AXIS INTEGRALS PROGRAMMED BY
        KAZUYA ISHIMURA (INSTITUTE FOR MOLECULAR SCIENCE).
     S,P,D,F,G SHELL TO TOTAL QUARTET ANGULAR MOMENTUM SUM 5,
        ERIC PROGRAM BY GRAHAM FLETCHER (ELORET AND NASA ADVANCED
        SUPERCOMPUTING DIVISION, AMES RESEARCH CENTER).
     S,P,D,F,G,L SHELL GENERAL RYS QUADRATURE PROGRAMMED BY
        MICHEL DUPUIS (PACIFIC NORTHWEST NATIONAL LABORATORY).
  ...... END OF TWO-ELECTRON INTEGRALS .....
 ON NODE 0, STEP CPU TIME =      .04 TOTAL CPU TIME =         .4 (     .0 MIN)
 TOTAL WALL CLOCK TIME=        3.0 SECONDS, CPU UTILIZATION IS  12.67%

          --------------------------
             R-B3LYP SCF CALCULATION
          --------------------------
           DENSITY MATRIX CONV=  2.00E-05
     DFT GRID SWITCH THRESHOLD=  3.00E-04
      DFT SWITCH OFF THRESHOLD=  5.00E-03

 DIRECT SCF CALCULATION, SCHWRZ=T   FDIFF=T,  DIRTHR=   .00E+00 NITDIR=10

 DFT CODE IS SWITCHING FROM 96 12 24 TO THE COARSER GRID 24  8 16

     EXCHANGE FUNCTIONAL   =B88&HFX   
     CORRELATION FUNCTIONAL=LYP88&VWN5
     DFT THRESHOLD         =.203E-07
     GRID CHANGE THRESHOLD =.300E-03
 DFT IS SWITCHED OFF, PERFORMING PURE SCF UNTIL SWOFF THRESHOLD IS REACHED.

                                                                                   NONZERO     BLOCKS
 ITER EX DEM     TOTAL ENERGY        E CHANGE  DENSITY CHANGE    DIIS ERROR      INTEGRALS    SKIPPED
          * * *   INITIATING DIIS PROCEDURE   * * *
   1  0  0     -413.4195517217  -413.4195517217    .363351721    .414781488       62094355     691892
   2  1  0     -414.5688146848    -1.1492629631    .196239379    .100019381       62503367     698638
   3  2  0     -414.7334647549     -.1646500701    .088559583    .053969737       61670255     781434
   4  3  0     -414.8092465844     -.0757818295    .010751339    .006879177       60623800     857558
   5  4  0     -414.8107547033     -.0015081189    .005281115    .002013664       58322493     993581
   6  5  0     -414.8109606609     -.0002059576    .002457079    .000766015       56465293    1093982
 CONVERGED TO SWOFF, SO DFT CALCULATION IS NOW SWITCHED ON.
          * * *   INITIATING DIIS PROCEDURE   * * *
   7  6  0     -416.9545945033    -2.1436338424    .141027177    .088268684       62469808     687960
   8  7  0     -416.9961722845     -.0415777812    .054158055    .018241559       61667563     781674
   9  8  0     -416.9901586274      .0060136570    .044019563    .026483187       60319664     873794
  10  9  0     -417.0039912040     -.0138325766    .009922398    .006176894       59629155     917262
  11 10  0     -417.0047549064     -.0007637024    .002172702    .000894439       57295467    1043615
  12 11  0     -417.0047738745     -.0000189681    .000704711    .000252065       53689850    1234776
  13 12  0     -417.0047756140     -.0000017394    .000242616    .000107315       50998686    1347750
 DFT CODE IS SWITCHING BACK TO THE FINER GRID
          * * *   INITIATING DIIS PROCEDURE   * * *
  14 13  0     -417.0071647055     -.0023890915    .004335095    .000981640       62543636     676404
  15 14  0     -417.0071966708     -.0000319653    .001294902    .000243651       56805753    1077958
  16 15  0     -417.0071950065      .0000016643    .000844304    .000405141       52024704    1305634
  17 16  0     -417.0071978165     -.0000028099    .000188315    .000097635       50450766    1373963
  18 17  0     -417.0071979136     -.0000000971    .000036849    .000021097       46305876    1561900
  19 18  0     -417.0071979203     -.0000000067    .000008484    .000004638       41518347    1764175
  20 19  0     -417.0071979209     -.0000000006    .000004351    .000002536       37656131    1929083

          -----------------
          DENSITY CONVERGED
          -----------------
     TIME TO FORM FOCK OPERATORS=      35.0 SECONDS (       1.7 SEC/ITER)
     FOCK TIME ON FIRST ITERATION=       1.5, LAST ITERATION=       1.9
     TIME TO SOLVE SCF EQUATIONS=       1.5 SECONDS (        .1 SEC/ITER)

 FINAL R-B3LYP ENERGY IS     -417.0071979209 AFTER  20 ITERATIONS
 DFT EXCHANGE + CORRELATION ENERGY =       -44.9612813772
 TOTAL ELECTRON NUMBER             =        62.0003002829
 ...... END OF RHF CALCULATION ......
 ON NODE 0, STEP CPU TIME =    36.82 TOTAL CPU TIME =       37.2 (     .6 MIN)
 TOTAL WALL CLOCK TIME=       51.0 SECONDS, CPU UTILIZATION IS  72.94%
 ..... END OF 1-ELECTRON GRADIENT ......
 ON NODE 0, STEP CPU TIME =      .05 TOTAL CPU TIME =       37.3 (     .6 MIN)
 TOTAL WALL CLOCK TIME=       51.0 SECONDS, CPU UTILIZATION IS  73.04%

 GRID DFT GRADIENT REQUIRES    635601 WORDS OF MEMORY.
 ON NODE 0, STEP CPU TIME =     3.28 TOTAL CPU TIME =       40.5 (     .7 MIN)
 TOTAL WALL CLOCK TIME=       54.0 SECONDS, CPU UTILIZATION IS  75.06%

 ...... END OF 2-ELECTRON GRADIENT ......
 ON NODE 0, STEP CPU TIME =     2.04 TOTAL CPU TIME =       42.6 (     .7 MIN)
 TOTAL WALL CLOCK TIME=       56.0 SECONDS, CPU UTILIZATION IS  76.02%

          NSERCH=  0     ENERGY=    -417.0071979

                                 -----------------------
                                 GRADIENT (HARTREE/BOHR)
                                 -----------------------
        ATOM     ZNUC       DE/DX         DE/DY         DE/DZ
 --------------------------------------------------------------
  1  H1           1.0      .0142368     -.0126525     -.0020583
  2  C2           6.0     -.0017931     -.0232581      .0027744
  3  N3           7.0     -.0151423      .0048725     -.0039199
  4  O4           8.0      .0031517      .0518798      .0001772
  5  C5           6.0      .0065988      .0008332     -.0081928
  6  H6           1.0      .0043370     -.0223894     -.0018913
  7  C7           6.0      .0273914     -.0075403     -.0051016
  8  C8           6.0      .0058307      .0048343      .0049742
  9  H9           1.0     -.0037200     -.0025453      .0150123
 10  H10          1.0      .0021873      .0025484     -.0125896
 11  H11          1.0     -.0135559      .0018078      .0027419
 12  H12          1.0      .0033931     -.0125654      .0029285
 13  N13          7.0     -.0000480     -.0078196     -.0093334
 14  O14          8.0     -.0478776      .0038101      .0145530
 15  H15          1.0     -.0107199      .0185739     -.0010935
 16  H16          1.0      .0257300     -.0003894      .0010189


                     --------------------
                     INTERNAL COORDINATES
                     --------------------

                 - - ATOMS - -         COORDINATE        GRADIENT
 NO.   TYPE    I  J  K  L  M  N         (ANG,DEG)     (H/B,H/RAD)
 ----------------------------------------------------------------
   1 SYM.CRD.                           -.1385383        .0000000
   2 SYM.CRD.                           -.1385383        .0000000
   3 SYM.CRD.                            .6163790        .0022504
   4 SYM.CRD.                           1.8847163       -.0153295
   5 SYM.CRD.                           -.8726681        .0041122
   6 SYM.CRD.                          -2.1269278        .0185430
   7 SYM.CRD.                            .7401566       -.0114948
   8 SYM.CRD.                          -1.1496617        .0158105
   9 SYM.CRD.                            .8894925       -.0131946
  10 SYM.CRD.                           -.4047036        .0066681
  11 SYM.CRD.                           -.1339187        .0072988
  12 SYM.CRD.                            .6234478       -.0195538
  13 SYM.CRD.                            .0781563        .0038286
  14 SYM.CRD.                           1.4422543       -.0285051
  15 SYM.CRD.                            .3443809       -.0113621
  16 SYM.CRD.                            .4457895       -.0305751
  17 SYM.CRD.                           1.6611109       -.0491090
  18 SYM.CRD.                           1.8471522       -.0205461
  19 SYM.CRD.                            .2458281        .0197539
  20 SYM.CRD.                          -1.8733121        .0253213
  21 SYM.CRD.                            .4075209       -.0091242
  22 SYM.CRD.                            .2047802        .0043935
  23 SYM.CRD.                            .5056395        .0003536
  24 SYM.CRD.                            .7838027       -.0125383
  25 SYM.CRD.                           -.3531723        .0050155
  26 SYM.CRD.                           -.3315032       -.0069686
  27 SYM.CRD.                           -.5785028       -.0057948
  28 SYM.CRD.                            .2289133       -.0250410
  29 SYM.CRD.                           -.3544309        .0075601
  30 SYM.CRD.                           1.7909283        .0004171
  31 SYM.CRD.                          -1.6653392        .0059191
  32 SYM.CRD.                          -1.1481449       -.0161779
  33 SYM.CRD.                           -.1379944       -.0109127
  34 SYM.CRD.                           -.4081712        .0056325
  35 SYM.CRD.                            .4640221       -.0121421
  36 SYM.CRD.                            .1213888        .0083379
  37 SYM.CRD.                           -.8750128        .0006613
  38 SYM.CRD.                           -.3544422        .0017545
  39 SYM.CRD.                            .3115796       -.0006632
  40 SYM.CRD.                            .5460490       -.0001761
  41 SYM.CRD.                            .7035756       -.0019409
  42 SYM.CRD.                            .1780912        .0121619

 NOTE: CARTESIAN GRADIENTS ARE ALWAYS TAKEN TO TEST CONVERGENCE,
       SO THE FOLLOWING GRADIENTS ARE CARTESIAN.

          MAXIMUM GRADIENT =   .0518798    RMS GRADIENT =  .0144742
          FORCE CONSTANT MATRIX NOT UPDATED --- TAKING FIRST STEP
          MIN SEARCH, CORRECT HESSIAN, TRYING PURE NR STEP
               NR STEP HAS LENGTH         =    .217605
          RADIUS OF STEP TAKEN=    .21761  CURRENT TRUST RADIUS=    .30000
          TRANSFORMING DISPLACEMENT FROM INTERNALS TO CARTESIANS
          THE ROOT MEAN SQUARE ERROR IN ITERATION   1 IS    .00230760
          THE ROOT MEAN SQUARE ERROR IN ITERATION   2 IS    .00000433
          THE ROOT MEAN SQUARE ERROR IN ITERATION   3 IS    .00000000

 BEGINNING GEOMETRY SEARCH POINT NSERCH=   1 ...

 COORDINATES OF ALL ATOMS ARE (ANGS)
   ATOM   CHARGE       X              Y              Z
 ------------------------------------------------------------
 H1          1.0  -3.0145955280    .8982499701    .1242799862
 C2          6.0  -2.1002236315    .2743812834   -.0326806153
 N3          7.0   -.9984431371   1.0695456980   -.1542838538
 O4          8.0  -2.1707804077   -.9657080599   -.0860662209
 C5          6.0    .4464050950    .8076257691   -.3369054127
 H6          1.0  -1.2050511416   2.0673546154   -.0475381732
 C7          6.0   1.0579774697   -.5939646260   -.0937686971
 C8          6.0   1.2234411312   1.8155859678    .5250299843
 H9          1.0    .6881282529   1.0062678622  -1.3956755179
 H10         1.0   1.0389745451   1.6314744205   1.5960968395
 H11         1.0   2.2981223102   1.7205993491    .3202003175
 H12         1.0    .9117826971   2.8481444784    .2888212608
 N13         7.0    .3316209584  -1.5269102188    .5840970848
 O14         8.0   2.2333901463   -.7546045222   -.4663863209
 H15         1.0    .7793125643  -2.4457509039    .6470680934
 H16         1.0   -.6980035537  -1.4978660074    .5282368510


                     --------------------
                     INTERNAL COORDINATES
                     --------------------

                 - - ATOMS - -         COORDINATE      COORDINATE
 NO.   TYPE    I  J  K  L  M  N        (BOHR,RAD)       (ANG,DEG)
 ----------------------------------------------------------------
   1 TORSION   2  3  5  7               -.2617994     -15.0000000
   2 TORSION   3  5  7 13               -.2617994     -15.0000000
   3 STRETCH   1  2                     2.1127143       1.1180003
   4 STRETCH   2  4                     2.3493861       1.2432417
   5 STRETCH   2  3                     2.5779312       1.3641826
   6 STRETCH   3  6                     1.9361201       1.0245507
   7 STRETCH   3  5                     2.7962448       1.4797091
   8 STRETCH   5  8                     2.9047132       1.5371081
   9 STRETCH   5  9                     2.0863147       1.1040303
  10 STRETCH   5  7                     2.9260818       1.5484159
  11 STRETCH   7 14                     2.3498376       1.2434806
  12 STRETCH   7 13                     2.5754984       1.3628952
  13 STRETCH   8 12                     2.0865028       1.1041298
  14 STRETCH   8 11                     2.0751887       1.0981427
  15 STRETCH   8 10                     2.0830826       1.1023199
  16 STRETCH  13 16                     1.9493424       1.0315477
  17 STRETCH  13 15                     1.9351581       1.0240417
  18 BEND      1  2  3                  1.9260174     110.3526684
  19 BEND      1  2  4                  2.1132279     121.0790370
  20 BEND      2  3  5                  2.3412309     134.1426472
  21 BEND      2  3  6                  1.9774277     113.2982642
  22 BEND      3  2  4                  2.2439020     128.5661167
  23 BEND      3  5  9                  1.8758009     107.4754755
  24 BEND      3  5  8                  1.8842324     107.9585659
  25 BEND      3  5  7                  2.1252811     121.7696361
  26 BEND      5  8 10                  1.9291497     110.5321350
  27 BEND      5  8 12                  1.9289984     110.5234658
  28 BEND      5  3  6                  1.9629208     112.4670763
  29 BEND      5  8 11                  1.9107078     109.4754930
  30 BEND      5  7 13                  2.0797041     119.1582648
  31 BEND      5  7 14                  2.0299939     116.3100848
  32 BEND      7  5  9                  1.7997645     103.1189117
  33 BEND      7  5  8                  1.8816350     107.8097422
  34 BEND      7 13 15                  1.9952225     114.3178304
  35 BEND      7 13 16                  2.0780176     119.0616381
  36 BEND      8  5  9                  1.8850388     108.0047697
  37 BEND     10  8 11                  1.9076902     109.3025947
  38 BEND     10  8 12                  1.8931779     108.4711046
  39 BEND     11  8 12                  1.8935959     108.4950557
  40 BEND     13  7 14                  2.1704864     124.3597104
  41 BEND     15 13 16                  2.0543851     117.7075946
  42 TORSION   1  2  3  6                .0356162       2.0406600
  43 TORSION   1  2  3  5               3.1101013     178.1956768
  44 TORSION   2  3  5  9               1.8038041     103.3503603
  45 TORSION   2  3  5  8              -2.4499869    -140.3739102
  46 TORSION   3  5  7 14               2.9593296     169.5570969
  47 TORSION   3  5  8 10               1.1524640      66.0313241
  48 TORSION   3  5  8 11              -3.0284014    -173.5146161
  49 TORSION   3  5  8 12               -.9436065     -54.0646704
  50 TORSION   4  2  3  6              -3.1154008    -178.4993156
  51 TORSION   4  2  3  5               -.0409157      -2.3442987
  52 TORSION   5  7 13 15               3.0721342     176.0203246
  53 TORSION   5  7 13 16                .5134867      29.4206200
  54 TORSION   6  3  5  8                .6249084      35.8046123
  55 TORSION   6  3  5  9              -1.4044859     -80.4711172
  56 TORSION   6  3  5  7               2.8130959     161.1785225
  57 TORSION   7  5  8 12               3.0135557     172.6640208
  58 TORSION   7  5  8 10              -1.1735591     -67.2399848
  59 TORSION   7  5  8 11                .9287608      53.2140750
  60 TORSION   8  5  7 14              -1.1344891     -65.0014368
  61 TORSION   8  5  7 13               1.9275672     110.4414663
  62 TORSION   9  5  8 12               1.0797560      61.8654614
  63 TORSION   9  5  8 10              -3.1073588    -178.0385441
  64 TORSION   9  5  7 14                .8568152      49.0918945
  65 TORSION   9  5  7 13              -2.3643138    -135.4652024
  66 TORSION   9  5  8 11              -1.0050388     -57.5844844
  67 TORSION  14  7 13 16              -2.7144895    -155.5287945
  68 TORSION  14  7 13 15               -.1558420      -8.9290899
 ...... END OF ONE-ELECTRON INTEGRALS ......
 ON NODE 0, STEP CPU TIME =      .05 TOTAL CPU TIME =       42.6 (     .7 MIN)
 TOTAL WALL CLOCK TIME=       56.0 SECONDS, CPU UTILIZATION IS  76.11%
  ...... END OF TWO-ELECTRON INTEGRALS .....
 ON NODE 0, STEP CPU TIME =      .11 TOTAL CPU TIME =       42.7 (     .7 MIN)
 TOTAL WALL CLOCK TIME=       57.0 SECONDS, CPU UTILIZATION IS  74.96%

          --------------------------
             R-B3LYP SCF CALCULATION
          --------------------------
           DENSITY MATRIX CONV=  1.00E-04
     DFT GRID SWITCH THRESHOLD=  1.50E-03
      DFT SWITCH OFF THRESHOLD=  5.00E-03

 DIRECT SCF CALCULATION, SCHWRZ=T   FDIFF=T,  DIRTHR=   .00E+00 NITDIR=10

 DFT CODE IS SWITCHING FROM 96 12 24 TO THE COARSER GRID 24  8 16

     EXCHANGE FUNCTIONAL   =B88&HFX   
     CORRELATION FUNCTIONAL=LYP88&VWN5
     DFT THRESHOLD         =.203E-07
     GRID CHANGE THRESHOLD =.300E-03

                                                                                   NONZERO     BLOCKS
 ITER EX DEM     TOTAL ENERGY        E CHANGE  DENSITY CHANGE    DIIS ERROR      INTEGRALS    SKIPPED
          * * *   INITIATING DIIS PROCEDURE   * * *
   1  0  0     -417.0015249073  -417.0015249073    .036076963    .014300111       62215083     693855
   2  1  0     -417.0094402794     -.0079153721    .013436824    .004628235       59874449     901720
   3  2  0     -417.0095148483     -.0000745689    .010699516    .004562321       57659246    1026652
   4  3  0     -417.0099031174     -.0003882692    .005063569    .002635605       56379126    1098214
   5  4  0     -417.0099844962     -.0000813787    .000943384    .000438627       54346469    1196326
 DFT CODE IS SWITCHING BACK TO THE FINER GRID
          * * *   INITIATING DIIS PROCEDURE   * * *
   6  5  0     -417.0123761334     -.0023916372    .004487504    .000939187       62202293     694381
   7  6  0     -417.0124013875     -.0000252541    .001244932    .000331082       56190730    1108484
   8  7  0     -417.0123979641      .0000034234    .000941275    .000523848       52622388    1285046
   9  8  0     -417.0124040525     -.0000060884    .000205692    .000094683       51229418    1345359
  10  9  0     -417.0124042544     -.0000002020    .000040819    .000019781       46404867    1553022
  11 10  0     -417.0124042644     -.0000000099    .000007523    .000004522       42616668    1725193

          -----------------
          DENSITY CONVERGED
          -----------------
     TIME TO FORM FOCK OPERATORS=      21.5 SECONDS (       2.0 SEC/ITER)
     FOCK TIME ON FIRST ITERATION=       1.5, LAST ITERATION=       2.0
     TIME TO SOLVE SCF EQUATIONS=        .8 SECONDS (        .1 SEC/ITER)

 FINAL R-B3LYP ENERGY IS     -417.0124042644 AFTER  11 ITERATIONS
 DFT EXCHANGE + CORRELATION ENERGY =       -44.8058758262
 TOTAL ELECTRON NUMBER             =        62.0005623049
 ...... END OF RHF CALCULATION ......
 ON NODE 0, STEP CPU TIME =    22.66 TOTAL CPU TIME =       65.4 (    1.1 MIN)
 TOTAL WALL CLOCK TIME=       86.0 SECONDS, CPU UTILIZATION IS  76.03%
 ..... END OF 1-ELECTRON GRADIENT ......
 ON NODE 0, STEP CPU TIME =      .06 TOTAL CPU TIME =       65.4 (    1.1 MIN)
 TOTAL WALL CLOCK TIME=       86.0 SECONDS, CPU UTILIZATION IS  76.10%

 GRID DFT GRADIENT REQUIRES    635601 WORDS OF MEMORY.
 ON NODE 0, STEP CPU TIME =     3.23 TOTAL CPU TIME =       68.7 (    1.1 MIN)
 TOTAL WALL CLOCK TIME=       90.0 SECONDS, CPU UTILIZATION IS  76.31%

 ...... END OF 2-ELECTRON GRADIENT ......
 ON NODE 0, STEP CPU TIME =     2.06 TOTAL CPU TIME =       70.7 (    1.2 MIN)
 TOTAL WALL CLOCK TIME=       92.0 SECONDS, CPU UTILIZATION IS  76.89%

          NSERCH=  1     ENERGY=    -417.0124043

                                 -----------------------
                                 GRADIENT (HARTREE/BOHR)
                                 -----------------------
        ATOM     ZNUC       DE/DX         DE/DY         DE/DZ
 --------------------------------------------------------------
  1  H1           1.0     -.0017780      .0024803      .0011991
  2  C2           6.0     -.0019073      .0142075      .0047067
  3  N3           7.0      .0070279      .0021750     -.0075517
  4  O4           8.0      .0029592     -.0273371     -.0017517
  5  C5           6.0     -.0024044     -.0003312      .0041947
  6  H6           1.0     -.0004726      .0071105      .0007926
  7  C7           6.0     -.0172156      .0111472      .0025298
  8  C8           6.0      .0006531     -.0008707      .0000579
  9  H9           1.0      .0005832     -.0001246      .0002212
 10  H10          1.0     -.0003846      .0002618      .0004297
 11  H11          1.0      .0007558      .0007690     -.0001086
 12  H12          1.0     -.0004735     -.0001307     -.0000111
 13  N13          7.0     -.0111222      .0008312      .0016470
 14  O14          8.0      .0259424     -.0042292     -.0094190
 15  H15          1.0      .0020690     -.0061351      .0008520
 16  H16          1.0     -.0042325      .0001762      .0022114


                     --------------------
                     INTERNAL COORDINATES
                     --------------------

                 - - ATOMS - -         COORDINATE        GRADIENT
 NO.   TYPE    I  J  K  L  M  N         (ANG,DEG)     (H/B,H/RAD)
 ----------------------------------------------------------------
   1 SYM.CRD.                           -.1385383        .0000000
   2 SYM.CRD.                           -.1385383        .0000000
   3 SYM.CRD.                            .6124063        .0038889
   4 SYM.CRD.                           1.9019932       -.0025140
   5 SYM.CRD.                           -.8758834       -.0077217
   6 SYM.CRD.                          -2.1506724       -.0051027
   7 SYM.CRD.                            .7566373        .0027416
   8 SYM.CRD.                          -1.1707639       -.0046313
   9 SYM.CRD.                            .9031443        .0076573
  10 SYM.CRD.                           -.4132721       -.0030834
  11 SYM.CRD.                           -.1405646       -.0034760
  12 SYM.CRD.                            .6448508        .0093172
  13 SYM.CRD.                            .0736980       -.0020702
  14 SYM.CRD.                           1.4759852        .0121646
  15 SYM.CRD.                            .3570521        .0049666
  16 SYM.CRD.                            .4785072        .0175971
  17 SYM.CRD.                           1.7168894        .0225096
  18 SYM.CRD.                           1.8781619        .0001605
  19 SYM.CRD.                            .2208552       -.0069284
  20 SYM.CRD.                          -1.9132099       -.0031669
  21 SYM.CRD.                            .4131421        .0067939
  22 SYM.CRD.                            .1990826       -.0005892
  23 SYM.CRD.                            .5056907       -.0007053
  24 SYM.CRD.                            .7984812        .0043180
  25 SYM.CRD.                           -.3591144       -.0044909
  26 SYM.CRD.                           -.3273633        .0025535
  27 SYM.CRD.                           -.5834019        .0095953
  28 SYM.CRD.                            .2519083        .0165588
  29 SYM.CRD.                           -.3546859       -.0060297
  30 SYM.CRD.                           1.7900255       -.0000774
  31 SYM.CRD.                          -1.6747124        .0007163
  32 SYM.CRD.                          -1.1286484        .0023377
  33 SYM.CRD.                           -.1295884        .0065234
  34 SYM.CRD.                           -.4110365       -.0037349
  35 SYM.CRD.                            .4675127        .0073442
  36 SYM.CRD.                            .1145260       -.0030823
  37 SYM.CRD.                           -.8725797       -.0013389
  38 SYM.CRD.                           -.3554414        .0002988
  39 SYM.CRD.                            .3126891        .0006406
  40 SYM.CRD.                            .5491922        .0002623
  41 SYM.CRD.                            .7070365       -.0013605
  42 SYM.CRD.                            .1517507       -.0334880

 NOTE: CARTESIAN GRADIENTS ARE ALWAYS TAKEN TO TEST CONVERGENCE,
       SO THE FOLLOWING GRADIENTS ARE CARTESIAN.

          MAXIMUM GRADIENT =   .0273371    RMS GRADIENT =  .0074525
          HESSIAN UPDATED USING THE BFGS FORMULA
             ACTUAL ENERGY CHANGE WAS   -.0052063435
          PREDICTED ENERGY CHANGE WAS   -.0101413054 RATIO=   .513
          MIN SEARCH, CORRECT HESSIAN, TRYING PURE NR STEP
               NR STEP HAS LENGTH         =    .101289
          RADIUS OF STEP TAKEN=    .10129  CURRENT TRUST RADIUS=    .21761
          TRANSFORMING DISPLACEMENT FROM INTERNALS TO CARTESIANS
          THE ROOT MEAN SQUARE ERROR IN ITERATION   1 IS    .00611503
          THE ROOT MEAN SQUARE ERROR IN ITERATION   2 IS    .00000211
          THE ROOT MEAN SQUARE ERROR IN ITERATION   3 IS    .00000000

 BEGINNING GEOMETRY SEARCH POINT NSERCH=   2 ...

 COORDINATES OF ALL ATOMS ARE (ANGS)
   ATOM   CHARGE       X              Y              Z
 ------------------------------------------------------------
 H1          1.0  -3.0221609530    .9921662184    .0911794654
 C2          6.0  -2.1450514833    .3124840104   -.0451537450
 N3          7.0  -1.0045471569   1.0448231314   -.1708529105
 O4          8.0  -2.3003300324   -.9082591096   -.0746209386
 C5          6.0    .4483294707    .7765855595   -.3393482594
 H6          1.0  -1.1863637540   2.0452747833   -.0785442694
 C7          6.0   1.1032451787   -.6094290822   -.0872879000
 C8          6.0   1.2051768437   1.7968774215    .5263642290
 H9          1.0    .6924316666    .9703895663  -1.4012566002
 H10         1.0   1.0146802876   1.6117278851   1.5979268874
 H11         1.0   2.2834385997   1.7112692531    .3280328101
 H12         1.0    .8841659470   2.8279990644    .2862338055
 N13         7.0    .4396158268  -1.5789786698    .5877739604
 O14         8.0   2.2720291418   -.7154842901   -.4571366279
 H15         1.0    .9389376976  -2.4678823311    .6408094569
 H16         1.0   -.5900296070  -1.6053323284    .5323419579


                     --------------------
                     INTERNAL COORDINATES
                     --------------------

                 - - ATOMS - -         COORDINATE      COORDINATE
 NO.   TYPE    I  J  K  L  M  N        (BOHR,RAD)       (ANG,DEG)
 ----------------------------------------------------------------
   1 TORSION   2  3  5  7               -.2617994     -15.0000000
   2 TORSION   3  5  7 13               -.2617994     -15.0000000
   3 STRETCH   1  2                     2.1126728       1.1179784
   4 STRETCH   2  4                     2.3261241       1.2309320
   5 STRETCH   2  3                     2.5722989       1.3612020
   6 STRETCH   3  6                     1.9294479       1.0210199
   7 STRETCH   3  5                     2.8100375       1.4870079
   8 STRETCH   5  8                     2.9050636       1.5372936
   9 STRETCH   5  9                     2.0913686       1.1067047
  10 STRETCH   5  7                     2.9357643       1.5535397
  11 STRETCH   7 14                     2.3252783       1.2304844
  12 STRETCH   7 13                     2.5606581       1.3550420
  13 STRETCH   8 12                     2.0906233       1.1063103
  14 STRETCH   8 11                     2.0781080       1.0996875
  15 STRETCH   8 10                     2.0862573       1.1039999
  16 STRETCH  13 16                     1.9492017       1.0314732
  17 STRETCH  13 15                     1.9292657       1.0209235
  18 BEND      1  2  3                  1.9193321     109.9696280
  19 BEND      1  2  4                  2.1023518     120.4558846
  20 BEND      2  3  5                  2.3921191     137.0583295
  21 BEND      2  3  6                  1.9493971     111.6922259
  22 BEND      3  2  4                  2.2614479     129.5714199
  23 BEND      3  5  9                  1.8677829     107.0160786
  24 BEND      3  5  8                  1.8728608     107.3070186
  25 BEND      3  5  7                  2.1584840     123.6720255
  26 BEND      5  8 10                  1.9287270     110.5079163
  27 BEND      5  8 12                  1.9321058     110.7015059
  28 BEND      5  3  6                  1.9401192     111.1606438
  29 BEND      5  8 11                  1.9065719     109.2385210
  30 BEND      5  7 13                  2.1091530     120.8455641
  31 BEND      5  7 14                  2.0136871     115.3757726
  32 BEND      7  5  9                  1.7915173     102.6463780
  33 BEND      7  5  8                  1.8683784     107.0501980
  34 BEND      7 13 15                  1.9925231     114.1631622
  35 BEND      7 13 16                  2.0718940     118.7107842
  36 BEND      8  5  9                  1.8918126     108.3928802
  37 BEND     10  8 11                  1.9083578     109.3408469
  38 BEND     10  8 12                  1.8932763     108.4767395
  39 BEND     11  8 12                  1.8943318     108.5372186
  40 BEND     13  7 14                  2.1570704     123.5910278
  41 BEND     15 13 16                  2.0586917     117.9543477
  42 TORSION   1  2  3  6                .0382615       2.1922203
  43 TORSION   1  2  3  5               3.1122745     178.3201951
  44 TORSION   2  3  5  9               1.8085113     103.6200622
  45 TORSION   2  3  5  8              -2.4471805    -140.2131148
  46 TORSION   3  5  7 14               2.9636378     169.8039377
  47 TORSION   3  5  8 10               1.1655475      66.7809522
  48 TORSION   3  5  8 11              -3.0174032    -172.8844661
  49 TORSION   3  5  8 12               -.9323942     -53.4222522
  50 TORSION   4  2  3  6              -3.1146183    -178.4544837
  51 TORSION   4  2  3  5               -.0406052      -2.3265089
  52 TORSION   5  7 13 15               3.0737869     176.1150191
  53 TORSION   5  7 13 16                .5211143      29.8576474
[...]
 TOTAL ELECTRON NUMBER             =        62.0004344183
 ...... END OF RHF CALCULATION ......
 ON NODE 0, STEP CPU TIME =    20.19 TOTAL CPU TIME =      706.7 (   11.8 MIN)
 TOTAL WALL CLOCK TIME=      913.0 SECONDS, CPU UTILIZATION IS  77.41%
 ..... END OF 1-ELECTRON GRADIENT ......
 ON NODE 0, STEP CPU TIME =      .06 TOTAL CPU TIME =      706.8 (   11.8 MIN)
 TOTAL WALL CLOCK TIME=      914.0 SECONDS, CPU UTILIZATION IS  77.33%

 GRID DFT GRADIENT REQUIRES    635601 WORDS OF MEMORY.
 ON NODE 0, STEP CPU TIME =     3.29 TOTAL CPU TIME =      710.1 (   11.8 MIN)
 TOTAL WALL CLOCK TIME=      917.0 SECONDS, CPU UTILIZATION IS  77.43%

 ...... END OF 2-ELECTRON GRADIENT ......
 ON NODE 0, STEP CPU TIME =     1.93 TOTAL CPU TIME =      712.0 (   11.9 MIN)
 TOTAL WALL CLOCK TIME=      919.0 SECONDS, CPU UTILIZATION IS  77.47%

          NSERCH= 24     ENERGY=    -417.0146230

                                 -----------------------
                                 GRADIENT (HARTREE/BOHR)
                                 -----------------------
        ATOM     ZNUC       DE/DX         DE/DY         DE/DZ
 --------------------------------------------------------------
  1  H1           1.0     -.0000030     -.0000053     -.0000043
  2  C2           6.0      .0001429     -.0000307      .0012184
  3  N3           7.0     -.0004175     -.0001992     -.0032395
  4  O4           8.0      .0000001      .0000007      .0000198
  5  C5           6.0      .0006219      .0006185      .0034462
  6  H6           1.0      .0000035      .0000021      .0000224
  7  C7           6.0     -.0005768     -.0006653     -.0021379
  8  C8           6.0     -.0000162     -.0000071      .0000048
  9  H9           1.0     -.0000303      .0000325      .0000021
 10  H10          1.0     -.0000008      .0000027      .0000016
 11  H11          1.0      .0000008     -.0000033      .0000031
 12  H12          1.0      .0000020      .0000029      .0000028
 13  N13          7.0      .0002940      .0002203      .0006419
 14  O14          8.0     -.0000232      .0000078      .0000000
 15  H15          1.0      .0000090      .0000058      .0000161
 16  H16          1.0     -.0000066      .0000175      .0000026


                     --------------------
                     INTERNAL COORDINATES
                     --------------------

                 - - ATOMS - -         COORDINATE        GRADIENT
 NO.   TYPE    I  J  K  L  M  N         (ANG,DEG)     (H/B,H/RAD)
 ----------------------------------------------------------------
   1 SYM.CRD.                           -.1385383        .0000000
   2 SYM.CRD.                           -.1385383        .0000000
   3 SYM.CRD.                            .4543885       -.0000040
   4 SYM.CRD.                           1.6866093       -.0000207
   5 SYM.CRD.                          -1.0769729        .0000018
   6 SYM.CRD.                          -2.0542211       -.0000196
   7 SYM.CRD.                           1.0126367        .0000139
   8 SYM.CRD.                          -1.4631387       -.0000158
   9 SYM.CRD.                           1.5030662       -.0000142
  10 SYM.CRD.                            .2421630       -.0000109
  11 SYM.CRD.                           -.3209101       -.0000018
  12 SYM.CRD.                           -.4663004       -.0000004
  13 SYM.CRD.                           -.2189440        .0000169
  14 SYM.CRD.                           1.9230570        .0000002
  15 SYM.CRD.                            .4635117        .0000171
  16 SYM.CRD.                            .3674478       -.0000179
  17 SYM.CRD.                           1.7473084       -.0000044
  18 SYM.CRD.                           1.9316891       -.0000023
  19 SYM.CRD.                           -.8618368        .0000025
  20 SYM.CRD.                          -1.2036283       -.0000141
  21 SYM.CRD.                            .2702077        .0000122
  22 SYM.CRD.                            .5020477        .0000057
  23 SYM.CRD.                            .5694935        .0000041
  24 SYM.CRD.                            .0704234       -.0000059
  25 SYM.CRD.                           -.0445932        .0000237
  26 SYM.CRD.                           -.3375445       -.0000009
  27 SYM.CRD.                           -.7282007       -.0000341
  28 SYM.CRD.                            .2871819       -.0000202
  29 SYM.CRD.                           -.3348253       -.0000215
  30 SYM.CRD.                           1.5975437       -.0000059
  31 SYM.CRD.                          -1.0202534        .0000124
  32 SYM.CRD.                           -.6219732       -.0000050
  33 SYM.CRD.                            .1231128        .0000025
  34 SYM.CRD.                           -.2494277       -.0000029
  35 SYM.CRD.                            .4035159       -.0000089
  36 SYM.CRD.                            .2924647       -.0000003
  37 SYM.CRD.                           -.8786275       -.0000106
  38 SYM.CRD.                           -.4915804       -.0000082
  39 SYM.CRD.                            .4144337        .0000074
  40 SYM.CRD.                            .6367237       -.0000190
  41 SYM.CRD.                            .6620935       -.0000186
  42 SYM.CRD.                            .2029205        .0000049

 NOTE: CARTESIAN GRADIENTS ARE ALWAYS TAKEN TO TEST CONVERGENCE,
       SO THE FOLLOWING GRADIENTS ARE CARTESIAN.

          MAXIMUM GRADIENT =   .0000463    RMS GRADIENT =  .0000170

      ***** EQUILIBRIUM GEOMETRY LOCATED *****
 COORDINATES OF ALL ATOMS ARE (ANGS)
   ATOM   CHARGE       X              Y              Z
 ------------------------------------------------------------
 H1          1.0  -3.0294642482    .9322255629   -.0450390616
 C2          6.0  -2.1191213032    .2891857886   -.0742238212
 N3          7.0  -1.0021581565   1.0533402010   -.1700682036
 O4          8.0  -2.2152589592   -.9304962921   -.0150441449
 C5          6.0    .4489107287    .7964936858   -.3328309603
 H6          1.0  -1.2139295557   2.0473401317   -.1860762739
 C7          6.0   1.0781907751   -.6040550152   -.1016689665
 C8          6.0   1.2131115396   1.8029527781    .5397037726
 H9          1.0    .6931684605   1.0042253688  -1.3898194561
 H10         1.0   1.0120549760   1.6200828310   1.6074686862
 H11         1.0   2.2887161446   1.6911358595    .3539341939
 H12         1.0    .9190525627   2.8388413295    .2977628543
 N13         7.0    .3722622666  -1.5597368524    .5460926186
 O14         8.0   2.2471184295   -.7263713244   -.4451830463
 H15         1.0    .8348477189  -2.4635082960    .5901394231
 H16         1.0   -.6533201208  -1.5406780974    .4822797993


                     --------------------
                     INTERNAL COORDINATES
                     --------------------

                 - - ATOMS - -         COORDINATE      COORDINATE
 NO.   TYPE    I  J  K  L  M  N        (BOHR,RAD)       (ANG,DEG)
 ----------------------------------------------------------------
   1 TORSION   2  3  5  7               -.2617994     -15.0000000
   2 TORSION   3  5  7 13               -.2617994     -15.0000000
   3 STRETCH   1  2                     2.1069184       1.1149333
   4 STRETCH   2  4                     2.3147169       1.2248955
   5 STRETCH   2  3                     2.5638539       1.3567331
   6 STRETCH   3  6                     1.9207828       1.0164346
   7 STRETCH   3  5                     2.8016823       1.4825865
   8 STRETCH   5  8                     2.9019938       1.5356691
   9 STRETCH   5  9                     2.0873039       1.1045537
  10 STRETCH   5  7                     2.9342315       1.5527285
  11 STRETCH   7 14                     2.3139346       1.2244815
  12 STRETCH   7 13                     2.5572524       1.3532398
  13 STRETCH   8 12                     2.0856199       1.1036626
  14 STRETCH   8 11                     2.0734855       1.0972414
  15 STRETCH   8 10                     2.0821205       1.1018108
  16 STRETCH  13 16                     1.9421516       1.0277425
  17 STRETCH  13 15                     1.9204007       1.0162324
  18 BEND      1  2  3                  1.9275218     110.4388665
  19 BEND      1  2  4                  2.1047588     120.5937940
  20 BEND      2  3  5                  2.3687838     135.7213128
  21 BEND      2  3  6                  1.9610092     112.3575489
  22 BEND      3  2  4                  2.2508861     128.9662747
  23 BEND      3  5  9                  1.8638844     106.7927105
  24 BEND      3  5  8                  1.8871861     108.1278006
  25 BEND      3  5  7                  2.1371722     122.4509452
  26 BEND      5  8 10                  1.9294764     110.5508551
  27 BEND      5  8 12                  1.9369197     110.9773254
  28 BEND      5  3  6                  1.9515363     111.8147924
  29 BEND      5  8 11                  1.9016345     108.9556318
  30 BEND      5  7 13                  2.0907626     119.7918754
  31 BEND      5  7 14                  2.0210831     115.7995305
  32 BEND      7  5  9                  1.7951527     102.8546737
  33 BEND      7  5  8                  1.8806186     107.7515086
  34 BEND      7 13 15                  1.9947362     114.2899652
  35 BEND      7 13 16                  2.0688816     118.5381862
  36 BEND      8  5  9                  1.8864190     108.0838451
  37 BEND     10  8 11                  1.9029087     109.0286354
  38 BEND     10  8 12                  1.8961072     108.6389382
  39 BEND     11  8 12                  1.8962302     108.6459874
  40 BEND     13  7 14                  2.1672738     124.1756432
  41 BEND     15 13 16                  2.0639693     118.2567283
  42 TORSION   1  2  3  6                .0104447        .5984390
  43 TORSION   1  2  3  5              -3.0580861    -175.2154275
  44 TORSION   2  3  5  9               1.7952111     102.8580211
  45 TORSION   2  3  5  8              -2.4616152    -141.0401623
  46 TORSION   3  5  7 14               2.9725531     170.3147466
  47 TORSION   3  5  8 10               1.1475967      65.7524492
  48 TORSION   3  5  8 11              -3.0447373    -174.4505955
  49 TORSION   3  5  8 12               -.9575617     -54.8642413
  50 TORSION   4  2  3  6              -3.1245213    -179.0218843
  51 TORSION   4  2  3  5                .0901332       5.1642491
  52 TORSION   5  7 13 15               3.0655203     175.6413777
  53 TORSION   5  7 13 16                .5035522      28.8514186
  54 TORSION   6  3  5  8                .7527585      43.1298824
  55 TORSION   6  3  5  9              -1.2736005     -72.9719342
  56 TORSION   6  3  5  7               2.9525743     169.1700447
  57 TORSION   7  5  8 12               2.9827371     170.8982496
  58 TORSION   7  5  8 10              -1.1952898     -68.4850599
  59 TORSION   7  5  8 11                .8955615      51.3118954
  60 TORSION   8  5  7 14              -1.1079031     -63.4781692
  61 TORSION   8  5  7 13               1.9409298     111.2070842
  62 TORSION   9  5  8 12               1.0540760      60.3941036
  63 TORSION   9  5  8 10              -3.1239510    -178.9892059
  64 TORSION   9  5  7 14                .8824530      50.5608348
  65 TORSION   9  5  7 13              -2.3518994    -134.7539118
  66 TORSION   9  5  8 11              -1.0330997     -59.1922506
  67 TORSION  14  7 13 16              -2.7390122    -156.9338374
  68 TORSION  14  7 13 15               -.1770441     -10.1438783

          INTERNUCLEAR DISTANCES (ANGS.)
          ------------------------------

                    H1             C2             N3             O4        

  1  H1               .0000000      1.1149333 *    2.0347656 *    2.0331165 *  
  2  C2              1.1149333 *     .0000000      1.3567331 *    1.2248955 *  
  3  N3              2.0347656 *    1.3567331 *     .0000000      2.3305049 *  
  4  O4              2.0331165 *    1.2248955 *    2.3305049 *     .0000000    
  5  C5              3.4928985      2.6304044 *    1.4825865 *    3.1908123    
  6  H6              2.1353075 *    1.9806539 *    1.0164346 *    3.1463347    
  7  C7              4.3859087      3.3198550      2.6607309 *    3.3107218    
  8  C8              4.3703020      3.7110879      2.4439957 *    4.4196395    
  9  H9              3.9587388      3.1860708      2.0890997 *    3.7539453    
 10  H10             4.4201592      3.7952130      2.7455217 *    4.4219404    
 11  H11             5.3868513      4.6451926      3.3928182      5.2244513    
 12  H12             4.3981225      3.9836689      2.6641942 *    4.9121953    
 13  N13             4.2580578      3.1639057      3.0381062      2.7214122 *  
 14  O14             5.5455733      4.4981125      3.7149508      4.4877053    
 15  H15             5.1833741      4.0920210      4.0398923      3.4669185    
 16  H16             3.4697808      2.4097036 *    2.6974389 *    1.7490872 *  

                    C5             H6             C7             C8        

  1  H1              3.4928985      2.1353075 *    4.3859087      4.3703020    
  2  C2              2.6304044 *    1.9806539 *    3.3198550      3.7110879    
  3  N3              1.4825865 *    1.0164346 *    2.6607309 *    2.4439957 *  
  4  O4              3.1908123      3.1463347      3.3107218      4.4196395    
  5  C5               .0000000      2.0859510 *    1.5527285 *    1.5356691 *  
  6  H6              2.0859510 *     .0000000      3.5058289      2.5449971 *  
  7  C7              1.5527285 *    3.5058289       .0000000      2.4946441 *  
  8  C8              1.5356691 *    2.5449971 *    2.4946441 *     .0000000    
  9  H9              1.1045537 *    2.4847754 *    2.0962203 *    2.1520609 *  
 10  H10             2.1817867 *    2.8903909 *    2.8057645 *    1.1018108 *  
 11  H11             2.1579886 *    3.5618843      2.6345487 *    1.0972414 *  
 12  H12             2.1885762 *    2.3259809 *    3.4696406      1.1036626 *  
 13  N13             2.5159897 *    4.0078773      1.3532398 *    3.4662299    
 14  O14             2.3590871 *    4.4429117      1.2244815 *    2.9045917 *  
 15  H15             3.4100491      5.0147535      1.9988450 *    4.2834936    
 16  H16             2.7095554 *    3.6925408      2.0533848 *    3.8297170    

                    H9             H10            H11            H12       

  1  H1              3.9587388      4.4201592      5.3868513      4.3981225    
  2  C2              3.1860708      3.7952130      4.6451926      3.9836689    
  3  N3              2.0890997 *    2.7455217 *    3.3928182      2.6641942 *  
  4  O4              3.7539453      4.4219404      5.2244513      4.9121953    
  5  C5              1.1045537 *    2.1817867 *    2.1579886 *    2.1885762 *  
  6  H6              2.4847754 *    2.8903909 *    3.5618843      2.3259809 *  
  7  C7              2.0962203 *    2.8057645 *    2.6345487 *    3.4696406    
  8  C8              2.1520609 *    1.1018108 *    1.0972414 *    1.1036626 *  
  9  H9               .0000000      3.0764761      2.4613604 *    2.5029529 *  
 10  H10             3.0764761       .0000000      1.7906035 *    1.7914662 *  
 11  H11             2.4613604 *    1.7906035 *     .0000000      1.7878371 *  
 12  H12             2.5029529 *    1.7914662 *    1.7878371 *     .0000000    
 13  N13             3.2287209      3.4127858      3.7786100      4.4393848    
 14  O14             2.5103911 *    3.3532981      2.5464995 *    3.8763990    
 15  H15             3.9956835      4.2121346      4.4080148      5.3110720    
 16  H16             3.4342861      3.7456553      4.3722616      4.6568866    

                    N13            O14            H15            H16       

  1  H1              4.2580578      5.5455733      5.1833741      3.4697808    
  2  C2              3.1639057      4.4981125      4.0920210      2.4097036 *  
  3  N3              3.0381062      3.7149508      4.0398923      2.6974389 *  
  4  O4              2.7214122 *    4.4877053      3.4669185      1.7490872 *  
  5  C5              2.5159897 *    2.3590871 *    3.4100491      2.7095554 *  
  6  H6              4.0078773      4.4429117      5.0147535      3.6925408    
  7  C7              1.3532398 *    1.2244815 *    1.9988450 *    2.0533848 *  
  8  C8              3.4662299      2.9045917 *    4.2834936      3.8297170    
  9  H9              3.2287209      2.5103911 *    3.9956835      3.4342861    
 10  H10             3.4127858      3.3532981      4.2121346      3.7456553    
 11  H11             3.7786100      2.5464995 *    4.4080148      4.3722616    
 12  H12             4.4393848      3.8763990      5.3110720      4.6568866    
 13  N13              .0000000      2.2786424 *    1.0162324 *    1.0277425 *  
 14  O14             2.2786424 *     .0000000      2.4665859 *    3.1521146    
 15  H15             1.0162324 *    2.4665859 *     .0000000      1.7543924 *  
 16  H16             1.0277425 *    3.1521146      1.7543924 *     .0000000    

  * ... LESS THAN  3.000


          NUCLEAR ENERGY    =      384.0190725767
          ELECTRONIC ENERGY =     -801.0336956007
          TOTAL ENERGY      =     -417.0146230240
  $VIB   
          IVIB=   0 IATOM=   0 ICOORD=   0 E=     -417.0146230240
 -3.014817301E-06-5.316670868E-06-4.345305914E-06 1.221059187E-05 6.746840227E-06
 -5.750877884E-06-2.129021293E-05 1.289122123E-05-4.221137717E-05 1.283919380E-07
  7.154753080E-07 1.982340436E-05 4.625707106E-05-1.773571067E-05-2.521159664E-05
  3.464857902E-06 2.111231186E-06 2.235078833E-05 2.033117345E-05-3.993573575E-05
  2.520688735E-05-1.621360638E-05-7.070926046E-06 4.827880704E-06-3.033596297E-05
  3.253272110E-05 2.081801840E-06-7.656148654E-07 2.650019932E-06 1.561532484E-06
  8.473625682E-07-3.258715299E-06 3.052410765E-06 2.008431648E-06 2.925286611E-06
  2.832597282E-06 7.100130386E-06-1.833312186E-05-2.284999170E-05-2.317242310E-05
  7.799249640E-06-1.877789578E-08 9.009626448E-06 5.782921410E-06 1.610009308E-05
 -6.564999713E-06 1.749591384E-05 2.550531014E-06
  0.000000000E+00 0.000000000E+00 0.000000000E+00
 ......END OF GEOMETRY SEARCH......
 ON NODE 0, STEP CPU TIME =      .02 TOTAL CPU TIME =      712.0 (   11.9 MIN)
 TOTAL WALL CLOCK TIME=      919.0 SECONDS, CPU UTILIZATION IS  77.48%
 1425395  WORDS OF DYNAMIC MEMORY USED
 EXECUTION OF GAMESS TERMINATED NORMALLY Thu Jun 12 13:30:04 2008
 DDI: 1128 bytes (0.0 MB / 0 MWords) used by master data server.

 ----------------------------------------
 CPU timing information for all processes
 ========================================
 0: 652.446813 + 59.514952 = 711.961765
 1: 597.034237 + 44.073299 = 641.107536
 2: 640.021701 + 21.633711 = 661.655412
 3: 637.572074 + 18.210231 = 655.782305
 4: 637.199131 + 25.170173 = 662.369304
 5: 635.070454 + 18.129243 = 653.199697
 6: 635.965318 + 21.012805 = 656.978123
 7: 632.683817 + 14.449803 = 647.133620
 8: 625.323936 + 21.220773 = 646.544709
 9: 622.900304 + 11.892192 = 634.792496
 10: 630.312177 + 15.421655 = 645.733832
 11: 627.505604 + 10.959333 = 638.464937
 12: 624.426072 + 18.072252 = 642.498324
 13: 623.460219 + 11.351274 = 634.811493
 14: 624.498061 + 14.689766 = 639.187827
 15: 623.460219 + 10.579391 = 634.039610
 16: 5.684135 + 92.493938 = 98.178073
 17: 0.004999 + 0.012998 = 0.017997
 18: 0.007998 + 0.010998 = 0.018996
 19: 0.005999 + 0.015997 = 0.021996
 20: 0.004999 + 0.023996 = 0.028995
 21: 0.005999 + 0.015997 = 0.021996
 22: 0.004999 + 0.014997 = 0.019996
 23: 0.004999 + 0.014997 = 0.019996
 24: 0.004999 + 0.020996 = 0.025995
 25: 0.010998 + 0.006998 = 0.017996
 26: 0.004999 + 0.017997 = 0.022996
 27: 0.004999 + 0.009998 = 0.014997
 28: 0.006998 + 0.016997 = 0.023995
 29: 0.003999 + 0.018997 = 0.022996
 30: 0.009998 + 0.012998 = 0.022996
 31: 0.001999 + 0.018997 = 0.020996
 ----------------------------------------
Detour socket function called.
Detour socket function called.
 ddikick.x: exited gracefully.
