----- GAMESS execution script -----
This job is running on host s04c3b08
under operating system Linux at Thu Jun 12 13:14:43 CEST 2008
Available scratch disk space (Kbyte units) at beginning of the job is
Filesystem           1K-blocks      Used Available Use% Mounted on
/dev/gpfs_scratch    3898716160 119676928 3779039232   4% /gpfs/scratch

 Distributed Data Interface kickoff program.
 Initiating 16 compute processes on 16 nodes to run the following command:
 /gpfs/apps/GAMESS/bin//gamess.02.x PESs/B3LYP/cc-pVDZ/B3LYP_Df-15_p-15.inp 

          ******************************************************
          *         GAMESS VERSION = 22 FEB 2006 (R2)          *
          *             FROM IOWA STATE UNIVERSITY             *
          * M.W.SCHMIDT, K.K.BALDRIDGE, J.A.BOATZ, S.T.ELBERT, *
          *   M.S.GORDON, J.H.JENSEN, S.KOSEKI, N.MATSUNAGA,   *
          *          K.A.NGUYEN, S.J.SU, T.L.WINDUS,           *
          *       TOGETHER WITH M.DUPUIS, J.A.MONTGOMERY       *
          *         J.COMPUT.CHEM.  14, 1347-1363(1993)        *
          ****************** IBM (AIX) VERSION *****************

     SINCE 1993, STUDENTS AND POSTDOCS WORKING AT IOWA STATE UNIVERSITY
     AND ALSO IN THEIR VARIOUS JOBS AFTER LEAVING ISU HAVE MADE IMPORTANT
     CONTRIBUTIONS TO THE CODE:
     IVANA ADAMOVIC, CHRISTINE AIKENS, YURI ALEXEEV, POOJA ARORA, ROB BELL,
     PRADIPTA BANDYOPADHYAY, BRETT BODE, GALINA CHABAN, WEI CHEN,
     CHEOL HO CHOI, PAUL DAY, TIM DUDLEY, DMITRI FEDOROV, GRAHAM FLETCHER,
     MARK FREITAG, KURT GLAESEMANN, GRANT MERRILL, TAKESHI NAGATA,
     HEATHER NETZLOFF, BOSILJKA NJEGIC, RYAN OLSON, MIKE PAK, JIM SHOEMAKER,
     LYUDMILA SLIPCHENKO, JIE SONG, TETSUYA TAKETSUGU, SIMON WEBB.

     ADDITIONAL CODE HAS BEEN PROVIDED BY COLLABORATORS IN OTHER GROUPS:
     IOWA STATE UNIVERSITY: JOE IVANIC, KLAUS RUEDENBERG
     UNIVERSITY OF TOKYO: KIMIHIKO HIRAO, HARUYUKI NAKANO, TAKAHITO
          NAKAJIMA, TAKAO TSUNEDA, MUNEAKI KAMIYA, SUSUMU YANAGISAWA,
          KIYOSHI YAGI
     UNIVERSITY OF SOUTHERN DENMARK: FRANK JENSEN
     UNIVERSITY OF IOWA: VISVALDAS KAIRYS, HUI LI
     NATIONAL INST. OF STANDARDS AND TECHNOLOGY: WALT STEVENS, DAVID GARMER
     UNIVERSITY OF PISA: BENEDETTA MENNUCCI, JACOPO TOMASI
     UNIVERSITY OF MEMPHIS: HENRY KURTZ, PRAKASHAN KORAMBATH
     UNIVERSITY OF ALBERTA: MARIUSZ KLOBUKOWSKI
     UNIVERSITY OF NEW ENGLAND: MARK SPACKMAN
     MIE UNIVERSITY: HIROAKI UMEDA
     MICHIGAN STATE UNIVERSITY:
          KAROL KOWALSKI, MARTA WLOCH, PIOTR PIECUCH
     UNIVERSITY OF SILESIA: MONIKA MUSIAL, STANISLAW KUCHARSKI
     FACULTES UNIVERSITAIRES NOTRE-DAME DE LA PAIX:
          OLIVIER QUINET, BENOIT CHAMPAGNE
     UNIVERSITY OF CALIFORNIA - SANTA BARBARA: BERNARD KIRTMAN
     INSTITUTE FOR MOLECULAR SCIENCE: KAZUYA ISHIMURA AND SHIGERU NAGASE
     UNIVERSITY OF NOTRE DAME: DAN CHIPMAN

 PARALLEL VERSION RUNNING ON    16 PROCESSORS IN    16 NODES.

 EXECUTION OF GAMESS BEGUN Thu Jun 12 13:14:45 2008

            ECHO OF THE FIRST FEW INPUT CARDS -
 INPUT CARD> $CONTRL SCFTYP=RHF RUNTYP=OPTIMIZE EXETYP=RUN                                  
 INPUT CARD>         COORD=ZMT NZVAR=42                                                     
 INPUT CARD>         QMTTOL=5.0E-6 NPRINT=-5 ICHARG=0 MULT=1                                
 INPUT CARD>         ISPHER=-1                                                              
 INPUT CARD> $END                                                                           
 INPUT CARD> $SYSTEM TIMLIM=14400 MWORDS=50 MEMDDI=0 PARALL=.T. $END                        
 INPUT CARD> $DFT DFTTYP=B3LYP $END                                                         
 INPUT CARD> $BASIS GBASIS=CCD $END                                                         
 INPUT CARD> $SCF DIRSCF=.T. FDIFF=.T. NPUNCH=0 DIIS=.T. CONV=1.0E-5 $END                   
 INPUT CARD> $GUESS GUESS=HUCKEL $END                                                       
 INPUT CARD> $STATPT NSTEP=100 OPTTOL=0.0001 NPRT=-2 NPUN=-2 $END                           
 INPUT CARD> $ZMAT DLC=.T. AUTO=.T.                                                         
 INPUT CARD>       IFZMAT(1)=3,7,5,3,2, 3,13,7,5,3                                          
 INPUT CARD>       FVALUE(1)=-15, -15                                                       
 INPUT CARD> $END                                                                           
 INPUT CARD> $DATA                                                                          
 INPUT CARD>HCO-L-Ala-NH2 - OPTIMIZE - B3LYP/cc-pVDZ - N_at = 16                            
 INPUT CARD>C1                                                                              
 INPUT CARD>H1                                                                              
 INPUT CARD>C2         1 rC2H1                                                              
 INPUT CARD>N3         2 rN3C2             1 aN3C2H1                                        
 INPUT CARD>O4         2 rO4C2             3 aO4C2N3                 1 pO4C2N3H1            
 INPUT CARD>C5         3 rC5N3             2 aC5N3C2                 1 dC5N3C2H1            
 INPUT CARD>H6         3 rH6N3             2 aH6N3C2                 5 pH6N3C2C5            
 INPUT CARD>C7         5 rC7C5             3 aC7C5N3                 2 dC7C5N3C2            
 INPUT CARD>C8         5 rC8C5             3 aC8C5N3                 7 pC8C5N3C7            
 INPUT CARD>H9         5 rH9C5             3 aH9C5N3                 7 pH9C5N3C7            
 INPUT CARD>H10        8 rH10C8            5 aH10C8C5                3 dH10C8C5N3           
 INPUT CARD>H11        8 rH11C8            5 aH11C8C5               10 pH11C8C5H10          
 INPUT CARD>H12        8 rH12C8            5 aH12C8C5               10 pH12C8C5H10          
 INPUT CARD>N13        7 rN13C7            5 aN13C7C5                3 dN13C7C5N3           
 INPUT CARD>O14        7 rO14C7            5 aO14C7C5               13 pO14C7C5N13          
 INPUT CARD>H15       13 rH15N13           7 aH15N13C7               5 dH15N13C7C5          
 INPUT CARD>H16       13 rH16N13           7 aH16N13C7              15 pH16N13C7H15         
 INPUT CARD>                                                                                
 INPUT CARD>rC2H1         1.0889743331                                                      
 INPUT CARD>rN3C2         1.3394412977                                                      
 INPUT CARD>rO4C2         1.1949195168                                                      
 INPUT CARD>rC5N3         1.4715526971                                                      
 INPUT CARD>rH6N3         0.9914777727                                                      
 INPUT CARD>rC7C5         1.5364411325                                                      
 INPUT CARD>rC8C5         1.5307685736                                                      
 INPUT CARD>rH9C5         1.0805256411                                                      
 INPUT CARD>rH10C8        1.0827052097                                                      
 INPUT CARD>rH11C8        1.0773852597                                                      
 INPUT CARD>rH12C8        1.0840000558                                                      
 INPUT CARD>rN13C7        1.3406756284                                                      
 INPUT CARD>rO14C7        1.1966494931                                                      
 INPUT CARD>rH15N13       0.9929237138                                                      
 INPUT CARD>rH16N13       0.9941599400                                                      

 ..... DONE SETTING UP THE RUN .....
   50000000 WORDS OF MEMORY AVAILABLE

     BASIS OPTIONS
     -------------
     GBASIS=CCD          IGAUSS=       0      POLAR=NONE    
     NDFUNC=       0     NFFUNC=       0     DIFFSP=       F
     NPFUNC=       0      DIFFS=       F

     GRID-BASED DFT OPTIONS
     ----------------------
     DFTTYP=B3LYP        QOP   =    .000     PFTYP =NONE    
     NRAD  =      96     NTHE  =      12     NPHI  =      24
     NRAD0 =      24     NTHE0 =       8     NPHI0 =      16
      SWOFF=    5.00E-03 (PURE SCF -> DFT)
     SWITCH=    3.00E-04 (COARSE -> TIGHT GRID)
     THRESH=    0.00E+00 GTHRE=    1.00E+00


     RUN TITLE
     ---------
 HCO-L-Ala-NH2 - OPTIMIZE - B3LYP/cc-pVDZ - N_at = 16                            

 THE POINT GROUP OF THE MOLECULE IS C1      
 THE ORDER OF THE PRINCIPAL AXIS IS     0


