<?xml version="1.0" encoding="UTF-8"?>
<module cmlx:templateRef="gaussian.log" xmlns="http://www.xml-cml.org/schema" xmlns:cmlx="http://www.xml-cml.org/schema/cmlx"> Entering Gaussian System, Link 0=g03 Initial command: /apps/gaussian/g09/g09/l1.exe /home/scan-user-1/run/19322/Gau-4000.inp -scrdir=/home/scan-user-1/run/19322/ Entering Link 1 = /apps/gaussian/g09/g09/l1.exe PID=      4001.  <module cmlx:lineCount="48" cmlx:templateRef="l1.legal"><scalar dataType="xsd:string" dictRef="g:l1.legal">Copyright (c) 1988,1990,1992,1993,1995,1998,2003,2009, Gaussian, Inc.</scalar></module>  <module cmlx:lineCount="18" cmlx:templateRef="l1.citation"><list cmlx:templateRef="citation"><scalar dataType="xsd:string" dictRef="g:l1.citation">Cite this work as:</scalar></list></module> <module cmlx:lineCount="41" cmlx:templateRef="l1.end"><scalar dataType="xsd:string" dictRef="cc:run.date">3-Nov-2009</scalar><scalar dataType="xsd:string" dictRef="cc:program">Gaussian 09</scalar><scalar dataType="xsd:string" dictRef="cc:version">EM64L-G09RevA.02</scalar><scalar dataType="xsd:string" dictRef="cc:program.date">11-Jun-2009</scalar> Will use up to    2 processors via shared memory. %mem=3600MB %NoSave %Chk=chk.chk %rwf=/tmp/pbs.3091106.cx1/rwf<scalar dataType="xsd:string" dictRef="cc:keywords">ty)</scalar><list cmlx:templateRef="control"><scalar dataType="xsd:string" dictRef="g:control">1/10=4,14=-1,18=120,22=2,26=1,38=1,42=50,44=3,57=2,71=1/1,23</scalar></list><list cmlx:templateRef="control"><scalar dataType="xsd:string" dictRef="g:control">2/9=110,12=2,17=6,18=5,29=1,40=1/2</scalar></list><list cmlx:templateRef="control"><scalar dataType="xsd:string" dictRef="g:control">3/5=2,16=1,25=1,41=700000,71=2/1,2,3</scalar></list><list cmlx:templateRef="control"><scalar dataType="xsd:string" dictRef="g:control">4/35=1/1</scalar></list><list cmlx:templateRef="control"><scalar dataType="xsd:string" dictRef="g:control">5/5=2,35=1,38=5/2</scalar></list><list cmlx:templateRef="control"><scalar dataType="xsd:string" dictRef="g:control">8/6=4,10=90,11=11/1</scalar></list><list cmlx:templateRef="control"><scalar dataType="xsd:string" dictRef="g:control">11/6=1,8=1,9=11,15=111,16=1/1,2,10</scalar></list><list cmlx:templateRef="control"><scalar dataType="xsd:string" dictRef="g:control">10/6=1/2</scalar></list><list cmlx:templateRef="control"><scalar dataType="xsd:string" dictRef="g:control">6/7=2,8=2,9=2,10=2,18=1,28=1/1</scalar></list><list cmlx:templateRef="control"><scalar dataType="xsd:string" dictRef="g:control">7/10=1,25=1/1,2,3,16</scalar></list><list cmlx:templateRef="control"><scalar dataType="xsd:string" dictRef="g:control">1/10=4,14=-1,18=20,22=2,42=50,44=3,71=1/23(3)</scalar></list><list cmlx:templateRef="control"><scalar dataType="xsd:string" dictRef="g:control">2/9=110,29=1/2</scalar></list><list cmlx:templateRef="control"><scalar dataType="xsd:string" dictRef="g:control">7/8=1,9=1,25=1,44=-1/16</scalar></list><list cmlx:templateRef="control"><scalar dataType="xsd:string" dictRef="g:control">99//99</scalar></list><list cmlx:templateRef="control"><scalar dataType="xsd:string" dictRef="g:control">2/9=110,29=1/2</scalar></list><list cmlx:templateRef="control"><scalar dataType="xsd:string" dictRef="g:control">3/5=2,16=1,25=1,41=700000,71=2,135=20/1,2,3</scalar></list><list cmlx:templateRef="control"><scalar dataType="xsd:string" dictRef="g:control">4/5=5,16=3,35=1/1</scalar></list><list cmlx:templateRef="control"><scalar dataType="xsd:string" dictRef="g:control">5/5=2,35=1,38=5/2</scalar></list><list cmlx:templateRef="control"><scalar dataType="xsd:string" dictRef="g:control">8/6=4,10=90,11=11/1</scalar></list><list cmlx:templateRef="control"><scalar dataType="xsd:string" dictRef="g:control">11/6=1,8=1,9=11,15=111,16=1/1,2,10</scalar></list><list cmlx:templateRef="control"><scalar dataType="xsd:string" dictRef="g:control">10/6=1/2</scalar></list><list cmlx:templateRef="control"><scalar dataType="xsd:string" dictRef="g:control">7/10=1,25=1/1,2,3,16</scalar></list><list cmlx:templateRef="control"><scalar dataType="xsd:string" dictRef="g:control">1/10=4,14=-1,18=20,22=2,42=50,44=3,71=1/23(-8)</scalar></list><list cmlx:templateRef="control"><scalar dataType="xsd:string" dictRef="g:control">2/9=110,29=1/2</scalar></list><list cmlx:templateRef="control"><scalar dataType="xsd:string" dictRef="g:control">6/7=2,8=2,9=2,10=2,18=1,19=2,28=1/1</scalar></list><list cmlx:templateRef="control"><scalar dataType="xsd:string" dictRef="g:control">7/8=1,9=1,25=1,44=-1/16</scalar></list><list cmlx:templateRef="control"><scalar dataType="xsd:string" dictRef="g:control">99//99</scalar></list></module><module cmlx:lineCount="3" cmlx:templateRef="l101.title"><scalar dataType="xsd:string" dictRef="cc:title" cmlx:templateRef="title">DA1_TS_IRC</scalar></module><module cmlx:lineCount="19" cmlx:templateRef="l101"><list cmlx:templateRef="rest"><scalar dataType="xsd:string" dictRef="x:l101"/></list></module> The following ModRedundant input section has been read: B    5   11 D                                                                  B    8   13 D                                                                  IRC-IRC-IRC-IRC-IRC-IRC-IRC-IRC-IRC-IRC-IRC-IRC-IRC-IRC-IRC-IRC-IRC-IRC ------------------------------------------------------------------------ INPUT DATA FOR L123 ------------------------------------------------------------------------ GENERAL PARAMETERS: Rxn path following direction = Reverse Maximum points per path      =  50 Step size                    =   0.100 bohr Integration scheme           = HPC                                     Redo corrector integration= Yes                                     Max correction cycles     =  20 Initial Hessian              = CalcFC Hessian evaluation           = Full Hessian always ------------------------------------------------------------------------ IRC-IRC-IRC-IRC-IRC-IRC-IRC-IRC-IRC-IRC-IRC-IRC-IRC-IRC-IRC-IRC-IRC-IRC<module cmlx:lineCount="22" cmlx:templateRef="l202.orient"><molecule id="mol.l202.orient" cmlx:templateRef="atom"><atomArray><atom id="a1" elementType="C" x3="-1.254949" y3="0.698814" z3="-0.28674"><scalar dataType="xsd:integer" dictRef="cc:serial">1</scalar><scalar dataType="xsd:integer" dictRef="g:atomicType">0</scalar><scalar dataType="xsd:integer" dictRef="compchem:atomicNumber">6</scalar></atom><atom id="a2" elementType="C" x3="-1.255112" y3="-0.698635" z3="-0.286618"><scalar dataType="xsd:integer" dictRef="cc:serial">2</scalar><scalar dataType="xsd:integer" dictRef="g:atomicType">0</scalar><scalar dataType="xsd:integer" dictRef="compchem:atomicNumber">6</scalar></atom><atom id="a3" elementType="H" x3="-1.842746" y3="1.222823" z3="-1.057467"><scalar dataType="xsd:integer" dictRef="cc:serial">3</scalar><scalar dataType="xsd:integer" dictRef="g:atomicType">0</scalar><scalar dataType="xsd:integer" dictRef="compchem:atomicNumber">1</scalar></atom><atom id="a4" elementType="H" x3="-1.843187" y3="-1.222697" z3="-1.057092"><scalar dataType="xsd:integer" dictRef="cc:serial">4</scalar><scalar dataType="xsd:integer" dictRef="g:atomicType">0</scalar><scalar dataType="xsd:integer" dictRef="compchem:atomicNumber">1</scalar></atom><atom id="a5" elementType="C" x3="1.455836" y3="-0.691611" z3="-0.252153"><scalar dataType="xsd:integer" dictRef="cc:serial">5</scalar><scalar dataType="xsd:integer" dictRef="g:atomicType">0</scalar><scalar dataType="xsd:integer" dictRef="compchem:atomicNumber">6</scalar></atom><atom id="a6" elementType="H" x3="2.000658" y3="-1.241678" z3="0.529543"><scalar dataType="xsd:integer" dictRef="cc:serial">6</scalar><scalar dataType="xsd:integer" dictRef="g:atomicType">0</scalar><scalar dataType="xsd:integer" dictRef="compchem:atomicNumber">1</scalar></atom><atom id="a7" elementType="H" x3="1.300409" y3="-1.24141" z3="-1.191695"><scalar dataType="xsd:integer" dictRef="cc:serial">7</scalar><scalar dataType="xsd:integer" dictRef="g:atomicType">0</scalar><scalar dataType="xsd:integer" dictRef="compchem:atomicNumber">1</scalar></atom><atom id="a8" elementType="C" x3="1.456051" y3="0.691302" z3="-0.252023"><scalar dataType="xsd:integer" dictRef="cc:serial">8</scalar><scalar dataType="xsd:integer" dictRef="g:atomicType">0</scalar><scalar dataType="xsd:integer" dictRef="compchem:atomicNumber">6</scalar></atom><atom id="a9" elementType="H" x3="2.000884" y3="1.241065" z3="0.529878"><scalar dataType="xsd:integer" dictRef="cc:serial">9</scalar><scalar dataType="xsd:integer" dictRef="g:atomicType">0</scalar><scalar dataType="xsd:integer" dictRef="compchem:atomicNumber">1</scalar></atom><atom id="a10" elementType="H" x3="1.300899" y3="1.241342" z3="-1.191471"><scalar dataType="xsd:integer" dictRef="cc:serial">10</scalar><scalar dataType="xsd:integer" dictRef="g:atomicType">0</scalar><scalar dataType="xsd:integer" dictRef="compchem:atomicNumber">1</scalar></atom><atom id="a11" elementType="C" x3="-0.383836" y3="-1.414206" z3="0.512377"><scalar dataType="xsd:integer" dictRef="cc:serial">11</scalar><scalar dataType="xsd:integer" dictRef="g:atomicType">0</scalar><scalar dataType="xsd:integer" dictRef="compchem:atomicNumber">6</scalar></atom><atom id="a12" elementType="H" x3="-0.272389" y3="-2.498144" z3="0.370249"><scalar dataType="xsd:integer" dictRef="cc:serial">12</scalar><scalar dataType="xsd:integer" dictRef="g:atomicType">0</scalar><scalar dataType="xsd:integer" dictRef="compchem:atomicNumber">1</scalar></atom><atom id="a13" elementType="C" x3="-0.383611" y3="1.414374" z3="0.512297"><scalar dataType="xsd:integer" dictRef="cc:serial">13</scalar><scalar dataType="xsd:integer" dictRef="g:atomicType">0</scalar><scalar dataType="xsd:integer" dictRef="compchem:atomicNumber">6</scalar></atom><atom id="a14" elementType="H" x3="-0.089307" y3="1.047382" z3="1.507484"><scalar dataType="xsd:integer" dictRef="cc:serial">14</scalar><scalar dataType="xsd:integer" dictRef="g:atomicType">0</scalar><scalar dataType="xsd:integer" dictRef="compchem:atomicNumber">1</scalar></atom><atom id="a15" elementType="H" x3="-0.272013" y3="2.498307" z3="0.370194"><scalar dataType="xsd:integer" dictRef="cc:serial">15</scalar><scalar dataType="xsd:integer" dictRef="g:atomicType">0</scalar><scalar dataType="xsd:integer" dictRef="compchem:atomicNumber">1</scalar></atom><atom id="a16" elementType="H" x3="-0.089486" y3="-1.047217" z3="1.507535"><scalar dataType="xsd:integer" dictRef="cc:serial">16</scalar><scalar dataType="xsd:integer" dictRef="g:atomicType">0</scalar><scalar dataType="xsd:integer" dictRef="compchem:atomicNumber">1</scalar></atom></atomArray><formula formalCharge="0" concise="C 6 H 10"><atomArray elementType="C H" count="6.0 10.0"/></formula><bondArray><bond atomRefs2="a1 a2" id="a1_a2" order="S"/><bond atomRefs2="a1 a3" id="a1_a3" order="S"/><bond atomRefs2="a1 a13" id="a1_a13" order="2"/><bond atomRefs2="a2 a4" id="a2_a4" order="S"/><bond atomRefs2="a2 a11" id="a2_a11" order="2"/><bond atomRefs2="a5 a6" id="a5_a6" order="S"/><bond atomRefs2="a5 a7" id="a5_a7" order="S"/><bond atomRefs2="a5 a8" id="a5_a8" order="2"/><bond atomRefs2="a8 a9" id="a8_a9" order="S"/><bond atomRefs2="a8 a10" id="a8_a10" order="S"/><bond atomRefs2="a11 a12" id="a11_a12" order="S"/><bond atomRefs2="a11 a16" id="a11_a16" order="S"/><bond atomRefs2="a13 a14" id="a13_a14" order="S"/><bond atomRefs2="a13 a15" id="a13_a15" order="S"/></bondArray><property dictRef="cml:molmass"><scalar dataType="xsd:double" units="unit:dalton" xmlns:unit="http://www.xml-cml.org/unit/si/">82.14359999999999</scalar></property></molecule></module><module cmlx:lineCount="39" cmlx:templateRef="l202.distmat"><array dataType="xsd:double" size="135" dictRef="cc:distance">0.0 1.397449 0.0 1.101867 2.152097 0.0 2.152132 1.101864 2.44552 0.0 3.046774 2.711176 3.897978 3.437082 0.0 3.876958 3.400155 4.833645 4.158475 1.100206 0.0 3.333657 2.764861 3.996234 3.146532 1.099625 1.858227 0.0 2.711233 3.046888 3.437051 3.898269 1.382913 2.15496 2.154666 0.0 3.400198 3.876933 4.158544 4.833785 2.154968 2.482743 3.101155 1.100205 0.0 2.765002 3.333986 3.146554 3.996852 2.154677 3.101119 2.482752 1.099627 1.858231 0.0 2.421214 1.381867 3.398051 2.151654 2.119208 2.390789 2.402166 2.898733 3.568986 3.576781 0.0 3.40846 2.15301 4.283689 2.476181 2.576375 2.602081 2.548086 3.680665 4.378919 4.347178 1.098882 0.0 1.381925 2.421278 2.151726 3.398159 2.898814 3.569264 3.576689 2.119286 2.39085 2.402153 2.82858 3.916675 0.0 2.167824 2.761608 3.111961 3.847909 2.916828 3.250249 3.802032 2.36871 2.315626 3.042146 2.671404 3.727945 1.10077 0.0 2.153114 3.408566 2.476344 4.283877 3.680809 4.379259 4.347125 2.576553 2.602348 2.548099 3.916692 4.996451 1.098889 1.852564 0.0 2.761585 2.167759 3.847887 3.111844 2.36875 2.315812 3.042263 2.916707 3.249876 3.802013 1.100755 1.852583 2.671411 2.094599 3.727949</array></module> Symmetry turned off by external request.<module cmlx:lineCount="1" cmlx:templateRef="l202.stoich"/> Framework group  C1[X(C6H10)] Deg. of freedom    42 Full point group                 C1      NOp   1<module cmlx:lineCount="1" cmlx:templateRef="l202.rotconst"><array dataType="xsd:double" size="3" dictRef="cc:rotconst" cmlx:templateRef="rotconst">4.3762569 3.8585238 2.4542153</array></module><module cmlx:lineCount="1" cmlx:templateRef="l301.basis"/> Integral buffers will be    131072 words long. Regular integral format. Two-electron integral symmetry is turned off.    34 basis functions,   204 primitive gaussians,    34 cartesian basis functions    17 alpha electrons       17 beta electrons       nuclear repulsion energy       142.2000052586 Hartrees. Do NDO integrals.<module cmlx:lineCount="1" cmlx:templateRef="l302.basis"><list cmlx:templateRef="onee"><scalar dataType="xsd:string" dictRef="g:onee">One-electron integrals</scalar></list></module> NBasis=    34 RedAO= F  NBF=    34 NBsUse=    34 1.00D-04 NBFU=    34 Simple Huckel Guess. Requested convergence on RMS density matrix=1.00D-08 within 128 cycles. Requested convergence on MAX density matrix=1.00D-06. Requested convergence on             energy=1.00D-06. No special actions if energy rises. Overlap will be assumed to be unity. Keep J ints in memory in canonical form, NReq=883444. SCF Done:  E(RAM1) =  0.111654661652     A.U. after   14 cycles             Convg  =    0.4698D-08             -V/T =  1.0021<module cmlx:lineCount="1" cmlx:templateRef="l801"/> NBasis=    34 NAE=    17 NBE=    17 NFC=     0 NFV=     0 NROrb=     34 NOA=    17 NOB=    17 NVA=    17 NVB=    17 Symmetrizing basis deriv contribution to polar: IMax=3 JMax=2 DiffMx= 0.00D+00 G2DrvN: will do    17 centers at a time, making    1 passes doing MaxLOS=1. Calling FoFCou, ICntrl=  3107 FMM=F I1Cent=   0 AccDes= 0.00D+00. FoFDir/FoFCou used for L=0 through L=1. End of G2Drv Frequency-dependent properties file   721 does not exist. End of G2Drv Frequency-dependent properties file   722 does not exist.          IDoAtm=1111111111111111          Differentiating once with respect to electric field.                with respect to dipole field.          Differentiating once with respect to nuclear coordinates.          Electric field/nuclear overlap derivatives assumed to be zero.          Keep J ints in memory in canonical form, NReq=803419.          There are    51 degrees of freedom in the 1st order CPHF.  IDoFFX=5. LinEq1:  Iter=  0 NonCon=    51 RMS=3.61D-01 Max=3.94D+00 AX will form    51 AO Fock derivatives at one time. LinEq1:  Iter=  1 NonCon=    51 RMS=5.79D-02 Max=2.70D-01 LinEq1:  Iter=  2 NonCon=    51 RMS=5.39D-03 Max=3.77D-02 LinEq1:  Iter=  3 NonCon=    51 RMS=7.61D-04 Max=8.27D-03 LinEq1:  Iter=  4 NonCon=    51 RMS=1.46D-04 Max=1.65D-03 LinEq1:  Iter=  5 NonCon=    51 RMS=1.97D-05 Max=9.16D-05 LinEq1:  Iter=  6 NonCon=    51 RMS=2.37D-06 Max=1.07D-05 LinEq1:  Iter=  7 NonCon=    51 RMS=2.17D-07 Max=1.29D-06 LinEq1:  Iter=  8 NonCon=    15 RMS=2.94D-08 Max=2.12D-07 LinEq1:  Iter=  9 NonCon=     0 RMS=3.55D-09 Max=2.65D-08 Linear equations converged to 1.000D-08 1.000D-07 after     9 iterations. Isotropic polarizability for W=    0.000000       60.72 Bohr**3. End of Minotr Frequency-dependent properties file   721 does not exist. End of Minotr Frequency-dependent properties file   722 does not exist.<module cmlx:lineCount="136" cmlx:templateRef="l601.popanal"><array dataType="xsd:double" size="17" dictRef="g:alphaocc">-1.36475 -1.1708 -1.10551 -0.89141 -0.80926 -0.68409 -0.61838 -0.584 -0.53128 -0.5104 -0.49731 -0.46891 -0.45567 -0.43862 -0.42476 -0.32499 -0.32393</array><array dataType="xsd:double" size="17" dictRef="g:alphavirt">0.02315 0.03378 0.10686 0.15321 0.15512 0.16104 0.16359 0.16856 0.16978 0.18787 0.18946 0.19149 0.20523 0.20546 0.20736 0.21908 0.22257</array><module cmlx:lineCount="8" cmlx:templateRef="l601.alphabetaeigen"/><module cmlx:lineCount="51" cmlx:templateRef="l601.condensed"><array dataType="xsd:double" size="16" dictRef="x:floatArr">4.165116 0.0 0.0 0.0 0.0 0.0 0.0 0.0 0.0 0.0 0.0 0.0 0.0 0.0 0.0 0.0</array><array dataType="xsd:double" size="16" dictRef="x:floatArr">0.0 4.165134 0.0 0.0 0.0 0.0 0.0 0.0 0.0 0.0 0.0 0.0 0.0 0.0 0.0 0.0</array><array dataType="xsd:double" size="16" dictRef="x:floatArr">0.0 0.0 0.878539 0.0 0.0 0.0 0.0 0.0 0.0 0.0 0.0 0.0 0.0 0.0 0.0 0.0</array><array dataType="xsd:double" size="16" dictRef="x:floatArr">0.0 0.0 0.0 0.87854 0.0 0.0 0.0 0.0 0.0 0.0 0.0 0.0 0.0 0.0 0.0 0.0</array><array dataType="xsd:double" size="16" dictRef="x:floatArr">0.0 0.0 0.0 0.0 4.212148 0.0 0.0 0.0 0.0 0.0 0.0 0.0 0.0 0.0 0.0 0.0</array><array dataType="xsd:double" size="16" dictRef="x:floatArr">0.0 0.0 0.0 0.0 0.0 0.895377 0.0 0.0 0.0 0.0 0.0 0.0 0.0 0.0 0.0 0.0</array><array dataType="xsd:double" size="16" dictRef="x:floatArr">0.0 0.0 0.0 0.0 0.0 0.0 0.891999 0.0 0.0 0.0 0.0 0.0 0.0 0.0 0.0 0.0</array><array dataType="xsd:double" size="16" dictRef="x:floatArr">0.0 0.0 0.0 0.0 0.0 0.0 0.0 4.212152 0.0 0.0 0.0 0.0 0.0 0.0 0.0 0.0</array><array dataType="xsd:double" size="16" dictRef="x:floatArr">0.0 0.0 0.0 0.0 0.0 0.0 0.0 0.0 0.895381 0.0 0.0 0.0 0.0 0.0 0.0 0.0</array><array dataType="xsd:double" size="16" dictRef="x:floatArr">0.0 0.0 0.0 0.0 0.0 0.0 0.0 0.0 0.0 0.891995 0.0 0.0 0.0 0.0 0.0 0.0</array><array dataType="xsd:double" size="16" dictRef="x:floatArr">0.0 0.0 0.0 0.0 0.0 0.0 0.0 0.0 0.0 0.0 4.169127 0.0 0.0 0.0 0.0 0.0</array><array dataType="xsd:double" size="16" dictRef="x:floatArr">0.0 0.0 0.0 0.0 0.0 0.0 0.0 0.0 0.0 0.0 0.0 0.897609 0.0 0.0 0.0 0.0</array><array dataType="xsd:double" size="16" dictRef="x:floatArr">0.0 0.0 0.0 0.0 0.0 0.0 0.0 0.0 0.0 0.0 0.0 0.0 4.169144 0.0 0.0 0.0</array><array dataType="xsd:double" size="16" dictRef="x:floatArr">0.0 0.0 0.0 0.0 0.0 0.0 0.0 0.0 0.0 0.0 0.0 0.0 0.0 0.890071 0.0 0.0</array><array dataType="xsd:double" size="16" dictRef="x:floatArr">0.0 0.0 0.0 0.0 0.0 0.0 0.0 0.0 0.0 0.0 0.0 0.0 0.0 0.0 0.897601 0.0</array><array dataType="xsd:double" size="12" dictRef="x:floatArr">0.0 0.0 0.0 0.0 0.0 0.0 0.0 0.0 0.0 0.0 0.0 0.0</array></module>    16  H    0.000000   0.000000   0.000000   0.890067<module cmlx:lineCount="67" cmlx:templateRef="mulliken"><module cmlx:lineCount="19" cmlx:templateRef="l601.mullik"><scalar dataType="xsd:string" dictRef="g:title">Mulliken atomic charges:</scalar><scalar dataType="xsd:integer" dictRef="cc:serial">1</scalar> Sum of Mulliken atomic charges =   0.00000</module> Mulliken charges with hydrogens summed into heavy atoms:              1     1  C   -0.043655     2  C   -0.043674     5  C    0.000477     8  C    0.000472    11  C    0.043197    13  C    0.043184 Sum of Mulliken charges with hydrogens summed into heavy atoms =   0.00000<module cmlx:lineCount="19" cmlx:templateRef="l601.mullik"><scalar dataType="xsd:string" dictRef="g:title">APT atomic charges:</scalar><scalar dataType="xsd:integer" dictRef="cc:serial">1</scalar><list cmlx:lineCount="16" cmlx:templateRef="row"><array dataType="xsd:integer" dictRef="cc:serial" size="16">1 2 3 4 5 6 7 8 9 10 11 12 13 14 15 16</array><array dataType="xsd:string" dictRef="cc:elementType" size="16">C C H H C H H C H H C H C H H H</array><array dataType="xsd:double" dictRef="x:charge" size="16">-0.168925 -0.168951 0.101518 0.101528 -0.129078 0.064626 0.052421 -0.129057 0.064614 0.052429 -0.03281 0.067342 -0.032845 0.044899 0.06735 0.044899</array></list><scalar dataType="xsd:string" dictRef="x:type">APT</scalar><scalar dataType="xsd:double" dictRef="x:charge.sum">-4.0E-5</scalar></module><module cmlx:lineCount="19" cmlx:templateRef="l601.mullik"><scalar dataType="xsd:string" dictRef="g:title">APT Atomic charges with hydrogens summed into heavy atoms:</scalar><scalar dataType="xsd:integer" dictRef="cc:serial">1</scalar><list cmlx:lineCount="16" cmlx:templateRef="row"><array dataType="xsd:integer" dictRef="cc:serial" size="16">1 2 3 4 5 6 7 8 9 10 11 12 13 14 15 16</array><array dataType="xsd:string" dictRef="cc:elementType" size="16">C C H H C H H C H H C H C H H H</array><array dataType="xsd:double" dictRef="x:charge" size="16">-0.067407 -0.067424 0.0 0.0 -0.01203 0.0 0.0 -0.012013 0.0 0.0 0.079431 0.0 0.079404 0.0 0.0 0.0</array></list><scalar dataType="xsd:string" dictRef="x:type">APT</scalar><scalar dataType="xsd:double" dictRef="x:charge.sum">-4.0E-5</scalar></module> Charge=              0.0000 electrons</module><module cmlx:lineCount="3" cmlx:templateRef="multipole"/></module><module cmlx:lineCount="2" cmlx:templateRef="l601.polariz"><list cmlx:templateRef="l601.pol"><scalar dataType="xsd:double" dictRef="g:l601.pol.exact">66.761</scalar><scalar dataType="xsd:double" dictRef="g:l601.pol">0.0020</scalar><scalar dataType="xsd:double" dictRef="g:l601.pol">74.364</scalar><scalar dataType="xsd:double" dictRef="g:l601.pol">8.391</scalar><scalar dataType="xsd:double" dictRef="g:l601.pol">0.0</scalar><scalar dataType="xsd:double" dictRef="g:l601.pol">41.028</scalar></list><list cmlx:templateRef="l601.pol"><scalar dataType="xsd:double" dictRef="g:l601.pol.approx">55.346</scalar><scalar dataType="xsd:double" dictRef="g:l601.pol">0.0020</scalar><scalar dataType="xsd:double" dictRef="g:l601.pol">63.273</scalar><scalar dataType="xsd:double" dictRef="g:l601.pol">7.299</scalar><scalar dataType="xsd:double" dictRef="g:l601.pol">0.0</scalar><scalar dataType="xsd:double" dictRef="g:l601.pol">28.364</scalar></list></module> Calling FoFJK, ICntrl=    100127 FMM=F ISym2X=0 I1Cent= 0 IOpClX= 0 NMat=1 NMatS=1 NMatT=0. ------------------------------------------------------------------- Center     Atomic                   Forces (Hartrees/Bohr) Number     Number              X              Y              Z -------------------------------------------------------------------      1        6           0.000021740    0.000065699    0.000027686      2        6          -0.000015361   -0.000019388   -0.000009140      3        1           0.000003645   -0.000012081    0.000014163      4        1           0.000006266    0.000017745    0.000002349      5        6          -0.000003429   -0.000004991    0.000005567      6        1           0.000003282   -0.000009216    0.000003933      7        1           0.000001923   -0.000008899   -0.000004856      8        6          -0.000009441    0.000009909    0.000003212      9        1           0.000006452    0.000008077    0.000001470     10        1           0.000000053    0.000007874   -0.000002793     11        6           0.000018437    0.000010668   -0.000013643     12        1          -0.000003540   -0.000003658    0.000011570     13        6          -0.000018536   -0.000054781   -0.000047799     14        1          -0.000009636    0.000008858   -0.000000728     15        1          -0.000003801   -0.000008583    0.000001355     16        1           0.000001947   -0.000007232    0.000007654 ------------------------------------------------------------------- Cartesian Forces:  Max     0.000065699 RMS     0.000017343 IRC-IRC-IRC-IRC-IRC-IRC-IRC-IRC-IRC-IRC-IRC-IRC-IRC-IRC-IRC-IRC-IRC-IRC          ******** Start new reaction path calculation ******** Supplied step size of   0.1000 bohr.    Integration on MW PES will use step size of   0.2495 sqrt(amu)*bohr. Point Number:   0          Path Number:   1 Calculating another point on the path. IRC-IRC-IRC-IRC-IRC-IRC-IRC-IRC-IRC-IRC-IRC-IRC-IRC-IRC-IRC-IRC-IRC-IRC<module cmlx:lineCount="22" cmlx:templateRef="l202.orient"><molecule id="a16" cmlx:templateRef="atom"><atomArray><atom id="a1" elementType="C" x3="-1.23012" y3="0.693862" z3="-0.285065"><scalar dataType="xsd:integer" dictRef="cc:serial">1</scalar><scalar dataType="xsd:integer" dictRef="g:atomicType">0</scalar><scalar dataType="xsd:integer" dictRef="compchem:atomicNumber">6</scalar></atom><atom id="a2" elementType="C" x3="-1.230282" y3="-0.693689" z3="-0.284943"><scalar dataType="xsd:integer" dictRef="cc:serial">2</scalar><scalar dataType="xsd:integer" dictRef="g:atomicType">0</scalar><scalar dataType="xsd:integer" dictRef="compchem:atomicNumber">6</scalar></atom><atom id="a3" elementType="H" x3="-1.822356" y3="1.2255" z3="-1.046952"><scalar dataType="xsd:integer" dictRef="cc:serial">3</scalar><scalar dataType="xsd:integer" dictRef="g:atomicType">0</scalar><scalar dataType="xsd:integer" dictRef="compchem:atomicNumber">1</scalar></atom><atom id="a4" elementType="H" x3="-1.822794" y3="-1.225377" z3="-1.046575"><scalar dataType="xsd:integer" dictRef="cc:serial">4</scalar><scalar dataType="xsd:integer" dictRef="g:atomicType">0</scalar><scalar dataType="xsd:integer" dictRef="compchem:atomicNumber">1</scalar></atom><atom id="a5" elementType="C" x3="1.466992" y3="-0.698507" z3="-0.242134"><scalar dataType="xsd:integer" dictRef="cc:serial">5</scalar><scalar dataType="xsd:integer" dictRef="g:atomicType">0</scalar><scalar dataType="xsd:integer" dictRef="compchem:atomicNumber">6</scalar></atom><atom id="a6" elementType="H" x3="2.038507" y3="-1.238353" z3="0.528568"><scalar dataType="xsd:integer" dictRef="cc:serial">6</scalar><scalar dataType="xsd:integer" dictRef="g:atomicType">0</scalar><scalar dataType="xsd:integer" dictRef="compchem:atomicNumber">1</scalar></atom><atom id="a7" elementType="H" x3="1.33862" y3="-1.23821" z3="-1.192391"><scalar dataType="xsd:integer" dictRef="cc:serial">7</scalar><scalar dataType="xsd:integer" dictRef="g:atomicType">0</scalar><scalar dataType="xsd:integer" dictRef="compchem:atomicNumber">1</scalar></atom><atom id="a8" elementType="C" x3="1.46721" y3="0.698196" z3="-0.242006"><scalar dataType="xsd:integer" dictRef="cc:serial">8</scalar><scalar dataType="xsd:integer" dictRef="g:atomicType">0</scalar><scalar dataType="xsd:integer" dictRef="compchem:atomicNumber">6</scalar></atom><atom id="a9" elementType="H" x3="2.038726" y3="1.237735" z3="0.528908"><scalar dataType="xsd:integer" dictRef="cc:serial">9</scalar><scalar dataType="xsd:integer" dictRef="g:atomicType">0</scalar><scalar dataType="xsd:integer" dictRef="compchem:atomicNumber">1</scalar></atom><atom id="a10" elementType="H" x3="1.339118" y3="1.238132" z3="-1.19217"><scalar dataType="xsd:integer" dictRef="cc:serial">10</scalar><scalar dataType="xsd:integer" dictRef="g:atomicType">0</scalar><scalar dataType="xsd:integer" dictRef="compchem:atomicNumber">1</scalar></atom><atom id="a11" elementType="C" x3="-0.340846" y3="-1.409604" z3="0.511923"><scalar dataType="xsd:integer" dictRef="cc:serial">11</scalar><scalar dataType="xsd:integer" dictRef="g:atomicType">0</scalar><scalar dataType="xsd:integer" dictRef="compchem:atomicNumber">6</scalar></atom><atom id="a12" elementType="H" x3="-0.241837" y3="-2.495416" z3="0.371441"><scalar dataType="xsd:integer" dictRef="cc:serial">12</scalar><scalar dataType="xsd:integer" dictRef="g:atomicType">0</scalar><scalar dataType="xsd:integer" dictRef="compchem:atomicNumber">1</scalar></atom><atom id="a13" elementType="C" x3="-0.340623" y3="1.409765" z3="0.511846"><scalar dataType="xsd:integer" dictRef="cc:serial">13</scalar><scalar dataType="xsd:integer" dictRef="g:atomicType">0</scalar><scalar dataType="xsd:integer" dictRef="compchem:atomicNumber">6</scalar></atom><atom id="a14" elementType="H" x3="-0.07684" y3="1.051525" z3="1.519723"><scalar dataType="xsd:integer" dictRef="cc:serial">14</scalar><scalar dataType="xsd:integer" dictRef="g:atomicType">0</scalar><scalar dataType="xsd:integer" dictRef="compchem:atomicNumber">1</scalar></atom><atom id="a15" elementType="H" x3="-0.24146" y3="2.495572" z3="0.371388"><scalar dataType="xsd:integer" dictRef="cc:serial">15</scalar><scalar dataType="xsd:integer" dictRef="g:atomicType">0</scalar><scalar dataType="xsd:integer" dictRef="compchem:atomicNumber">1</scalar></atom><atom id="a16" elementType="H" x3="-0.077024" y3="-1.051368" z3="1.519775"><scalar dataType="xsd:integer" dictRef="cc:serial">16</scalar><scalar dataType="xsd:integer" dictRef="g:atomicType">0</scalar><scalar dataType="xsd:integer" dictRef="compchem:atomicNumber">1</scalar></atom></atomArray><formula formalCharge="0" concise="C 6 H 10"><atomArray elementType="C H" count="6.0 10.0"/></formula><bondArray><bond atomRefs2="a1 a2" id="a1_a2" order="S"/><bond atomRefs2="a1 a3" id="a1_a3" order="S"/><bond atomRefs2="a1 a13" id="a1_a13" order="2"/><bond atomRefs2="a2 a4" id="a2_a4" order="S"/><bond atomRefs2="a2 a11" id="a2_a11" order="2"/><bond atomRefs2="a5 a6" id="a5_a6" order="S"/><bond atomRefs2="a5 a7" id="a5_a7" order="S"/><bond atomRefs2="a5 a8" id="a5_a8" order="2"/><bond atomRefs2="a8 a9" id="a8_a9" order="S"/><bond atomRefs2="a8 a10" id="a8_a10" order="S"/><bond atomRefs2="a11 a12" id="a11_a12" order="S"/><bond atomRefs2="a11 a16" id="a11_a16" order="S"/><bond atomRefs2="a13 a14" id="a13_a14" order="S"/><bond atomRefs2="a13 a15" id="a13_a15" order="S"/></bondArray><property dictRef="cml:molmass"><scalar dataType="xsd:double" units="unit:dalton" xmlns:unit="http://www.xml-cml.org/unit/si/">82.14359999999999</scalar></property></molecule></module><module cmlx:lineCount="39" cmlx:templateRef="l202.distmat"><array dataType="xsd:double" size="135" dictRef="cc:distance">0.0 1.387551 0.0 1.10175 2.148138 0.0 2.148171 1.101747 2.450877 0.0 3.035613 2.697618 3.894785 3.42745 0.0 3.883217 3.412248 4.84346 4.170239 1.100929 0.0 3.339846 2.778348 4.010336 3.164801 1.10034 1.857833 0.0 2.697677 3.035729 3.427424 3.895073 1.396703 2.161107 2.160888 0.0 3.412287 3.88319 4.170304 4.843594 2.161115 2.476088 3.095695 1.100927 0.0 2.778499 3.340182 3.164833 4.010956 2.160901 3.095653 2.476343 1.100341 1.857838 0.0 2.418795 1.392345 3.401285 2.158478 2.083876 2.385566 2.398889 2.877551 3.559643 3.568855 0.0 3.402822 2.157332 4.284284 2.474508 2.554496 2.608614 2.554208 3.673733 4.377462 4.345536 1.099329 0.0 1.392404 2.41886 2.15855 3.401394 2.877632 3.559925 3.56876 2.083959 2.38562 2.398887 2.819369 3.908952 0.0 2.171459 2.762792 3.108844 3.849484 2.924067 3.27118 3.821253 2.369097 2.343503 3.064983 2.672549 3.731831 1.101695 0.0 2.157438 3.402929 2.474672 4.284472 3.673875 4.377802 4.345479 2.554676 2.608872 2.554231 3.908968 4.990988 1.099336 1.852308 0.0 2.762771 2.171392 3.849467 3.108721 2.369139 2.343699 3.065094 2.923953 3.270811 3.821245 1.101681 1.852326 2.67256 2.102893 3.731838</array></module> Symmetry turned off by external request.<module cmlx:lineCount="1" cmlx:templateRef="l202.stoich"/> Framework group  C1[X(C6H10)] Deg. of freedom    42 Full point group                 C1      NOp   1<module cmlx:lineCount="1" cmlx:templateRef="l202.rotconst"><array dataType="xsd:double" size="3" dictRef="cc:rotconst" cmlx:templateRef="rotconst">4.3903506 3.8936489 2.4705886</array></module><module cmlx:lineCount="1" cmlx:templateRef="l301.basis"/> Integral buffers will be    131072 words long. Regular integral format. Two-electron integral symmetry is turned off.    34 basis functions,   204 primitive gaussians,    34 cartesian basis functions    17 alpha electrons       17 beta electrons       nuclear repulsion energy       142.3001277968 Hartrees. Do NDO integrals.<module cmlx:lineCount="1" cmlx:templateRef="l302.basis"><list cmlx:templateRef="onee"><scalar dataType="xsd:string" dictRef="g:onee">One-electron integrals</scalar></list></module> NBasis=    34 RedAO= F  NBF=    34 NBsUse=    34 1.00D-04 NBFU=    34 Initial guess read from the read-write file. B after Tr=     0.000000    0.000000    0.000000         Rot=    1.000000    0.000000    0.000000    0.000000 Ang=   0.00 deg. Requested convergence on RMS density matrix=1.00D-08 within 128 cycles. Requested convergence on MAX density matrix=1.00D-06. Requested convergence on             energy=1.00D-06. No special actions if energy rises. Overlap will be assumed to be unity. Keep J ints in memory in canonical form, NReq=883444. SCF Done:  E(RAM1) =  0.110497658347     A.U. after   13 cycles             Convg  =    0.3584D-08             -V/T =  1.0021<module cmlx:lineCount="1" cmlx:templateRef="l801"/> NBasis=    34 NAE=    17 NBE=    17 NFC=     0 NFV=     0 NROrb=     34 NOA=    17 NOB=    17 NVA=    17 NVB=    17 Symmetrizing basis deriv contribution to polar: IMax=3 JMax=2 DiffMx= 0.00D+00 G2DrvN: will do    17 centers at a time, making    1 passes doing MaxLOS=1. Calling FoFCou, ICntrl=  3107 FMM=F I1Cent=   0 AccDes= 0.00D+00. FoFDir/FoFCou used for L=0 through L=1. End of G2Drv Frequency-dependent properties file   721 does not exist. End of G2Drv Frequency-dependent properties file   722 does not exist.          IDoAtm=1111111111111111          Differentiating once with respect to electric field.                with respect to dipole field.          Differentiating once with respect to nuclear coordinates.          Electric field/nuclear overlap derivatives assumed to be zero.          Keep J ints in memory in canonical form, NReq=803419.          There are    51 degrees of freedom in the 1st order CPHF.  IDoFFX=5. LinEq1:  Iter=  0 NonCon=    51 RMS=3.58D-01 Max=4.02D+00 AX will form    51 AO Fock derivatives at one time. LinEq1:  Iter=  1 NonCon=    51 RMS=5.71D-02 Max=2.69D-01 LinEq1:  Iter=  2 NonCon=    51 RMS=5.00D-03 Max=2.96D-02 LinEq1:  Iter=  3 NonCon=    51 RMS=6.78D-04 Max=9.67D-03 LinEq1:  Iter=  4 NonCon=    51 RMS=1.66D-04 Max=2.03D-03 LinEq1:  Iter=  5 NonCon=    51 RMS=2.10D-05 Max=9.39D-05 LinEq1:  Iter=  6 NonCon=    51 RMS=2.51D-06 Max=1.06D-05 LinEq1:  Iter=  7 NonCon=    51 RMS=2.16D-07 Max=9.97D-07 LinEq1:  Iter=  8 NonCon=    11 RMS=2.68D-08 Max=1.96D-07 LinEq1:  Iter=  9 NonCon=     0 RMS=3.08D-09 Max=1.95D-08 Linear equations converged to 1.000D-08 1.000D-07 after     9 iterations. Isotropic polarizability for W=    0.000000       61.38 Bohr**3. End of Minotr Frequency-dependent properties file   721 does not exist. End of Minotr Frequency-dependent properties file   722 does not exist. Calling FoFJK, ICntrl=    100127 FMM=F ISym2X=0 I1Cent= 0 IOpClX= 0 NMat=1 NMatS=1 NMatT=0. ------------------------------------------------------------------- Center     Atomic                   Forces (Hartrees/Bohr) Number     Number              X              Y              Z -------------------------------------------------------------------      1        6          -0.001693866   -0.004064201   -0.002131706      2        6          -0.001729811    0.004109833   -0.002168069      3        1          -0.000463327    0.000160221    0.000566211      4        1          -0.000460504   -0.000154382    0.000554553      5        6          -0.012852137   -0.006965762    0.005239454      6        1           0.000738471    0.000382588   -0.000524811      7        1           0.000874061    0.000375536   -0.000127480      8        6          -0.012855429    0.006973719    0.005235053      9        1           0.000741223   -0.000383514   -0.000526843     10        1           0.000872775   -0.000377002   -0.000125530     11        6           0.014343181    0.003658740   -0.003138335     12        1           0.000201693    0.000190691   -0.000133388     13        6           0.014304625   -0.003704921   -0.003170139     14        1          -0.001116819    0.000441629    0.000293085     15        1           0.000201447   -0.000203001   -0.000143443     16        1          -0.001105584   -0.000440174    0.000301388 ------------------------------------------------------------------- Cartesian Forces:  Max     0.014343181 RMS     0.004556236 IRC-IRC-IRC-IRC-IRC-IRC-IRC-IRC-IRC-IRC-IRC-IRC-IRC-IRC-IRC-IRC-IRC-IRC Pt  1 Step number   1 out of a maximum of  20 CORRECTOR INTEGRATION CONVERGENCE:   Recorrection delta-x convergence threshold:    0.010000   Delta-x Convergence Met Point Number:   1          Path Number:   1   CHANGE IN THE REACTION COORDINATE =    0.24948   NET REACTION COORDINATE UP TO THIS POINT =    0.24948  # OF POINTS ALONG THE PATH =   1  # OF STEPS =   1 Calculating another point on the path. IRC-IRC-IRC-IRC-IRC-IRC-IRC-IRC-IRC-IRC-IRC-IRC-IRC-IRC-IRC-IRC-IRC-IRC<module cmlx:lineCount="22" cmlx:templateRef="l202.orient"><molecule id="a16" cmlx:templateRef="atom"><atomArray><atom id="a1" elementType="C" x3="-1.232021" y3="0.68908" z3="-0.28748"><scalar dataType="xsd:integer" dictRef="cc:serial">1</scalar><scalar dataType="xsd:integer" dictRef="g:atomicType">0</scalar><scalar dataType="xsd:integer" dictRef="compchem:atomicNumber">6</scalar></atom><atom id="a2" elementType="C" x3="-1.232189" y3="-0.688886" z3="-0.287374"><scalar dataType="xsd:integer" dictRef="cc:serial">2</scalar><scalar dataType="xsd:integer" dictRef="g:atomicType">0</scalar><scalar dataType="xsd:integer" dictRef="compchem:atomicNumber">6</scalar></atom><atom id="a3" elementType="H" x3="-1.829445" y3="1.228285" z3="-1.039528"><scalar dataType="xsd:integer" dictRef="cc:serial">3</scalar><scalar dataType="xsd:integer" dictRef="g:atomicType">0</scalar><scalar dataType="xsd:integer" dictRef="compchem:atomicNumber">1</scalar></atom><atom id="a4" elementType="H" x3="-1.829831" y3="-1.228091" z3="-1.039245"><scalar dataType="xsd:integer" dictRef="cc:serial">4</scalar><scalar dataType="xsd:integer" dictRef="g:atomicType">0</scalar><scalar dataType="xsd:integer" dictRef="compchem:atomicNumber">1</scalar></atom><atom id="a5" elementType="C" x3="1.451975" y3="-0.706146" z3="-0.235975"><scalar dataType="xsd:integer" dictRef="cc:serial">5</scalar><scalar dataType="xsd:integer" dictRef="g:atomicType">0</scalar><scalar dataType="xsd:integer" dictRef="compchem:atomicNumber">6</scalar></atom><atom id="a6" elementType="H" x3="2.050343" y3="-1.234378" z3="0.523052"><scalar dataType="xsd:integer" dictRef="cc:serial">6</scalar><scalar dataType="xsd:integer" dictRef="g:atomicType">0</scalar><scalar dataType="xsd:integer" dictRef="compchem:atomicNumber">1</scalar></atom><atom id="a7" elementType="H" x3="1.350446" y3="-1.234344" z3="-1.196474"><scalar dataType="xsd:integer" dictRef="cc:serial">7</scalar><scalar dataType="xsd:integer" dictRef="g:atomicType">0</scalar><scalar dataType="xsd:integer" dictRef="compchem:atomicNumber">1</scalar></atom><atom id="a8" elementType="C" x3="1.45219" y3="0.70584" z3="-0.235851"><scalar dataType="xsd:integer" dictRef="cc:serial">8</scalar><scalar dataType="xsd:integer" dictRef="g:atomicType">0</scalar><scalar dataType="xsd:integer" dictRef="compchem:atomicNumber">6</scalar></atom><atom id="a9" elementType="H" x3="2.050579" y3="1.233758" z3="0.523375"><scalar dataType="xsd:integer" dictRef="cc:serial">9</scalar><scalar dataType="xsd:integer" dictRef="g:atomicType">0</scalar><scalar dataType="xsd:integer" dictRef="compchem:atomicNumber">1</scalar></atom><atom id="a10" elementType="H" x3="1.350929" y3="1.234258" z3="-1.196254"><scalar dataType="xsd:integer" dictRef="cc:serial">10</scalar><scalar dataType="xsd:integer" dictRef="g:atomicType">0</scalar><scalar dataType="xsd:integer" dictRef="compchem:atomicNumber">1</scalar></atom><atom id="a11" elementType="C" x3="-0.324308" y3="-1.405414" z3="0.507927"><scalar dataType="xsd:integer" dictRef="cc:serial">11</scalar><scalar dataType="xsd:integer" dictRef="g:atomicType">0</scalar><scalar dataType="xsd:integer" dictRef="compchem:atomicNumber">6</scalar></atom><atom id="a12" elementType="H" x3="-0.239258" y3="-2.493214" z3="0.369515"><scalar dataType="xsd:integer" dictRef="cc:serial">12</scalar><scalar dataType="xsd:integer" dictRef="g:atomicType">0</scalar><scalar dataType="xsd:integer" dictRef="compchem:atomicNumber">1</scalar></atom><atom id="a13" elementType="C" x3="-0.3241" y3="1.405546" z3="0.507836"><scalar dataType="xsd:integer" dictRef="cc:serial">13</scalar><scalar dataType="xsd:integer" dictRef="g:atomicType">0</scalar><scalar dataType="xsd:integer" dictRef="compchem:atomicNumber">6</scalar></atom><atom id="a14" elementType="H" x3="-0.091385" y3="1.056467" z3="1.527125"><scalar dataType="xsd:integer" dictRef="cc:serial">14</scalar><scalar dataType="xsd:integer" dictRef="g:atomicType">0</scalar><scalar dataType="xsd:integer" dictRef="compchem:atomicNumber">1</scalar></atom><atom id="a15" elementType="H" x3="-0.23886" y3="2.493321" z3="0.369366"><scalar dataType="xsd:integer" dictRef="cc:serial">15</scalar><scalar dataType="xsd:integer" dictRef="g:atomicType">0</scalar><scalar dataType="xsd:integer" dictRef="compchem:atomicNumber">1</scalar></atom><atom id="a16" elementType="H" x3="-0.091494" y3="-1.056308" z3="1.527184"><scalar dataType="xsd:integer" dictRef="cc:serial">16</scalar><scalar dataType="xsd:integer" dictRef="g:atomicType">0</scalar><scalar dataType="xsd:integer" dictRef="compchem:atomicNumber">1</scalar></atom></atomArray><formula formalCharge="0" concise="C 6 H 10"><atomArray elementType="C H" count="6.0 10.0"/></formula><bondArray><bond atomRefs2="a1 a2" id="a1_a2" order="S"/><bond atomRefs2="a1 a3" id="a1_a3" order="S"/><bond atomRefs2="a1 a13" id="a1_a13" order="2"/><bond atomRefs2="a2 a4" id="a2_a4" order="S"/><bond atomRefs2="a2 a11" id="a2_a11" order="2"/><bond atomRefs2="a5 a6" id="a5_a6" order="S"/><bond atomRefs2="a5 a7" id="a5_a7" order="S"/><bond atomRefs2="a5 a8" id="a5_a8" order="2"/><bond atomRefs2="a8 a9" id="a8_a9" order="S"/><bond atomRefs2="a8 a10" id="a8_a10" order="S"/><bond atomRefs2="a11 a12" id="a11_a12" order="S"/><bond atomRefs2="a11 a16" id="a11_a16" order="S"/><bond atomRefs2="a13 a14" id="a13_a14" order="S"/><bond atomRefs2="a13 a15" id="a13_a15" order="S"/></bondArray><property dictRef="cml:molmass"><scalar dataType="xsd:double" units="unit:dalton" xmlns:unit="http://www.xml-cml.org/unit/si/">82.14359999999999</scalar></property></molecule></module><module cmlx:lineCount="39" cmlx:templateRef="l202.distmat"><array dataType="xsd:double" size="135" dictRef="cc:distance">0.0 1.377966 0.0 1.101468 2.144293 0.0 2.144312 1.101466 2.456376 0.0 3.025416 2.684712 3.892998 3.41876 0.0 3.889802 3.424816 4.853773 4.182888 1.101451 0.0 3.345888 2.791773 4.025031 3.184167 1.100845 1.856508 0.0 2.68476 3.025526 3.418768 3.893224 1.411987 2.167525 2.167363 0.0 3.424853 3.889787 4.182975 4.853871 2.167526 2.468136 3.088623 1.101449 0.0 2.791903 3.346199 3.184239 4.02555 2.167375 3.088585 2.468602 1.100842 1.856511 0.0 2.417338 1.403626 3.405352 2.166053 2.048791 2.38085 2.395631 2.857717 3.550431 3.560692 0.0 3.397678 2.161716 4.285283 2.472865 2.53387 2.617349 2.562077 3.66898 4.376911 4.344465 1.099864 0.0 1.403628 2.41736 2.16606 3.405397 2.857786 3.550692 3.560589 2.048869 2.380936 2.395618 2.81096 3.902136 0.0 2.174584 2.764073 3.104526 3.85067 2.932113 3.292891 3.839881 2.369314 2.372121 3.086855 2.674673 3.736598 1.102254 0.0 2.161735 3.397712 2.472904 4.285356 3.669053 4.377191 4.344333 2.533974 2.617584 2.561998 3.902132 4.986535 1.099861 1.851136 0.0 2.764089 2.174582 3.850694 3.104494 2.369311 2.372225 3.08694 2.931965 3.292493 3.839843 1.102253 1.851143 2.674678 2.112775 3.736593</array></module> Symmetry turned off by external request.<module cmlx:lineCount="1" cmlx:templateRef="l202.stoich"/> Framework group  C1[X(C6H10)] Deg. of freedom    42 Full point group                 C1      NOp   1<module cmlx:lineCount="1" cmlx:templateRef="l202.rotconst"><array dataType="xsd:double" size="3" dictRef="cc:rotconst" cmlx:templateRef="rotconst">4.4021846 3.927028 2.4853956</array></module><module cmlx:lineCount="1" cmlx:templateRef="l301.basis"/> Integral buffers will be    131072 words long. Regular integral format. Two-electron integral symmetry is turned off.    34 basis functions,   204 primitive gaussians,    34 cartesian basis functions    17 alpha electrons       17 beta electrons       nuclear repulsion energy       142.3865649459 Hartrees. Do NDO integrals.<module cmlx:lineCount="1" cmlx:templateRef="l302.basis"><list cmlx:templateRef="onee"><scalar dataType="xsd:string" dictRef="g:onee">One-electron integrals</scalar></list></module> NBasis=    34 RedAO= F  NBF=    34 NBsUse=    34 1.00D-04 NBFU=    34 Initial guess read from the read-write file. B after Tr=     0.000000    0.000000    0.000000         Rot=    1.000000    0.000000    0.000000    0.000000 Ang=   0.00 deg. Requested convergence on RMS density matrix=1.00D-08 within 128 cycles. Requested convergence on MAX density matrix=1.00D-06. Requested convergence on             energy=1.00D-06. No special actions if energy rises. Overlap will be assumed to be unity. Keep J ints in memory in canonical form, NReq=883444. SCF Done:  E(RAM1) =  0.106938697552     A.U. after   13 cycles             Convg  =    0.2633D-08             -V/T =  1.0020<module cmlx:lineCount="1" cmlx:templateRef="l801"/> NBasis=    34 NAE=    17 NBE=    17 NFC=     0 NFV=     0 NROrb=     34 NOA=    17 NOB=    17 NVA=    17 NVB=    17 Symmetrizing basis deriv contribution to polar: IMax=3 JMax=2 DiffMx= 0.00D+00 G2DrvN: will do    17 centers at a time, making    1 passes doing MaxLOS=1. Calling FoFCou, ICntrl=  3107 FMM=F I1Cent=   0 AccDes= 0.00D+00. FoFDir/FoFCou used for L=0 through L=1. End of G2Drv Frequency-dependent properties file   721 does not exist. End of G2Drv Frequency-dependent properties file   722 does not exist.          IDoAtm=1111111111111111          Differentiating once with respect to electric field.                with respect to dipole field.          Differentiating once with respect to nuclear coordinates.          Electric field/nuclear overlap derivatives assumed to be zero.          Keep J ints in memory in canonical form, NReq=803419.          There are    51 degrees of freedom in the 1st order CPHF.  IDoFFX=5. LinEq1:  Iter=  0 NonCon=    51 RMS=3.53D-01 Max=3.93D+00 AX will form    51 AO Fock derivatives at one time. LinEq1:  Iter=  1 NonCon=    51 RMS=5.48D-02 Max=2.70D-01 LinEq1:  Iter=  2 NonCon=    51 RMS=4.65D-03 Max=2.07D-02 LinEq1:  Iter=  3 NonCon=    51 RMS=4.25D-04 Max=5.72D-03 LinEq1:  Iter=  4 NonCon=    51 RMS=1.07D-04 Max=1.46D-03 LinEq1:  Iter=  5 NonCon=    51 RMS=1.63D-05 Max=1.01D-04 LinEq1:  Iter=  6 NonCon=    51 RMS=2.25D-06 Max=1.29D-05 LinEq1:  Iter=  7 NonCon=    51 RMS=1.87D-07 Max=8.60D-07 LinEq1:  Iter=  8 NonCon=     7 RMS=2.12D-08 Max=1.38D-07 LinEq1:  Iter=  9 NonCon=     0 RMS=2.42D-09 Max=1.39D-08 Linear equations converged to 1.000D-08 1.000D-07 after     9 iterations. Isotropic polarizability for W=    0.000000       61.07 Bohr**3. End of Minotr Frequency-dependent properties file   721 does not exist. End of Minotr Frequency-dependent properties file   722 does not exist. Calling FoFJK, ICntrl=    100127 FMM=F ISym2X=0 I1Cent= 0 IOpClX= 0 NMat=1 NMatS=1 NMatT=0. ------------------------------------------------------------------- Center     Atomic                   Forces (Hartrees/Bohr) Number     Number              X              Y              Z -------------------------------------------------------------------      1        6          -0.002908569   -0.007068350   -0.003964542      2        6          -0.002903111    0.007075926   -0.003970210      3        1          -0.001026182    0.000400627    0.001148947      4        1          -0.001023361   -0.000397941    0.001144627      5        6          -0.025958203   -0.012824330    0.010734555      6        1           0.001510905    0.000708610   -0.000926766      7        1           0.001627555    0.000686574   -0.000358328      8        6          -0.025957545    0.012830471    0.010730357      9        1           0.001510464   -0.000708428   -0.000927406     10        1           0.001627485   -0.000687475   -0.000359040     11        6           0.028406532    0.007532852   -0.007059177     12        1           0.000416443    0.000379425   -0.000308855     13        6           0.028403068   -0.007548305   -0.007059757     14        1          -0.002073104    0.000781302    0.000743725     15        1           0.000418089   -0.000380586   -0.000312352     16        1          -0.002070466   -0.000780374    0.000744221 ------------------------------------------------------------------- Cartesian Forces:  Max     0.028406532 RMS     0.009029017 IRC-IRC-IRC-IRC-IRC-IRC-IRC-IRC-IRC-IRC-IRC-IRC-IRC-IRC-IRC-IRC-IRC-IRC Pt  2 Step number   1 out of a maximum of  20 CORRECTOR INTEGRATION CONVERGENCE:   Recorrection delta-x convergence threshold:    0.010000   Delta-x Convergence Met Point Number:   2          Path Number:   1   CHANGE IN THE REACTION COORDINATE =    0.24941   NET REACTION COORDINATE UP TO THIS POINT =    0.49889  # OF POINTS ALONG THE PATH =   2  # OF STEPS =   1 Calculating another point on the path. IRC-IRC-IRC-IRC-IRC-IRC-IRC-IRC-IRC-IRC-IRC-IRC-IRC-IRC-IRC-IRC-IRC-IRC<module cmlx:lineCount="22" cmlx:templateRef="l202.orient"><molecule id="a16" cmlx:templateRef="atom"><atomArray><atom id="a1" elementType="C" x3="-1.233648" y3="0.685035" z3="-0.289774"><scalar dataType="xsd:integer" dictRef="cc:serial">1</scalar><scalar dataType="xsd:integer" dictRef="g:atomicType">0</scalar><scalar dataType="xsd:integer" dictRef="compchem:atomicNumber">6</scalar></atom><atom id="a2" elementType="C" x3="-1.233814" y3="-0.684838" z3="-0.28967"><scalar dataType="xsd:integer" dictRef="cc:serial">2</scalar><scalar dataType="xsd:integer" dictRef="g:atomicType">0</scalar><scalar dataType="xsd:integer" dictRef="compchem:atomicNumber">6</scalar></atom><atom id="a3" elementType="H" x3="-1.836966" y3="1.23132" z3="-1.031471"><scalar dataType="xsd:integer" dictRef="cc:serial">3</scalar><scalar dataType="xsd:integer" dictRef="g:atomicType">0</scalar><scalar dataType="xsd:integer" dictRef="compchem:atomicNumber">1</scalar></atom><atom id="a4" elementType="H" x3="-1.837334" y3="-1.231111" z3="-1.031209"><scalar dataType="xsd:integer" dictRef="cc:serial">4</scalar><scalar dataType="xsd:integer" dictRef="g:atomicType">0</scalar><scalar dataType="xsd:integer" dictRef="compchem:atomicNumber">1</scalar></atom><atom id="a5" elementType="C" x3="1.436696" y3="-0.713467" z3="-0.229621"><scalar dataType="xsd:integer" dictRef="cc:serial">5</scalar><scalar dataType="xsd:integer" dictRef="g:atomicType">0</scalar><scalar dataType="xsd:integer" dictRef="compchem:atomicNumber">6</scalar></atom><atom id="a6" elementType="H" x3="2.061223" y3="-1.229878" z3="0.517439"><scalar dataType="xsd:integer" dictRef="cc:serial">6</scalar><scalar dataType="xsd:integer" dictRef="g:atomicType">0</scalar><scalar dataType="xsd:integer" dictRef="compchem:atomicNumber">1</scalar></atom><atom id="a7" elementType="H" x3="1.361282" y3="-1.229955" z3="-1.199699"><scalar dataType="xsd:integer" dictRef="cc:serial">7</scalar><scalar dataType="xsd:integer" dictRef="g:atomicType">0</scalar><scalar dataType="xsd:integer" dictRef="compchem:atomicNumber">1</scalar></atom><atom id="a8" elementType="C" x3="1.436912" y3="0.713164" z3="-0.229499"><scalar dataType="xsd:integer" dictRef="cc:serial">8</scalar><scalar dataType="xsd:integer" dictRef="g:atomicType">0</scalar><scalar dataType="xsd:integer" dictRef="compchem:atomicNumber">6</scalar></atom><atom id="a9" elementType="H" x3="2.061456" y3="1.22926" z3="0.517761"><scalar dataType="xsd:integer" dictRef="cc:serial">9</scalar><scalar dataType="xsd:integer" dictRef="g:atomicType">0</scalar><scalar dataType="xsd:integer" dictRef="compchem:atomicNumber">1</scalar></atom><atom id="a10" elementType="H" x3="1.361767" y3="1.229863" z3="-1.199483"><scalar dataType="xsd:integer" dictRef="cc:serial">10</scalar><scalar dataType="xsd:integer" dictRef="g:atomicType">0</scalar><scalar dataType="xsd:integer" dictRef="compchem:atomicNumber">1</scalar></atom><atom id="a11" elementType="C" x3="-0.307691" y3="-1.40103" z3="0.503611"><scalar dataType="xsd:integer" dictRef="cc:serial">11</scalar><scalar dataType="xsd:integer" dictRef="g:atomicType">0</scalar><scalar dataType="xsd:integer" dictRef="compchem:atomicNumber">6</scalar></atom><atom id="a12" elementType="H" x3="-0.236243" y3="-2.49075" z3="0.367261"><scalar dataType="xsd:integer" dictRef="cc:serial">12</scalar><scalar dataType="xsd:integer" dictRef="g:atomicType">0</scalar><scalar dataType="xsd:integer" dictRef="compchem:atomicNumber">1</scalar></atom><atom id="a13" elementType="C" x3="-0.307484" y3="1.401155" z3="0.50352"><scalar dataType="xsd:integer" dictRef="cc:serial">13</scalar><scalar dataType="xsd:integer" dictRef="g:atomicType">0</scalar><scalar dataType="xsd:integer" dictRef="compchem:atomicNumber">6</scalar></atom><atom id="a14" elementType="H" x3="-0.105185" y3="1.061428" z3="1.533259"><scalar dataType="xsd:integer" dictRef="cc:serial">14</scalar><scalar dataType="xsd:integer" dictRef="g:atomicType">0</scalar><scalar dataType="xsd:integer" dictRef="compchem:atomicNumber">1</scalar></atom><atom id="a15" elementType="H" x3="-0.235835" y3="2.49085" z3="0.367094"><scalar dataType="xsd:integer" dictRef="cc:serial">15</scalar><scalar dataType="xsd:integer" dictRef="g:atomicType">0</scalar><scalar dataType="xsd:integer" dictRef="compchem:atomicNumber">1</scalar></atom><atom id="a16" elementType="H" x3="-0.105282" y3="-1.061264" z3="1.533317"><scalar dataType="xsd:integer" dictRef="cc:serial">16</scalar><scalar dataType="xsd:integer" dictRef="g:atomicType">0</scalar><scalar dataType="xsd:integer" dictRef="compchem:atomicNumber">1</scalar></atom></atomArray><formula formalCharge="0" concise="C 6 H 10"><atomArray elementType="C H" count="6.0 10.0"/></formula><bondArray><bond atomRefs2="a1 a2" id="a1_a2" order="S"/><bond atomRefs2="a1 a3" id="a1_a3" order="S"/><bond atomRefs2="a1 a13" id="a1_a13" order="2"/><bond atomRefs2="a2 a4" id="a2_a4" order="S"/><bond atomRefs2="a2 a11" id="a2_a11" order="2"/><bond atomRefs2="a5 a6" id="a5_a6" order="S"/><bond atomRefs2="a5 a7" id="a5_a7" order="S"/><bond atomRefs2="a5 a8" id="a5_a8" order="2"/><bond atomRefs2="a8 a9" id="a8_a9" order="S"/><bond atomRefs2="a8 a10" id="a8_a10" order="S"/><bond atomRefs2="a11 a12" id="a11_a12" order="S"/><bond atomRefs2="a11 a16" id="a11_a16" order="S"/><bond atomRefs2="a13 a14" id="a13_a14" order="S"/><bond atomRefs2="a13 a15" id="a13_a15" order="S"/></bondArray><property dictRef="cml:molmass"><scalar dataType="xsd:double" units="unit:dalton" xmlns:unit="http://www.xml-cml.org/unit/si/">82.14359999999999</scalar></property></molecule></module><module cmlx:lineCount="39" cmlx:templateRef="l202.distmat"><array dataType="xsd:double" size="135" dictRef="cc:distance">0.0 1.369873 0.0 1.101151 2.141429 0.0 2.141443 1.10115 2.46243 0.0 3.01499 2.671338 3.891274 3.410245 0.0 3.895467 3.435951 4.863383 4.194885 1.102186 0.0 3.350943 2.803539 4.039179 3.203051 1.10159 1.854314 0.0 2.671388 3.015096 3.410266 3.891482 1.426631 2.173268 2.173182 0.0 3.435987 3.895448 4.194975 4.863465 2.173268 2.459138 3.080203 1.102183 0.0 2.803674 3.35125 3.203142 4.039673 2.173196 3.080161 2.459819 1.101587 1.854318 0.0 2.416303 1.414188 3.40946 2.173558 2.01327 2.375129 2.390816 2.837411 3.539983 3.550946 0.0 3.392952 2.165185 4.286324 2.471013 2.512713 2.625015 2.568473 3.663418 4.374991 4.341807 1.100539 0.0 1.414186 2.416319 2.173558 3.409494 2.837478 3.54024 3.550841 2.013346 2.375211 2.390807 2.802184 3.894941 0.0 2.176821 2.765197 3.099317 3.851308 2.938604 3.312899 3.856167 2.36784 2.398695 3.106155 2.67673 3.740949 1.103042 0.0 2.165196 3.392977 2.471036 4.286379 3.663478 4.37526 4.341661 2.512802 2.625234 2.568382 3.894936 4.9816 1.100537 1.849393 0.0 2.765218 2.176824 3.851338 3.099297 2.367827 2.398787 3.106226 2.938448 3.312492 3.856124 1.103043 1.849396 2.676728 2.122692 3.74094</array></module> Symmetry turned off by external request.<module cmlx:lineCount="1" cmlx:templateRef="l202.stoich"/> Framework group  C1[X(C6H10)] Deg. of freedom    42 Full point group                 C1      NOp   1<module cmlx:lineCount="1" cmlx:templateRef="l202.rotconst"><array dataType="xsd:double" size="3" dictRef="cc:rotconst" cmlx:templateRef="rotconst">4.4152 3.9623376 2.50056</array></module><module cmlx:lineCount="1" cmlx:templateRef="l301.basis"/> Integral buffers will be    131072 words long. Regular integral format. Two-electron integral symmetry is turned off.    34 basis functions,   204 primitive gaussians,    34 cartesian basis functions    17 alpha electrons       17 beta electrons       nuclear repulsion energy       142.4905685679 Hartrees. Do NDO integrals.<module cmlx:lineCount="1" cmlx:templateRef="l302.basis"><list cmlx:templateRef="onee"><scalar dataType="xsd:string" dictRef="g:onee">One-electron integrals</scalar></list></module> NBasis=    34 RedAO= F  NBF=    34 NBsUse=    34 1.00D-04 NBFU=    34 Initial guess read from the read-write file. B after Tr=     0.000000    0.000000    0.000000         Rot=    1.000000    0.000000    0.000000    0.000000 Ang=   0.00 deg. Requested convergence on RMS density matrix=1.00D-08 within 128 cycles. Requested convergence on MAX density matrix=1.00D-06. Requested convergence on             energy=1.00D-06. No special actions if energy rises. Overlap will be assumed to be unity. Keep J ints in memory in canonical form, NReq=883444. SCF Done:  E(RAM1) =  0.101286686914     A.U. after   13 cycles             Convg  =    0.2127D-08             -V/T =  1.0019<module cmlx:lineCount="1" cmlx:templateRef="l801"/> NBasis=    34 NAE=    17 NBE=    17 NFC=     0 NFV=     0 NROrb=     34 NOA=    17 NOB=    17 NVA=    17 NVB=    17 Symmetrizing basis deriv contribution to polar: IMax=3 JMax=2 DiffMx= 0.00D+00 G2DrvN: will do    17 centers at a time, making    1 passes doing MaxLOS=1. Calling FoFCou, ICntrl=  3107 FMM=F I1Cent=   0 AccDes= 0.00D+00. FoFDir/FoFCou used for L=0 through L=1. End of G2Drv Frequency-dependent properties file   721 does not exist. End of G2Drv Frequency-dependent properties file   722 does not exist.          IDoAtm=1111111111111111          Differentiating once with respect to electric field.                with respect to dipole field.          Differentiating once with respect to nuclear coordinates.          Electric field/nuclear overlap derivatives assumed to be zero.          Keep J ints in memory in canonical form, NReq=803419.          There are    51 degrees of freedom in the 1st order CPHF.  IDoFFX=5. LinEq1:  Iter=  0 NonCon=    51 RMS=3.40D-01 Max=3.70D+00 AX will form    51 AO Fock derivatives at one time. LinEq1:  Iter=  1 NonCon=    51 RMS=5.21D-02 Max=2.53D-01 LinEq1:  Iter=  2 NonCon=    51 RMS=4.44D-03 Max=2.17D-02 LinEq1:  Iter=  3 NonCon=    51 RMS=3.54D-04 Max=3.99D-03 LinEq1:  Iter=  4 NonCon=    51 RMS=7.49D-05 Max=8.16D-04 LinEq1:  Iter=  5 NonCon=    51 RMS=1.14D-05 Max=1.20D-04 LinEq1:  Iter=  6 NonCon=    51 RMS=1.54D-06 Max=8.60D-06 LinEq1:  Iter=  7 NonCon=    39 RMS=1.50D-07 Max=8.26D-07 LinEq1:  Iter=  8 NonCon=     3 RMS=1.69D-08 Max=9.41D-08 LinEq1:  Iter=  9 NonCon=     0 RMS=1.88D-09 Max=1.05D-08 Linear equations converged to 1.000D-08 1.000D-07 after     9 iterations. Isotropic polarizability for W=    0.000000       60.02 Bohr**3. End of Minotr Frequency-dependent properties file   721 does not exist. End of Minotr Frequency-dependent properties file   722 does not exist. Calling FoFJK, ICntrl=    100127 FMM=F ISym2X=0 I1Cent= 0 IOpClX= 0 NMat=1 NMatS=1 NMatT=0. ------------------------------------------------------------------- Center     Atomic                   Forces (Hartrees/Bohr) Number     Number              X              Y              Z -------------------------------------------------------------------      1        6          -0.003326659   -0.008222474   -0.005145187      2        6          -0.003318666    0.008226546   -0.005149637      3        1          -0.001517379    0.000613418    0.001707778      4        1          -0.001514592   -0.000611235    0.001704853      5        6          -0.036694246   -0.016805922    0.015400903      6        1           0.001940400    0.001015746   -0.001214360      7        1           0.002026442    0.000985819   -0.000411540      8        6          -0.036692674    0.016813883    0.015394735      9        1           0.001939499   -0.001015176   -0.001214382     10        1           0.002027008   -0.000987177   -0.000412330     11        6           0.039569255    0.010925383   -0.010754221     12        1           0.000663588    0.000549282   -0.000483432     13        6           0.039567878   -0.010938730   -0.010751339     14        1          -0.002668161    0.001036027    0.000906951     15        1           0.000665061   -0.000550223   -0.000485636     16        1          -0.002666754   -0.001035168    0.000906844 ------------------------------------------------------------------- Cartesian Forces:  Max     0.039569255 RMS     0.012581651 IRC-IRC-IRC-IRC-IRC-IRC-IRC-IRC-IRC-IRC-IRC-IRC-IRC-IRC-IRC-IRC-IRC-IRC Pt  3 Step number   1 out of a maximum of  20 CORRECTOR INTEGRATION CONVERGENCE:   Recorrection delta-x convergence threshold:    0.010000   Delta-x Convergence Met Point Number:   3          Path Number:   1   CHANGE IN THE REACTION COORDINATE =    0.24941   NET REACTION COORDINATE UP TO THIS POINT =    0.74830  # OF POINTS ALONG THE PATH =   3  # OF STEPS =   1 Calculating another point on the path. IRC-IRC-IRC-IRC-IRC-IRC-IRC-IRC-IRC-IRC-IRC-IRC-IRC-IRC-IRC-IRC-IRC-IRC<module cmlx:lineCount="22" cmlx:templateRef="l202.orient"><molecule id="a16" cmlx:templateRef="atom"><atomArray><atom id="a1" elementType="C" x3="-1.234908" y3="0.681786" z3="-0.291869"><scalar dataType="xsd:integer" dictRef="cc:serial">1</scalar><scalar dataType="xsd:integer" dictRef="g:atomicType">0</scalar><scalar dataType="xsd:integer" dictRef="compchem:atomicNumber">6</scalar></atom><atom id="a2" elementType="C" x3="-1.235071" y3="-0.681587" z3="-0.291767"><scalar dataType="xsd:integer" dictRef="cc:serial">2</scalar><scalar dataType="xsd:integer" dictRef="g:atomicType">0</scalar><scalar dataType="xsd:integer" dictRef="compchem:atomicNumber">6</scalar></atom><atom id="a3" elementType="H" x3="-1.844826" y3="1.234585" z3="-1.022737"><scalar dataType="xsd:integer" dictRef="cc:serial">3</scalar><scalar dataType="xsd:integer" dictRef="g:atomicType">0</scalar><scalar dataType="xsd:integer" dictRef="compchem:atomicNumber">1</scalar></atom><atom id="a4" elementType="H" x3="-1.845182" y3="-1.234366" z3="-1.022486"><scalar dataType="xsd:integer" dictRef="cc:serial">4</scalar><scalar dataType="xsd:integer" dictRef="g:atomicType">0</scalar><scalar dataType="xsd:integer" dictRef="compchem:atomicNumber">1</scalar></atom><atom id="a5" elementType="C" x3="1.421101" y3="-0.720299" z3="-0.223035"><scalar dataType="xsd:integer" dictRef="cc:serial">5</scalar><scalar dataType="xsd:integer" dictRef="g:atomicType">0</scalar><scalar dataType="xsd:integer" dictRef="compchem:atomicNumber">6</scalar></atom><atom id="a6" elementType="H" x3="2.070745" y3="-1.224957" z3="0.511946"><scalar dataType="xsd:integer" dictRef="cc:serial">6</scalar><scalar dataType="xsd:integer" dictRef="g:atomicType">0</scalar><scalar dataType="xsd:integer" dictRef="compchem:atomicNumber">1</scalar></atom><atom id="a7" elementType="H" x3="1.370743" y3="-1.225147" z3="-1.201933"><scalar dataType="xsd:integer" dictRef="cc:serial">7</scalar><scalar dataType="xsd:integer" dictRef="g:atomicType">0</scalar><scalar dataType="xsd:integer" dictRef="compchem:atomicNumber">1</scalar></atom><atom id="a8" elementType="C" x3="1.421318" y3="0.72" z3="-0.222916"><scalar dataType="xsd:integer" dictRef="cc:serial">8</scalar><scalar dataType="xsd:integer" dictRef="g:atomicType">0</scalar><scalar dataType="xsd:integer" dictRef="compchem:atomicNumber">6</scalar></atom><atom id="a9" elementType="H" x3="2.070973" y3="1.224342" z3="0.512268"><scalar dataType="xsd:integer" dictRef="cc:serial">9</scalar><scalar dataType="xsd:integer" dictRef="g:atomicType">0</scalar><scalar dataType="xsd:integer" dictRef="compchem:atomicNumber">1</scalar></atom><atom id="a10" elementType="H" x3="1.371231" y3="1.225049" z3="-1.201722"><scalar dataType="xsd:integer" dictRef="cc:serial">10</scalar><scalar dataType="xsd:integer" dictRef="g:atomicType">0</scalar><scalar dataType="xsd:integer" dictRef="compchem:atomicNumber">1</scalar></atom><atom id="a11" elementType="C" x3="-0.291015" y3="-1.396365" z3="0.498859"><scalar dataType="xsd:integer" dictRef="cc:serial">11</scalar><scalar dataType="xsd:integer" dictRef="g:atomicType">0</scalar><scalar dataType="xsd:integer" dictRef="compchem:atomicNumber">6</scalar></atom><atom id="a12" elementType="H" x3="-0.232611" y3="-2.487984" z3="0.364661"><scalar dataType="xsd:integer" dictRef="cc:serial">12</scalar><scalar dataType="xsd:integer" dictRef="g:atomicType">0</scalar><scalar dataType="xsd:integer" dictRef="compchem:atomicNumber">1</scalar></atom><atom id="a13" elementType="C" x3="-0.290809" y3="1.396485" z3="0.498769"><scalar dataType="xsd:integer" dictRef="cc:serial">13</scalar><scalar dataType="xsd:integer" dictRef="g:atomicType">0</scalar><scalar dataType="xsd:integer" dictRef="compchem:atomicNumber">6</scalar></atom><atom id="a14" elementType="H" x3="-0.117842" y3="1.066272" z3="1.537996"><scalar dataType="xsd:integer" dictRef="cc:serial">14</scalar><scalar dataType="xsd:integer" dictRef="g:atomicType">0</scalar><scalar dataType="xsd:integer" dictRef="compchem:atomicNumber">1</scalar></atom><atom id="a15" elementType="H" x3="-0.232198" y3="2.48808" z3="0.364485"><scalar dataType="xsd:integer" dictRef="cc:serial">15</scalar><scalar dataType="xsd:integer" dictRef="g:atomicType">0</scalar><scalar dataType="xsd:integer" dictRef="compchem:atomicNumber">1</scalar></atom><atom id="a16" elementType="H" x3="-0.117933" y3="-1.066104" z3="1.538053"><scalar dataType="xsd:integer" dictRef="cc:serial">16</scalar><scalar dataType="xsd:integer" dictRef="g:atomicType">0</scalar><scalar dataType="xsd:integer" dictRef="compchem:atomicNumber">1</scalar></atom></atomArray><formula formalCharge="0" concise="C 6 H 10"><atomArray elementType="C H" count="6.0 10.0"/></formula><bondArray><bond atomRefs2="a1 a2" id="a1_a2" order="S"/><bond atomRefs2="a1 a3" id="a1_a3" order="S"/><bond atomRefs2="a1 a13" id="a1_a13" order="2"/><bond atomRefs2="a2 a4" id="a2_a4" order="S"/><bond atomRefs2="a2 a11" id="a2_a11" order="2"/><bond atomRefs2="a5 a6" id="a5_a6" order="S"/><bond atomRefs2="a5 a7" id="a5_a7" order="S"/><bond atomRefs2="a5 a8" id="a5_a8" order="2"/><bond atomRefs2="a8 a9" id="a8_a9" order="S"/><bond atomRefs2="a8 a10" id="a8_a10" order="S"/><bond atomRefs2="a11 a12" id="a11_a12" order="S"/><bond atomRefs2="a11 a16" id="a11_a16" order="S"/><bond atomRefs2="a13 a14" id="a13_a14" order="S"/><bond atomRefs2="a13 a15" id="a13_a15" order="S"/></bondArray><property dictRef="cml:molmass"><scalar dataType="xsd:double" units="unit:dalton" xmlns:unit="http://www.xml-cml.org/unit/si/">82.14359999999999</scalar></property></molecule></module><module cmlx:lineCount="39" cmlx:templateRef="l202.distmat"><array dataType="xsd:double" size="135" dictRef="cc:distance">0.0 1.363373 0.0 1.100797 2.139587 0.0 2.139597 1.100796 2.468951 0.0 3.004159 2.657343 3.889393 3.401764 0.0 3.899889 3.445232 4.871991 4.205836 1.103139 0.0 3.354702 2.813205 4.05244 3.220941 1.102564 1.85132 0.0 2.657396 3.004262 3.401795 3.889587 1.4403 2.178219 2.178217 0.0 3.445265 3.899867 4.205927 4.872062 2.178218 2.4493 3.070636 1.103136 0.0 2.813348 3.355009 3.221048 4.05292 2.178232 3.070588 2.450196 1.102562 1.851324 0.0 2.415553 1.423811 3.413426 2.180865 1.977255 2.368008 2.383998 2.816389 3.528069 3.539328 0.0 3.388668 2.167693 4.28738 2.469032 2.490956 2.631042 2.572881 3.65676 4.371459 4.337335 1.101387 0.0 1.423807 2.415566 2.180862 3.413454 2.816454 3.528324 3.539222 1.977331 2.368085 2.383996 2.792849 3.887219 0.0 2.17809 2.766089 3.093244 3.851326 2.943028 3.330529 3.869586 2.364261 2.422398 3.122275 2.678502 3.74468 1.104061 0.0 2.167701 3.388689 2.469049 4.287425 3.656812 4.37172 4.337181 2.491036 2.631248 2.572787 3.887213 4.976064 1.101384 1.84709 0.0 2.766111 2.178094 3.85136 3.093229 2.364242 2.422486 3.122334 2.942868 3.330118 3.869542 1.104062 1.847091 2.678496 2.132376 3.744668</array></module> Symmetry turned off by external request.<module cmlx:lineCount="1" cmlx:templateRef="l202.stoich"/> Framework group  C1[X(C6H10)] Deg. of freedom    42 Full point group                 C1      NOp   1<module cmlx:lineCount="1" cmlx:templateRef="l202.rotconst"><array dataType="xsd:double" size="3" dictRef="cc:rotconst" cmlx:templateRef="rotconst">4.4300715 4.0003004 2.5164192</array></module><module cmlx:lineCount="1" cmlx:templateRef="l301.basis"/> Integral buffers will be    131072 words long. Regular integral format. Two-electron integral symmetry is turned off.    34 basis functions,   204 primitive gaussians,    34 cartesian basis functions    17 alpha electrons       17 beta electrons       nuclear repulsion energy       142.6182069651 Hartrees. Do NDO integrals.<module cmlx:lineCount="1" cmlx:templateRef="l302.basis"><list cmlx:templateRef="onee"><scalar dataType="xsd:string" dictRef="g:onee">One-electron integrals</scalar></list></module> NBasis=    34 RedAO= F  NBF=    34 NBsUse=    34 1.00D-04 NBFU=    34 Initial guess read from the read-write file. B after Tr=     0.000000    0.000000    0.000000         Rot=    1.000000    0.000000    0.000000    0.000000 Ang=   0.00 deg. Requested convergence on RMS density matrix=1.00D-08 within 128 cycles. Requested convergence on MAX density matrix=1.00D-06. Requested convergence on             energy=1.00D-06. No special actions if energy rises. Overlap will be assumed to be unity. Keep J ints in memory in canonical form, NReq=883444. SCF Done:  E(RAM1) =  0.940819395347E-01 A.U. after   12 cycles             Convg  =    0.2883D-08             -V/T =  1.0018<module cmlx:lineCount="1" cmlx:templateRef="l801"/> NBasis=    34 NAE=    17 NBE=    17 NFC=     0 NFV=     0 NROrb=     34 NOA=    17 NOB=    17 NVA=    17 NVB=    17 Symmetrizing basis deriv contribution to polar: IMax=3 JMax=2 DiffMx= 0.00D+00 G2DrvN: will do    17 centers at a time, making    1 passes doing MaxLOS=1. Calling FoFCou, ICntrl=  3107 FMM=F I1Cent=   0 AccDes= 0.00D+00. FoFDir/FoFCou used for L=0 through L=1. End of G2Drv Frequency-dependent properties file   721 does not exist. End of G2Drv Frequency-dependent properties file   722 does not exist.          IDoAtm=1111111111111111          Differentiating once with respect to electric field.                with respect to dipole field.          Differentiating once with respect to nuclear coordinates.          Electric field/nuclear overlap derivatives assumed to be zero.          Keep J ints in memory in canonical form, NReq=803419.          There are    51 degrees of freedom in the 1st order CPHF.  IDoFFX=5. LinEq1:  Iter=  0 NonCon=    51 RMS=3.22D-01 Max=3.45D+00 AX will form    51 AO Fock derivatives at one time. LinEq1:  Iter=  1 NonCon=    51 RMS=4.95D-02 Max=2.35D-01 LinEq1:  Iter=  2 NonCon=    51 RMS=4.31D-03 Max=2.25D-02 LinEq1:  Iter=  3 NonCon=    51 RMS=3.49D-04 Max=3.80D-03 LinEq1:  Iter=  4 NonCon=    51 RMS=7.01D-05 Max=8.59D-04 LinEq1:  Iter=  5 NonCon=    51 RMS=9.90D-06 Max=9.54D-05 LinEq1:  Iter=  6 NonCon=    51 RMS=1.24D-06 Max=8.11D-06 LinEq1:  Iter=  7 NonCon=    25 RMS=1.35D-07 Max=8.19D-07 LinEq1:  Iter=  8 NonCon=     3 RMS=1.51D-08 Max=7.37D-08 LinEq1:  Iter=  9 NonCon=     0 RMS=1.66D-09 Max=9.06D-09 Linear equations converged to 1.000D-08 1.000D-07 after     9 iterations. Isotropic polarizability for W=    0.000000       58.64 Bohr**3. End of Minotr Frequency-dependent properties file   721 does not exist. End of Minotr Frequency-dependent properties file   722 does not exist. Calling FoFJK, ICntrl=    100127 FMM=F ISym2X=0 I1Cent= 0 IOpClX= 0 NMat=1 NMatS=1 NMatT=0. ------------------------------------------------------------------- Center     Atomic                   Forces (Hartrees/Bohr) Number     Number              X              Y              Z -------------------------------------------------------------------      1        6          -0.002974445   -0.007907727   -0.005621145      2        6          -0.002966310    0.007910748   -0.005625608      3        1          -0.001885810    0.000789637    0.002193490      4        1          -0.001883245   -0.000787771    0.002191110      5        6          -0.044798794   -0.018722326    0.019085585      6        1           0.002000589    0.001278423   -0.001368288      7        1           0.002067404    0.001244439   -0.000299967      8        6          -0.044796836    0.018731893    0.019078067      9        1           0.001999395   -0.001277662   -0.001368138     10        1           0.002068309   -0.001246032   -0.000300883     11        6           0.047509501    0.013796677   -0.014133735     12        1           0.000951383    0.000717180   -0.000663947     13        6           0.047508273   -0.013810364   -0.014129232     14        1          -0.002876505    0.001175435    0.000814134     15        1           0.000952642   -0.000717996   -0.000665489     16        1          -0.002875550   -0.001174552    0.000814048 ------------------------------------------------------------------- Cartesian Forces:  Max     0.047509501 RMS     0.015147300 IRC-IRC-IRC-IRC-IRC-IRC-IRC-IRC-IRC-IRC-IRC-IRC-IRC-IRC-IRC-IRC-IRC-IRC Pt  4 Step number   1 out of a maximum of  20 CORRECTOR INTEGRATION CONVERGENCE:   Recorrection delta-x convergence threshold:    0.010000   Delta-x Convergence Met Point Number:   4          Path Number:   1   CHANGE IN THE REACTION COORDINATE =    0.24940   NET REACTION COORDINATE UP TO THIS POINT =    0.99770  # OF POINTS ALONG THE PATH =   4  # OF STEPS =   1 Calculating another point on the path. IRC-IRC-IRC-IRC-IRC-IRC-IRC-IRC-IRC-IRC-IRC-IRC-IRC-IRC-IRC-IRC-IRC-IRC<module cmlx:lineCount="22" cmlx:templateRef="l202.orient"><molecule id="a16" cmlx:templateRef="atom"><atomArray><atom id="a1" elementType="C" x3="-1.235784" y3="0.679247" z3="-0.293749"><scalar dataType="xsd:integer" dictRef="cc:serial">1</scalar><scalar dataType="xsd:integer" dictRef="g:atomicType">0</scalar><scalar dataType="xsd:integer" dictRef="compchem:atomicNumber">6</scalar></atom><atom id="a2" elementType="C" x3="-1.235943" y3="-0.679048" z3="-0.293648"><scalar dataType="xsd:integer" dictRef="cc:serial">2</scalar><scalar dataType="xsd:integer" dictRef="g:atomicType">0</scalar><scalar dataType="xsd:integer" dictRef="compchem:atomicNumber">6</scalar></atom><atom id="a3" elementType="H" x3="-1.85287" y3="1.238044" z3="-1.013373"><scalar dataType="xsd:integer" dictRef="cc:serial">3</scalar><scalar dataType="xsd:integer" dictRef="g:atomicType">0</scalar><scalar dataType="xsd:integer" dictRef="compchem:atomicNumber">1</scalar></atom><atom id="a4" elementType="H" x3="-1.853217" y3="-1.237819" z3="-1.013132"><scalar dataType="xsd:integer" dictRef="cc:serial">4</scalar><scalar dataType="xsd:integer" dictRef="g:atomicType">0</scalar><scalar dataType="xsd:integer" dictRef="compchem:atomicNumber">1</scalar></atom><atom id="a5" elementType="C" x3="1.405222" y3="-0.726598" z3="-0.216229"><scalar dataType="xsd:integer" dictRef="cc:serial">5</scalar><scalar dataType="xsd:integer" dictRef="g:atomicType">0</scalar><scalar dataType="xsd:integer" dictRef="compchem:atomicNumber">6</scalar></atom><atom id="a6" elementType="H" x3="2.078644" y3="-1.219715" z3="0.506754"><scalar dataType="xsd:integer" dictRef="cc:serial">6</scalar><scalar dataType="xsd:integer" dictRef="g:atomicType">0</scalar><scalar dataType="xsd:integer" dictRef="compchem:atomicNumber">1</scalar></atom><atom id="a7" elementType="H" x3="1.378581" y3="-1.22001" z3="-1.203144"><scalar dataType="xsd:integer" dictRef="cc:serial">7</scalar><scalar dataType="xsd:integer" dictRef="g:atomicType">0</scalar><scalar dataType="xsd:integer" dictRef="compchem:atomicNumber">1</scalar></atom><atom id="a8" elementType="C" x3="1.405439" y3="0.726302" z3="-0.216113"><scalar dataType="xsd:integer" dictRef="cc:serial">8</scalar><scalar dataType="xsd:integer" dictRef="g:atomicType">0</scalar><scalar dataType="xsd:integer" dictRef="compchem:atomicNumber">6</scalar></atom><atom id="a9" elementType="H" x3="2.078866" y3="1.219103" z3="0.507077"><scalar dataType="xsd:integer" dictRef="cc:serial">9</scalar><scalar dataType="xsd:integer" dictRef="g:atomicType">0</scalar><scalar dataType="xsd:integer" dictRef="compchem:atomicNumber">1</scalar></atom><atom id="a10" elementType="H" x3="1.379073" y3="1.219905" z3="-1.202936"><scalar dataType="xsd:integer" dictRef="cc:serial">10</scalar><scalar dataType="xsd:integer" dictRef="g:atomicType">0</scalar><scalar dataType="xsd:integer" dictRef="compchem:atomicNumber">1</scalar></atom><atom id="a11" elementType="C" x3="-0.27433" y3="-1.391423" z3="0.493659"><scalar dataType="xsd:integer" dictRef="cc:serial">11</scalar><scalar dataType="xsd:integer" dictRef="g:atomicType">0</scalar><scalar dataType="xsd:integer" dictRef="compchem:atomicNumber">6</scalar></atom><atom id="a12" elementType="H" x3="-0.228267" y3="-2.48491" z3="0.361684"><scalar dataType="xsd:integer" dictRef="cc:serial">12</scalar><scalar dataType="xsd:integer" dictRef="g:atomicType">0</scalar><scalar dataType="xsd:integer" dictRef="compchem:atomicNumber">1</scalar></atom><atom id="a13" elementType="C" x3="-0.274125" y3="1.391538" z3="0.49357"><scalar dataType="xsd:integer" dictRef="cc:serial">13</scalar><scalar dataType="xsd:integer" dictRef="g:atomicType">0</scalar><scalar dataType="xsd:integer" dictRef="compchem:atomicNumber">6</scalar></atom><atom id="a14" elementType="H" x3="-0.129072" y3="1.07087" z3="1.541299"><scalar dataType="xsd:integer" dictRef="cc:serial">14</scalar><scalar dataType="xsd:integer" dictRef="g:atomicType">0</scalar><scalar dataType="xsd:integer" dictRef="compchem:atomicNumber">1</scalar></atom><atom id="a15" elementType="H" x3="-0.227848" y3="2.485003" z3="0.361503"><scalar dataType="xsd:integer" dictRef="cc:serial">15</scalar><scalar dataType="xsd:integer" dictRef="g:atomicType">0</scalar><scalar dataType="xsd:integer" dictRef="compchem:atomicNumber">1</scalar></atom><atom id="a16" elementType="H" x3="-0.12916" y3="-1.070698" z3="1.541356"><scalar dataType="xsd:integer" dictRef="cc:serial">16</scalar><scalar dataType="xsd:integer" dictRef="g:atomicType">0</scalar><scalar dataType="xsd:integer" dictRef="compchem:atomicNumber">1</scalar></atom></atomArray><formula formalCharge="0" concise="C 6 H 10"><atomArray elementType="C H" count="6.0 10.0"/></formula><bondArray><bond atomRefs2="a1 a2" id="a1_a2" order="S"/><bond atomRefs2="a1 a3" id="a1_a3" order="S"/><bond atomRefs2="a1 a13" id="a1_a13" order="2"/><bond atomRefs2="a2 a4" id="a2_a4" order="S"/><bond atomRefs2="a2 a11" id="a2_a11" order="2"/><bond atomRefs2="a5 a6" id="a5_a6" order="S"/><bond atomRefs2="a5 a7" id="a5_a7" order="S"/><bond atomRefs2="a5 a8" id="a5_a8" order="2"/><bond atomRefs2="a8 a9" id="a8_a9" order="S"/><bond atomRefs2="a8 a10" id="a8_a10" order="S"/><bond atomRefs2="a11 a12" id="a11_a12" order="S"/><bond atomRefs2="a11 a16" id="a11_a16" order="S"/><bond atomRefs2="a13 a14" id="a13_a14" order="S"/><bond atomRefs2="a13 a15" id="a13_a15" order="S"/></bondArray><property dictRef="cml:molmass"><scalar dataType="xsd:double" units="unit:dalton" xmlns:unit="http://www.xml-cml.org/unit/si/">82.14359999999999</scalar></property></molecule></module><module cmlx:lineCount="39" cmlx:templateRef="l202.distmat"><array dataType="xsd:double" size="135" dictRef="cc:distance">0.0 1.358295 0.0 1.100413 2.138655 0.0 2.138662 1.100412 2.475863 0.0 2.992878 2.642728 3.887213 3.393203 0.0 3.902857 3.452456 4.879362 4.215437 1.104249 
[...]
one time. LinEq1:  Iter=  1 NonCon=    51 RMS=4.04D-02 Max=1.83D-01 LinEq1:  Iter=  2 NonCon=    51 RMS=3.76D-03 Max=1.70D-02 LinEq1:  Iter=  3 NonCon=    51 RMS=3.39D-04 Max=1.26D-03 LinEq1:  Iter=  4 NonCon=    51 RMS=4.79D-05 Max=3.23D-04 LinEq1:  Iter=  5 NonCon=    51 RMS=4.80D-06 Max=2.40D-05 LinEq1:  Iter=  6 NonCon=    41 RMS=5.79D-07 Max=2.75D-06 LinEq1:  Iter=  7 NonCon=     3 RMS=6.69D-08 Max=2.28D-07 LinEq1:  Iter=  8 NonCon=     0 RMS=7.34D-09 Max=3.70D-08 Linear equations converged to 1.000D-08 1.000D-07 after     8 iterations. Isotropic polarizability for W=    0.000000       48.16 Bohr**3. End of Minotr Frequency-dependent properties file   721 does not exist. End of Minotr Frequency-dependent properties file   722 does not exist. Calling FoFJK, ICntrl=    100127 FMM=F ISym2X=0 I1Cent= 0 IOpClX= 0 NMat=1 NMatS=1 NMatT=0. ------------------------------------------------------------------- Center     Atomic                   Forces (Hartrees/Bohr) Number     Number              X              Y              Z -------------------------------------------------------------------      1        6           0.000000886   -0.000000806   -0.000000366      2        6           0.000000125   -0.000000253    0.000000595      3        1          -0.000000604    0.000000485   -0.000000436      4        1          -0.000000057   -0.000000121   -0.000000043      5        6          -0.000000267    0.000000052   -0.000002204      6        1          -0.000000155   -0.000000019   -0.000000795      7        1          -0.000000515    0.000000365    0.000000084      8        6           0.000000721    0.000000118    0.000001743      9        1          -0.000000637   -0.000000451   -0.000000002     10        1           0.000000159   -0.000000052    0.000000997     11        6           0.000000255    0.000000408    0.000001149     12        1          -0.000000017    0.000000116    0.000000316     13        6           0.000000008    0.000000181   -0.000000459     14        1          -0.000000078    0.000000119   -0.000000483     15        1           0.000000027   -0.000000380   -0.000000024     16        1           0.000000148    0.000000239   -0.000000071 ------------------------------------------------------------------- Cartesian Forces:  Max     0.000002204 RMS     0.000000585 IRC-IRC-IRC-IRC-IRC-IRC-IRC-IRC-IRC-IRC-IRC-IRC-IRC-IRC-IRC-IRC-IRC-IRC Pt 27 Step number   1 out of a maximum of  20 CORRECTOR INTEGRATION CONVERGENCE:   Recorrection delta-x convergence threshold:    0.010000   Delta-x Convergence Met Point Number:  27          Path Number:   1   CHANGE IN THE REACTION COORDINATE =    0.01800   NET REACTION COORDINATE UP TO THIS POINT =    6.32620  # OF POINTS ALONG THE PATH =  27  # OF STEPS =   1 PES minimum detected on this side of the pathway.    Magnitude of the gradient =      0.0000101 Calculation of REVERSE path complete. Reaction path calculation complete.  Energies reported relative to the TS energy of           0.111655 --------------------------------------------------------------------------    Summary of reaction path following --------------------------------------------------------------------------                        Energy   Rx Coord   1                   -0.12265  -6.32620   2                   -0.12265  -6.30821   3                   -0.12265  -6.22122   4                   -0.12260  -5.97140   5                   -0.12248  -5.72190   6                   -0.12228  -5.47243   7                   -0.12199  -5.22300   8                   -0.12159  -4.97354   9                   -0.12107  -4.72408  10                   -0.12039  -4.47472  11                   -0.11953  -4.22789  12                   -0.11805  -3.98927  13                   -0.11475  -3.74120  14                   -0.10940  -3.49195  15                   -0.10232  -3.24254  16                   -0.09392  -2.99311  17                   -0.08461  -2.74366  18                   -0.07475  -2.49422  19                   -0.06462  -2.24478  20                   -0.05448  -1.99535  21                   -0.04452  -1.74593  22                   -0.03492  -1.49651  23                   -0.02587  -1.24710  24                   -0.01757  -0.99770  25                   -0.01037  -0.74830  26                   -0.00472  -0.49889  27                   -0.00116  -0.24948  28                    0.00000   0.00000 --------------------------------------------------------------------------  Total number of points:                   27 Total number of gradient calculations:    29 Total number of Hessian calculations:     29 IRC-IRC-IRC-IRC-IRC-IRC-IRC-IRC-IRC-IRC-IRC-IRC-IRC-IRC-IRC-IRC-IRC-IRC<module cmlx:lineCount="22" cmlx:templateRef="l202.orient"><molecule id="a16" cmlx:templateRef="atom"><atomArray><atom id="a1" elementType="C" x3="-1.25091" y3="0.668891" z3="-0.243519"><scalar dataType="xsd:integer" dictRef="cc:serial">1</scalar><scalar dataType="xsd:integer" dictRef="g:atomicType">0</scalar><scalar dataType="xsd:integer" dictRef="compchem:atomicNumber">6</scalar></atom><atom id="a2" elementType="C" x3="-1.251114" y3="-0.668919" z3="-0.242999"><scalar dataType="xsd:integer" dictRef="cc:serial">2</scalar><scalar dataType="xsd:integer" dictRef="g:atomicType">0</scalar><scalar dataType="xsd:integer" dictRef="compchem:atomicNumber">6</scalar></atom><atom id="a3" elementType="H" x3="-2.094863" y3="1.262637" z3="-0.619788"><scalar dataType="xsd:integer" dictRef="cc:serial">3</scalar><scalar dataType="xsd:integer" dictRef="g:atomicType">0</scalar><scalar dataType="xsd:integer" dictRef="compchem:atomicNumber">1</scalar></atom><atom id="a4" elementType="H" x3="-2.095216" y3="-1.262748" z3="-0.618779"><scalar dataType="xsd:integer" dictRef="cc:serial">4</scalar><scalar dataType="xsd:integer" dictRef="g:atomicType">0</scalar><scalar dataType="xsd:integer" dictRef="compchem:atomicNumber">1</scalar></atom><atom id="a5" elementType="C" x3="1.235647" y3="-0.759349" z3="-0.076037"><scalar dataType="xsd:integer" dictRef="cc:serial">5</scalar><scalar dataType="xsd:integer" dictRef="g:atomicType">0</scalar><scalar dataType="xsd:integer" dictRef="compchem:atomicNumber">6</scalar></atom><atom id="a6" elementType="H" x3="2.02493" y3="-1.131495" z3="0.629736"><scalar dataType="xsd:integer" dictRef="cc:serial">6</scalar><scalar dataType="xsd:integer" dictRef="g:atomicType">0</scalar><scalar dataType="xsd:integer" dictRef="compchem:atomicNumber">1</scalar></atom><atom id="a7" elementType="H" x3="1.527184" y3="-1.11519" z3="-1.100647"><scalar dataType="xsd:integer" dictRef="cc:serial">7</scalar><scalar dataType="xsd:integer" dictRef="g:atomicType">0</scalar><scalar dataType="xsd:integer" dictRef="compchem:atomicNumber">1</scalar></atom><atom id="a8" elementType="C" x3="1.236209" y3="0.759073" z3="-0.074403"><scalar dataType="xsd:integer" dictRef="cc:serial">8</scalar><scalar dataType="xsd:integer" dictRef="g:atomicType">0</scalar><scalar dataType="xsd:integer" dictRef="compchem:atomicNumber">6</scalar></atom><atom id="a9" elementType="H" x3="2.023751" y3="1.129111" z3="0.634434"><scalar dataType="xsd:integer" dictRef="cc:serial">9</scalar><scalar dataType="xsd:integer" dictRef="g:atomicType">0</scalar><scalar dataType="xsd:integer" dictRef="compchem:atomicNumber">1</scalar></atom><atom id="a10" elementType="H" x3="1.531109" y3="1.116772" z3="-1.097404"><scalar dataType="xsd:integer" dictRef="cc:serial">10</scalar><scalar dataType="xsd:integer" dictRef="g:atomicType">0</scalar><scalar dataType="xsd:integer" dictRef="compchem:atomicNumber">1</scalar></atom><atom id="a11" elementType="C" x3="-0.085014" y3="-1.40961" z3="0.297077"><scalar dataType="xsd:integer" dictRef="cc:serial">11</scalar><scalar dataType="xsd:integer" dictRef="g:atomicType">0</scalar><scalar dataType="xsd:integer" dictRef="compchem:atomicNumber">6</scalar></atom><atom id="a12" elementType="H" x3="-0.089827" y3="-2.469372" z3="-0.070747"><scalar dataType="xsd:integer" dictRef="cc:serial">12</scalar><scalar dataType="xsd:integer" dictRef="g:atomicType">0</scalar><scalar dataType="xsd:integer" dictRef="compchem:atomicNumber">1</scalar></atom><atom id="a13" elementType="C" x3="-0.084897" y3="1.409854" z3="0.296333"><scalar dataType="xsd:integer" dictRef="cc:serial">13</scalar><scalar dataType="xsd:integer" dictRef="g:atomicType">0</scalar><scalar dataType="xsd:integer" dictRef="compchem:atomicNumber">6</scalar></atom><atom id="a14" elementType="H" x3="-0.17827" y3="1.450044" z3="1.416872"><scalar dataType="xsd:integer" dictRef="cc:serial">14</scalar><scalar dataType="xsd:integer" dictRef="g:atomicType">0</scalar><scalar dataType="xsd:integer" dictRef="compchem:atomicNumber">1</scalar></atom><atom id="a15" elementType="H" x3="-0.089199" y3="2.469136" z3="-0.072908"><scalar dataType="xsd:integer" dictRef="cc:serial">15</scalar><scalar dataType="xsd:integer" dictRef="g:atomicType">0</scalar><scalar dataType="xsd:integer" dictRef="compchem:atomicNumber">1</scalar></atom><atom id="a16" elementType="H" x3="-0.177311" y3="-1.448194" z3="1.417741"><scalar dataType="xsd:integer" dictRef="cc:serial">16</scalar><scalar dataType="xsd:integer" dictRef="g:atomicType">0</scalar><scalar dataType="xsd:integer" dictRef="compchem:atomicNumber">1</scalar></atom></atomArray><formula formalCharge="0" concise="C 6 H 10"><atomArray elementType="C H" count="6.0 10.0"/></formula><bondArray><bond atomRefs2="a1 a2" id="a1_a2" order="2"/><bond atomRefs2="a1 a3" id="a1_a3" order="S"/><bond atomRefs2="a1 a13" id="a1_a13" order="S"/><bond atomRefs2="a2 a4" id="a2_a4" order="S"/><bond atomRefs2="a2 a11" id="a2_a11" order="S"/><bond atomRefs2="a5 a6" id="a5_a6" order="S"/><bond atomRefs2="a5 a7" id="a5_a7" order="S"/><bond atomRefs2="a5 a8" id="a5_a8" order="S"/><bond atomRefs2="a5 a11" id="a5_a11" order="S"/><bond atomRefs2="a8 a9" id="a8_a9" order="S"/><bond atomRefs2="a8 a10" id="a8_a10" order="S"/><bond atomRefs2="a8 a13" id="a8_a13" order="S"/><bond atomRefs2="a11 a12" id="a11_a12" order="S"/><bond atomRefs2="a11 a16" id="a11_a16" order="S"/><bond atomRefs2="a13 a14" id="a13_a14" order="S"/><bond atomRefs2="a13 a15" id="a13_a15" order="S"/></bondArray><property dictRef="cml:molmass"><scalar dataType="xsd:double" units="unit:dalton" xmlns:unit="http://www.xml-cml.org/unit/si/">82.14359999999999</scalar></property></molecule></module><module cmlx:lineCount="39" cmlx:templateRef="l202.distmat"><array dataType="xsd:double" size="135" dictRef="cc:distance">0.0 1.337809 0.0 1.098349 2.141213 0.0 2.141239 1.098341 2.525386 0.0 2.872435 2.494 3.934005 3.41213 0.0 3.838632 3.421711 4.926041 4.30716 1.122309 0.0 3.411073 2.94171 4.359417 3.657288 1.12314 1.800624 0.0 2.494493 2.873041 3.41278 3.934781 1.518423 2.166135 2.15655 0.0 3.421405 3.837648 4.307423 4.925183 2.166138 2.260611 2.879926 1.122319 0.0 2.944375 3.414595 3.660201 4.363649 2.156459 2.877773 2.231967 1.12314 1.800587 0.0 2.443711 1.483272 3.467138 2.213882 1.518618 2.154036 2.15395 2.56648 3.3175 3.307421 0.0 3.35062 2.149392 4.271944 2.403718 2.163583 2.598613 2.347174 3.490164 4.232443 4.067171 1.12179 0.0 1.483258 2.443816 2.213801 3.467221 2.566698 3.319787 3.305481 1.518645 2.153956 2.154037 2.819465 3.896558 0.0 2.125478 2.897614 2.802933 3.895869 3.018171 3.483966 3.978304 2.168432 2.358836 3.058534 3.0725 4.193167 1.125141 0.0 2.149317 3.350577 2.403624 4.27189 3.489748 4.234123 4.06403 2.163568 2.600108 2.346035 3.896355 4.938508 1.1218 1.807188 0.0 2.897318 2.125648 3.895785 2.803599 2.168486 2.360321 3.059162 3.016051 3.478612 3.977902 1.12512 1.807223 3.071569 2.898238 4.192287</array></module> Symmetry turned off by external request.<module cmlx:lineCount="1" cmlx:templateRef="l202.stoich"/> Framework group  C1[X(C6H10)] Deg. of freedom    42 Full point group                 C1      NOp   1<module cmlx:lineCount="1" cmlx:templateRef="l202.rotconst"><array dataType="xsd:double" size="3" dictRef="cc:rotconst" cmlx:templateRef="rotconst">4.6778912 4.6605255 2.6080317</array></module><module cmlx:lineCount="136" cmlx:templateRef="l601.popanal"><array dataType="xsd:double" size="17" dictRef="g:alphaocc">-1.42113 -1.1581 -1.1542 -0.88321 -0.83653 -0.64855 -0.62432 -0.60062 -0.5323 -0.50163 -0.50146 -0.4788 -0.47294 -0.42286 -0.42033 -0.39664 -0.3515</array><array dataType="xsd:double" size="17" dictRef="g:alphavirt">0.04864 0.13672 0.14325 0.14437 0.15821 0.15986 0.16473 0.16615 0.17325 0.17801 0.18071 0.18462 0.18971 0.19434 0.1952 0.2131 0.22245</array><module cmlx:lineCount="8" cmlx:templateRef="l601.alphabetaeigen"/><module cmlx:lineCount="51" cmlx:templateRef="l601.condensed"><array dataType="xsd:double" size="16" dictRef="x:floatArr">4.167134 0.0 0.0 0.0 0.0 0.0 0.0 0.0 0.0 0.0 0.0 0.0 0.0 0.0 0.0 0.0</array><array dataType="xsd:double" size="16" dictRef="x:floatArr">0.0 4.167156 0.0 0.0 0.0 0.0 0.0 0.0 0.0 0.0 0.0 0.0 0.0 0.0 0.0 0.0</array><array dataType="xsd:double" size="16" dictRef="x:floatArr">0.0 0.0 0.876134 0.0 0.0 0.0 0.0 0.0 0.0 0.0 0.0 0.0 0.0 0.0 0.0 0.0</array><array dataType="xsd:double" size="16" dictRef="x:floatArr">0.0 0.0 0.0 0.876121 0.0 0.0 0.0 0.0 0.0 0.0 0.0 0.0 0.0 0.0 0.0 0.0</array><array dataType="xsd:double" size="16" dictRef="x:floatArr">0.0 0.0 0.0 0.0 4.149824 0.0 0.0 0.0 0.0 0.0 0.0 0.0 0.0 0.0 0.0 0.0</array><array dataType="xsd:double" size="16" dictRef="x:floatArr">0.0 0.0 0.0 0.0 0.0 0.92462 0.0 0.0 0.0 0.0 0.0 0.0 0.0 0.0 0.0 0.0</array><array dataType="xsd:double" size="16" dictRef="x:floatArr">0.0 0.0 0.0 0.0 0.0 0.0 0.922318 0.0 0.0 0.0 0.0 0.0 0.0 0.0 0.0 0.0</array><array dataType="xsd:double" size="16" dictRef="x:floatArr">0.0 0.0 0.0 0.0 0.0 0.0 0.0 4.149819 0.0 0.0 0.0 0.0 0.0 0.0 0.0 0.0</array><array dataType="xsd:double" size="16" dictRef="x:floatArr">0.0 0.0 0.0 0.0 0.0 0.0 0.0 0.0 0.924644 0.0 0.0 0.0 0.0 0.0 0.0 0.0</array><array dataType="xsd:double" size="16" dictRef="x:floatArr">0.0 0.0 0.0 0.0 0.0 0.0 0.0 0.0 0.0 0.922334 0.0 0.0 0.0 0.0 0.0 0.0</array><array dataType="xsd:double" size="16" dictRef="x:floatArr">0.0 0.0 0.0 0.0 0.0 0.0 0.0 0.0 0.0 0.0 4.129237 0.0 0.0 0.0 0.0 0.0</array><array dataType="xsd:double" size="16" dictRef="x:floatArr">0.0 0.0 0.0 0.0 0.0 0.0 0.0 0.0 0.0 0.0 0.0 0.917536 0.0 0.0 0.0 0.0</array><array dataType="xsd:double" size="16" dictRef="x:floatArr">0.0 0.0 0.0 0.0 0.0 0.0 0.0 0.0 0.0 0.0 0.0 0.0 4.129227 0.0 0.0 0.0</array><array dataType="xsd:double" size="16" dictRef="x:floatArr">0.0 0.0 0.0 0.0 0.0 0.0 0.0 0.0 0.0 0.0 0.0 0.0 0.0 0.913185 0.0 0.0</array><array dataType="xsd:double" size="16" dictRef="x:floatArr">0.0 0.0 0.0 0.0 0.0 0.0 0.0 0.0 0.0 0.0 0.0 0.0 0.0 0.0 0.917542 0.0</array><array dataType="xsd:double" size="12" dictRef="x:floatArr">0.0 0.0 0.0 0.0 0.0 0.0 0.0 0.0 0.0 0.0 0.0 0.0</array></module>    16  H    0.000000   0.000000   0.000000   0.913168<module cmlx:lineCount="67" cmlx:templateRef="mulliken"><module cmlx:lineCount="19" cmlx:templateRef="l601.mullik"><scalar dataType="xsd:string" dictRef="g:title">Mulliken atomic charges:</scalar><scalar dataType="xsd:integer" dictRef="cc:serial">1</scalar> Sum of Mulliken atomic charges =   0.00000</module> Mulliken charges with hydrogens summed into heavy atoms:              1     1  C   -0.043267     2  C   -0.043277     5  C    0.003237     8  C    0.003203    11  C    0.040059    13  C    0.040046 Sum of Mulliken charges with hydrogens summed into heavy atoms =   0.00000<module cmlx:lineCount="19" cmlx:templateRef="l601.mullik"><scalar dataType="xsd:string" dictRef="g:title">APT atomic charges:</scalar><scalar dataType="xsd:integer" dictRef="cc:serial">1</scalar><list cmlx:lineCount="16" cmlx:templateRef="row"><array dataType="xsd:integer" dictRef="cc:serial" size="16">1 2 3 4 5 6 7 8 9 10 11 12 13 14 15 16</array><array dataType="xsd:string" dictRef="cc:elementType" size="16">C C H H C H H C H H C H C H H H</array><array dataType="xsd:double" dictRef="x:charge" size="16">-0.128674 -0.12877 0.097032 0.097054 -0.02316 0.010975 0.014303 -0.023138 0.010931 0.014296 -0.015313 0.024723 -0.015347 0.020177 0.024714 0.0202</array></list><scalar dataType="xsd:string" dictRef="x:type">APT</scalar><scalar dataType="xsd:double" dictRef="x:charge.sum">0.0</scalar></module><module cmlx:lineCount="19" cmlx:templateRef="l601.mullik"><scalar dataType="xsd:string" dictRef="g:title">APT Atomic charges with hydrogens summed into heavy atoms:</scalar><scalar dataType="xsd:integer" dictRef="cc:serial">1</scalar><list cmlx:lineCount="16" cmlx:templateRef="row"><array dataType="xsd:integer" dictRef="cc:serial" size="16">1 2 3 4 5 6 7 8 9 10 11 12 13 14 15 16</array><array dataType="xsd:string" dictRef="cc:elementType" size="16">C C H H C H H C H H C H C H H H</array><array dataType="xsd:double" dictRef="x:charge" size="16">-0.031643 -0.031716 0.0 0.0 0.002118 0.0 0.0 0.002089 0.0 0.0 0.02961 0.0 0.029544 0.0 0.0 0.0</array></list><scalar dataType="xsd:string" dictRef="x:type">APT</scalar><scalar dataType="xsd:double" dictRef="x:charge.sum">0.0</scalar></module> Charge=              0.0000 electrons</module><module cmlx:lineCount="3" cmlx:templateRef="multipole"/></module><module cmlx:lineCount="2" cmlx:templateRef="l601.polariz"><list cmlx:templateRef="l601.pol"><scalar dataType="xsd:double" dictRef="g:l601.pol.exact">43.714</scalar><scalar dataType="xsd:double" dictRef="g:l601.pol">0.0020</scalar><scalar dataType="xsd:double" dictRef="g:l601.pol">63.525</scalar><scalar dataType="xsd:double" dictRef="g:l601.pol">4.309</scalar><scalar dataType="xsd:double" dictRef="g:l601.pol">-0.0080</scalar><scalar dataType="xsd:double" dictRef="g:l601.pol">37.233</scalar></list><list cmlx:templateRef="l601.pol"><scalar dataType="xsd:double" dictRef="g:l601.pol.approx">26.97</scalar><scalar dataType="xsd:double" dictRef="g:l601.pol">0.0020</scalar><scalar dataType="xsd:double" dictRef="g:l601.pol">43.802</scalar><scalar dataType="xsd:double" dictRef="g:l601.pol">2.867</scalar><scalar dataType="xsd:double" dictRef="g:l601.pol">-0.0080</scalar><scalar dataType="xsd:double" dictRef="g:l601.pol">24.552</scalar></list></module> ------------------------------------------------------------------- Center     Atomic                   Forces (Hartrees/Bohr) Number     Number              X              Y              Z -------------------------------------------------------------------      1        6           0.000000886   -0.000000806   -0.000000366      2        6           0.000000125   -0.000000253    0.000000595      3        1          -0.000000604    0.000000485   -0.000000436      4        1          -0.000000057   -0.000000121   -0.000000043      5        6          -0.000000267    0.000000052   -0.000002204      6        1          -0.000000155   -0.000000019   -0.000000795      7        1          -0.000000515    0.000000365    0.000000084      8        6           0.000000721    0.000000118    0.000001743      9        1          -0.000000637   -0.000000451   -0.000000002     10        1           0.000000159   -0.000000052    0.000000997     11        6           0.000000255    0.000000408    0.000001149     12        1          -0.000000017    0.000000116    0.000000316     13        6           0.000000008    0.000000181   -0.000000459     14        1          -0.000000078    0.000000119   -0.000000483     15        1           0.000000027   -0.000000380   -0.000000024     16        1           0.000000148    0.000000239   -0.000000071 ------------------------------------------------------------------- Cartesian Forces:  Max     0.000002204 RMS     0.000000585 This type of calculation cannot be archived. WORK FAITHFULLY FOR EIGHT HOURS A DAY AND DON'T WORRY. IN TIME YOU MAY BECOME BOSS AND WORK TWELVE HOURS A DAY AND HAVE ALL THE WORRY.<module cmlx:lineCount="3" cmlx:templateRef="jobcpu"><scalar dictRef="cc:jobtime" dataType="xsd:string">PT59.400S</scalar><scalar dataType="xsd:string" dictRef="cc:jobdatetime.end">Tue Nov  3 22:06:36 2009</scalar><scalar dataType="xsd:string" dictRef="cc:program">Gaussian 09</scalar></module></module>
