<?xml version="1.0" encoding="UTF-8"?>
<module cmlx:templateRef="gaussian.log" xmlns="http://www.xml-cml.org/schema" xmlns:cmlx="http://www.xml-cml.org/schema/cmlx"> Entering Gaussian System, Link 0=g03 Initial command: /apps/gaussian/g09/g09/l1.exe /home/scan-user-1/run/19321/Gau-10015.inp -scrdir=/home/scan-user-1/run/19321/ Entering Link 1 = /apps/gaussian/g09/g09/l1.exe PID=     10016.  <module cmlx:lineCount="48" cmlx:templateRef="l1.legal"><scalar dataType="xsd:string" dictRef="g:l1.legal">Copyright (c) 1988,1990,1992,1993,1995,1998,2003,2009, Gaussian, Inc.</scalar></module>  <module cmlx:lineCount="18" cmlx:templateRef="l1.citation"><list cmlx:templateRef="citation"><scalar dataType="xsd:string" dictRef="g:l1.citation">Cite this work as:</scalar></list></module> <module cmlx:lineCount="41" cmlx:templateRef="l1.end"><scalar dataType="xsd:string" dictRef="cc:run.date">3-Nov-2009</scalar><scalar dataType="xsd:string" dictRef="cc:program">Gaussian 09</scalar><scalar dataType="xsd:string" dictRef="cc:version">EM64L-G09RevA.02</scalar><scalar dataType="xsd:string" dictRef="cc:program.date">11-Jun-2009</scalar> Will use up to    2 processors via shared memory. %mem=3600MB %NoSave %Chk=chk.chk %rwf=/tmp/pbs.3091103.cx1/rwf<scalar dataType="xsd:string" dictRef="cc:keywords">ty)</scalar><list cmlx:templateRef="control"><scalar dataType="xsd:string" dictRef="g:control">1/10=4,14=-1,18=120,22=2,26=1,38=1,42=50,44=3,57=2,71=1/1,23</scalar></list><list cmlx:templateRef="control"><scalar dataType="xsd:string" dictRef="g:control">2/9=110,12=2,17=6,18=5,29=1,40=1/2</scalar></list><list cmlx:templateRef="control"><scalar dataType="xsd:string" dictRef="g:control">3/5=2,16=1,25=1,41=700000,71=2/1,2,3</scalar></list><list cmlx:templateRef="control"><scalar dataType="xsd:string" dictRef="g:control">4/35=1/1</scalar></list><list cmlx:templateRef="control"><scalar dataType="xsd:string" dictRef="g:control">5/5=2,35=1,38=5/2</scalar></list><list cmlx:templateRef="control"><scalar dataType="xsd:string" dictRef="g:control">8/6=4,10=90,11=11/1</scalar></list><list cmlx:templateRef="control"><scalar dataType="xsd:string" dictRef="g:control">11/6=1,8=1,9=11,15=111,16=1/1,2,10</scalar></list><list cmlx:templateRef="control"><scalar dataType="xsd:string" dictRef="g:control">10/6=1/2</scalar></list><list cmlx:templateRef="control"><scalar dataType="xsd:string" dictRef="g:control">6/7=2,8=2,9=2,10=2,18=1,28=1/1</scalar></list><list cmlx:templateRef="control"><scalar dataType="xsd:string" dictRef="g:control">7/10=1,25=1/1,2,3,16</scalar></list><list cmlx:templateRef="control"><scalar dataType="xsd:string" dictRef="g:control">1/10=4,14=-1,18=20,22=2,42=50,44=3,71=1/23(3)</scalar></list><list cmlx:templateRef="control"><scalar dataType="xsd:string" dictRef="g:control">2/9=110,29=1/2</scalar></list><list cmlx:templateRef="control"><scalar dataType="xsd:string" dictRef="g:control">7/8=1,9=1,25=1,44=-1/16</scalar></list><list cmlx:templateRef="control"><scalar dataType="xsd:string" dictRef="g:control">99//99</scalar></list><list cmlx:templateRef="control"><scalar dataType="xsd:string" dictRef="g:control">2/9=110,29=1/2</scalar></list><list cmlx:templateRef="control"><scalar dataType="xsd:string" dictRef="g:control">3/5=2,16=1,25=1,41=700000,71=2,135=20/1,2,3</scalar></list><list cmlx:templateRef="control"><scalar dataType="xsd:string" dictRef="g:control">4/5=5,16=3,35=1/1</scalar></list><list cmlx:templateRef="control"><scalar dataType="xsd:string" dictRef="g:control">5/5=2,35=1,38=5/2</scalar></list><list cmlx:templateRef="control"><scalar dataType="xsd:string" dictRef="g:control">8/6=4,10=90,11=11/1</scalar></list><list cmlx:templateRef="control"><scalar dataType="xsd:string" dictRef="g:control">11/6=1,8=1,9=11,15=111,16=1/1,2,10</scalar></list><list cmlx:templateRef="control"><scalar dataType="xsd:string" dictRef="g:control">10/6=1/2</scalar></list><list cmlx:templateRef="control"><scalar dataType="xsd:string" dictRef="g:control">7/10=1,25=1/1,2,3,16</scalar></list><list cmlx:templateRef="control"><scalar dataType="xsd:string" dictRef="g:control">1/10=4,14=-1,18=20,22=2,42=50,44=3,71=1/23(-8)</scalar></list><list cmlx:templateRef="control"><scalar dataType="xsd:string" dictRef="g:control">2/9=110,29=1/2</scalar></list><list cmlx:templateRef="control"><scalar dataType="xsd:string" dictRef="g:control">6/7=2,8=2,9=2,10=2,18=1,19=2,28=1/1</scalar></list><list cmlx:templateRef="control"><scalar dataType="xsd:string" dictRef="g:control">7/8=1,9=1,25=1,44=-1/16</scalar></list><list cmlx:templateRef="control"><scalar dataType="xsd:string" dictRef="g:control">99//99</scalar></list></module><module cmlx:lineCount="3" cmlx:templateRef="l101.title"><scalar dataType="xsd:string" dictRef="cc:title" cmlx:templateRef="title">DA2_exo_IRC</scalar></module><module cmlx:lineCount="26" cmlx:templateRef="l101"><list cmlx:templateRef="rest"><scalar dataType="xsd:string" dictRef="x:l101"/></list></module> The following ModRedundant input section has been read: B    7   17 D                                                                  B   10   16 D                                                                  IRC-IRC-IRC-IRC-IRC-IRC-IRC-IRC-IRC-IRC-IRC-IRC-IRC-IRC-IRC-IRC-IRC-IRC ------------------------------------------------------------------------ INPUT DATA FOR L123 ------------------------------------------------------------------------ GENERAL PARAMETERS: Rxn path following direction = Reverse Maximum points per path      =  50 Step size                    =   0.100 bohr Integration scheme           = HPC                                     Redo corrector integration= Yes                                     Max correction cycles     =  20 Initial Hessian              = CalcFC Hessian evaluation           = Full Hessian always ------------------------------------------------------------------------ IRC-IRC-IRC-IRC-IRC-IRC-IRC-IRC-IRC-IRC-IRC-IRC-IRC-IRC-IRC-IRC-IRC-IRC<module cmlx:lineCount="29" cmlx:templateRef="l202.orient"><molecule id="mol.l202.orient" cmlx:templateRef="atom"><atomArray><atom id="a1" elementType="C" x3="-2.306625" y3="0.698367" z3="-0.663488"><scalar dataType="xsd:integer" dictRef="cc:serial">1</scalar><scalar dataType="xsd:integer" dictRef="g:atomicType">0</scalar><scalar dataType="xsd:integer" dictRef="compchem:atomicNumber">6</scalar></atom><atom id="a2" elementType="C" x3="-1.370704" y3="1.35551" z3="0.134303"><scalar dataType="xsd:integer" dictRef="cc:serial">2</scalar><scalar dataType="xsd:integer" dictRef="g:atomicType">0</scalar><scalar dataType="xsd:integer" dictRef="compchem:atomicNumber">6</scalar></atom><atom id="a3" elementType="C" x3="-1.370613" y3="-1.355521" z3="0.134277"><scalar dataType="xsd:integer" dictRef="cc:serial">3</scalar><scalar dataType="xsd:integer" dictRef="g:atomicType">0</scalar><scalar dataType="xsd:integer" dictRef="compchem:atomicNumber">6</scalar></atom><atom id="a4" elementType="C" x3="-2.306537" y3="-0.698424" z3="-0.663522"><scalar dataType="xsd:integer" dictRef="cc:serial">4</scalar><scalar dataType="xsd:integer" dictRef="g:atomicType">0</scalar><scalar dataType="xsd:integer" dictRef="compchem:atomicNumber">6</scalar></atom><atom id="a5" elementType="H" x3="-2.915017" y3="1.25461" z3="-1.391052"><scalar dataType="xsd:integer" dictRef="cc:serial">5</scalar><scalar dataType="xsd:integer" dictRef="g:atomicType">0</scalar><scalar dataType="xsd:integer" dictRef="compchem:atomicNumber">1</scalar></atom><atom id="a6" elementType="H" x3="-2.914851" y3="-1.254681" z3="-1.391107"><scalar dataType="xsd:integer" dictRef="cc:serial">6</scalar><scalar dataType="xsd:integer" dictRef="g:atomicType">0</scalar><scalar dataType="xsd:integer" dictRef="compchem:atomicNumber">1</scalar></atom><atom id="a7" elementType="C" x3="-0.965728" y3="0.760972" z3="1.438937"><scalar dataType="xsd:integer" dictRef="cc:serial">7</scalar><scalar dataType="xsd:integer" dictRef="g:atomicType">0</scalar><scalar dataType="xsd:integer" dictRef="compchem:atomicNumber">6</scalar></atom><atom id="a8" elementType="H" x3="0.045205" y3="1.145738" z3="1.744623"><scalar dataType="xsd:integer" dictRef="cc:serial">8</scalar><scalar dataType="xsd:integer" dictRef="g:atomicType">0</scalar><scalar dataType="xsd:integer" dictRef="compchem:atomicNumber">1</scalar></atom><atom id="a9" elementType="H" x3="-1.692442" y3="1.130588" z3="2.215808"><scalar dataType="xsd:integer" dictRef="cc:serial">9</scalar><scalar dataType="xsd:integer" dictRef="g:atomicType">0</scalar><scalar dataType="xsd:integer" dictRef="compchem:atomicNumber">1</scalar></atom><atom id="a10" elementType="C" x3="-0.965845" y3="-0.7611" z3="1.438905"><scalar dataType="xsd:integer" dictRef="cc:serial">10</scalar><scalar dataType="xsd:integer" dictRef="g:atomicType">0</scalar><scalar dataType="xsd:integer" dictRef="compchem:atomicNumber">6</scalar></atom><atom id="a11" elementType="H" x3="0.04491" y3="-1.146059" z3="1.744798"><scalar dataType="xsd:integer" dictRef="cc:serial">11</scalar><scalar dataType="xsd:integer" dictRef="g:atomicType">0</scalar><scalar dataType="xsd:integer" dictRef="compchem:atomicNumber">1</scalar></atom><atom id="a12" elementType="H" x3="-1.69284" y3="-1.13066" z3="2.215521"><scalar dataType="xsd:integer" dictRef="cc:serial">12</scalar><scalar dataType="xsd:integer" dictRef="g:atomicType">0</scalar><scalar dataType="xsd:integer" dictRef="compchem:atomicNumber">1</scalar></atom><atom id="a13" elementType="H" x3="-1.211846" y3="-2.44135" z3="0.030933"><scalar dataType="xsd:integer" dictRef="cc:serial">13</scalar><scalar dataType="xsd:integer" dictRef="g:atomicType">0</scalar><scalar dataType="xsd:integer" dictRef="compchem:atomicNumber">1</scalar></atom><atom id="a14" elementType="H" x3="-1.212041" y3="2.441394" z3="0.030958"><scalar dataType="xsd:integer" dictRef="cc:serial">14</scalar><scalar dataType="xsd:integer" dictRef="g:atomicType">0</scalar><scalar dataType="xsd:integer" dictRef="compchem:atomicNumber">1</scalar></atom><atom id="a15" elementType="O" x3="2.077105" y3="6.5E-5" z3="0.274126"><scalar dataType="xsd:integer" dictRef="cc:serial">15</scalar><scalar dataType="xsd:integer" dictRef="g:atomicType">0</scalar><scalar dataType="xsd:integer" dictRef="compchem:atomicNumber">8</scalar></atom><atom id="a16" elementType="C" x3="0.292048" y3="-0.705073" z3="-1.099833"><scalar dataType="xsd:integer" dictRef="cc:serial">16</scalar><scalar dataType="xsd:integer" dictRef="g:atomicType">0</scalar><scalar dataType="xsd:integer" dictRef="compchem:atomicNumber">6</scalar></atom><atom id="a17" elementType="C" x3="0.291972" y3="0.705056" z3="-1.099803"><scalar dataType="xsd:integer" dictRef="cc:serial">17</scalar><scalar dataType="xsd:integer" dictRef="g:atomicType">0</scalar><scalar dataType="xsd:integer" dictRef="compchem:atomicNumber">6</scalar></atom><atom id="a18" elementType="H" x3="-0.066119" y3="-1.347009" z3="-1.908145"><scalar dataType="xsd:integer" dictRef="cc:serial">18</scalar><scalar dataType="xsd:integer" dictRef="g:atomicType">0</scalar><scalar dataType="xsd:integer" dictRef="compchem:atomicNumber">1</scalar></atom><atom id="a19" elementType="H" x3="-0.066203" y3="1.346978" z3="-1.908129"><scalar dataType="xsd:integer" dictRef="cc:serial">19</scalar><scalar dataType="xsd:integer" dictRef="g:atomicType">0</scalar><scalar dataType="xsd:integer" dictRef="compchem:atomicNumber">1</scalar></atom><atom id="a20" elementType="C" x3="1.425135" y3="-1.139801" z3="-0.23847"><scalar dataType="xsd:integer" dictRef="cc:serial">20</scalar><scalar dataType="xsd:integer" dictRef="g:atomicType">0</scalar><scalar dataType="xsd:integer" dictRef="compchem:atomicNumber">6</scalar></atom><atom id="a21" elementType="C" x3="1.425" y3="1.139874" z3="-0.238422"><scalar dataType="xsd:integer" dictRef="cc:serial">21</scalar><scalar dataType="xsd:integer" dictRef="g:atomicType">0</scalar><scalar dataType="xsd:integer" dictRef="compchem:atomicNumber">6</scalar></atom><atom id="a22" elementType="O" x3="1.886077" y3="-2.21877" z3="0.097843"><scalar dataType="xsd:integer" dictRef="cc:serial">22</scalar><scalar dataType="xsd:integer" dictRef="g:atomicType">0</scalar><scalar dataType="xsd:integer" dictRef="compchem:atomicNumber">8</scalar></atom><atom id="a23" elementType="O" x3="1.885896" y3="2.218866" z3="0.097843"><scalar dataType="xsd:integer" dictRef="cc:serial">23</scalar><scalar dataType="xsd:integer" dictRef="g:atomicType">0</scalar><scalar dataType="xsd:integer" dictRef="compchem:atomicNumber">8</scalar></atom></atomArray><formula formalCharge="0" concise="C 10 H 10 O 3"><atomArray elementType="C H O" count="10.0 10.0 3.0"/></formula><bondArray><bond atomRefs2="a1 a2" id="a1_a2" order="2"/><bond atomRefs2="a1 a4" id="a1_a4" order="S"/><bond atomRefs2="a1 a5" id="a1_a5" order="S"/><bond atomRefs2="a2 a7" id="a2_a7" order="S"/><bond atomRefs2="a2 a14" id="a2_a14" order="S"/><bond atomRefs2="a3 a4" id="a3_a4" order="2"/><bond atomRefs2="a3 a10" id="a3_a10" order="S"/><bond atomRefs2="a3 a13" id="a3_a13" order="S"/><bond atomRefs2="a4 a6" id="a4_a6" order="S"/><bond atomRefs2="a7 a8" id="a7_a8" order="S"/><bond atomRefs2="a7 a9" id="a7_a9" order="S"/><bond atomRefs2="a7 a10" id="a7_a10" order="S"/><bond atomRefs2="a10 a11" id="a10_a11" order="S"/><bond atomRefs2="a10 a12" id="a10_a12" order="S"/><bond atomRefs2="a15 a20" id="a15_a20" order="S"/><bond atomRefs2="a15 a21" id="a15_a21" order="S"/><bond atomRefs2="a16 a17" id="a16_a17" order="2"/><bond atomRefs2="a16 a18" id="a16_a18" order="S"/><bond atomRefs2="a16 a20" id="a16_a20" order="S"/><bond atomRefs2="a17 a19" id="a17_a19" order="S"/><bond atomRefs2="a17 a21" id="a17_a21" order="S"/><bond atomRefs2="a20 a22" id="a20_a22" order="2"/><bond atomRefs2="a21 a23" id="a21_a23" order="2"/></bondArray><property dictRef="cml:molmass"><scalar dataType="xsd:double" units="unit:dalton" xmlns:unit="http://www.xml-cml.org/unit/si/">178.1846</scalar></property></molecule></module><module cmlx:lineCount="71" cmlx:templateRef="l202.distmat"><array dataType="xsd:double" size="270" dictRef="cc:distance">0.0 1.394366 0.0 2.393951 2.711031 0.0 1.396791 2.393941 1.394351 0.0 1.099498 2.172968 3.39479 2.171149 0.0 2.171121 3.394755 2.172933 1.099476 2.509291 0.0 2.494417 1.489816 2.51905 2.88928 3.471634 3.983853 0.0 3.395621 2.154515 3.294549 3.838071 4.313609 4.935255 1.124044 0.0 2.975631 2.118199 3.258387 3.465969 3.810447 4.493732 1.12617 1.800462 0.0 2.889254 2.519114 1.489707 2.49431 3.983844 3.471486 1.522072 2.179843 2.170255 0.0 3.838159 3.294769 2.154381 3.395539 4.935376 4.313454 2.179841 2.291797 2.902303 1.124006 0.0 3.465655 3.258264 2.118011 2.975288 4.493395 3.810047 2.170264 2.902505 2.261248 1.126157 1.800442 0.0 3.396849 3.801587 1.10223 2.172189 4.310795 2.51607 3.506838 4.169426 4.214664 2.205933 2.488885 2.592622 0.0 2.172214 1.10227 3.801629 3.396863 2.516087 4.310777 2.206104 2.489185 2.592791 3.506978 4.169771 4.214624 4.882744 0.0 4.536941 3.707313 3.707281 4.536892 5.409989 5.4099 3.345833 2.757453 4.388359 3.345987 2.757951 4.388626 4.103273 4.103377 0.0 2.985489 2.921273 2.170381 2.634968 3.769673 3.266667 3.190085 3.402552 4.278005 2.833836 2.889199 3.887477 2.560271 3.666228 2.360384 0.0 2.63498 2.170392 2.92115 2.985355 3.266744 3.769501 2.83375 2.888919 3.887448 3.190103 3.402855 4.277932 3.666047 2.56038 2.36038 1.410129 0.0 3.279116 3.630034 2.423482 2.643714 3.89256 2.896744 4.05658 4.423674 5.078425 3.515045 3.66015 4.438203 2.504056 4.407409 3.342203 1.092581 2.234416 0.0 2.643732 2.423494 3.629932 3.278996 2.896833 3.892395 3.515025 3.659987 4.438281 4.056598 4.423964 5.0783 4.407254 2.504146 3.342182 2.234413 1.092586 2.693987 0.0 4.181571 3.765933 2.828725 3.781648 5.089064 4.491909 3.48466 3.325741 4.571371 2.945129 2.416281 3.967861 2.953011 4.455586 1.40965 1.488227 2.330118 2.248241 3.34603 0.0 3.781618 2.828672 3.765814 4.181437 4.491934 5.088898 2.944941 2.415851 3.967591 3.484719 3.326154 4.571443 4.45541 2.95305 1.409649 2.330116 1.488219 3.346042 2.248222 2.279675 5.164113 4.835642 3.369355 4.524283 6.109966 5.118139 4.337071 4.1738 5.339454 3.472277 2.693152 4.29851 3.106629 5.596422 2.234009 2.503325 3.538967 2.931727 4.533198 1.220552 4.524243 3.369296 4.835537 5.163986 5.118141 6.109801 3.472139 2.692885 4.298212 4.337173 4.174256 5.339591 5.596257 3.106639 2.233991 3.538954 2.503312 4.53319 2.931689 3.406765</array></module> Symmetry turned off by external request.<module cmlx:lineCount="1" cmlx:templateRef="l202.stoich"/> Framework group  C1[X(C10H10O3)] Deg. of freedom    63 Full point group                 C1      NOp   1<module cmlx:lineCount="1" cmlx:templateRef="l202.rotconst"><array dataType="xsd:double" size="3" dictRef="cc:rotconst" cmlx:templateRef="rotconst">1.2200507 0.8808777 0.67542</array></module><module cmlx:lineCount="1" cmlx:templateRef="l301.basis"/> Integral buffers will be    131072 words long. Regular integral format. Two-electron integral symmetry is turned off.    62 basis functions,   372 primitive gaussians,    62 cartesian basis functions    34 alpha electrons       34 beta electrons       nuclear repulsion energy       470.5602549966 Hartrees. Do NDO integrals.<module cmlx:lineCount="1" cmlx:templateRef="l302.basis"><list cmlx:templateRef="onee"><scalar dataType="xsd:string" dictRef="g:onee">One-electron integrals</scalar></list></module> NBasis=    62 RedAO= F  NBF=    62 NBsUse=    62 1.00D-04 NBFU=    62 Simple Huckel Guess. Requested convergence on RMS density matrix=1.00D-08 within 128 cycles. Requested convergence on MAX density matrix=1.00D-06. Requested convergence on             energy=1.00D-06. No special actions if energy rises. Overlap will be assumed to be unity. Keep J ints in memory in canonical form, NReq=899243. SCF Done:  E(RAM1) = -0.504198254791E-01 A.U. after   17 cycles             Convg  =    0.4042D-08             -V/T =  0.9997<module cmlx:lineCount="1" cmlx:templateRef="l801"/> NBasis=    62 NAE=    34 NBE=    34 NFC=     0 NFV=     0 NROrb=     62 NOA=    34 NOB=    34 NVA=    28 NVB=    28 Symmetrizing basis deriv contribution to polar: IMax=3 JMax=2 DiffMx= 0.00D+00 G2DrvN: will do    24 centers at a time, making    1 passes doing MaxLOS=1. Calling FoFCou, ICntrl=  3107 FMM=F I1Cent=   0 AccDes= 0.00D+00. FoFDir/FoFCou used for L=0 through L=1. End of G2Drv Frequency-dependent properties file   721 does not exist. End of G2Drv Frequency-dependent properties file   722 does not exist.          IDoAtm=11111111111111111111111          Differentiating once with respect to electric field.                with respect to dipole field.          Differentiating once with respect to nuclear coordinates.          Electric field/nuclear overlap derivatives assumed to be zero.          Keep J ints in memory in canonical form, NReq=811133.          There are    72 degrees of freedom in the 1st order CPHF.  IDoFFX=5. LinEq1:  Iter=  0 NonCon=    72 RMS=2.63D-01 Max=4.87D+00 AX will form    72 AO Fock derivatives at one time. LinEq1:  Iter=  1 NonCon=    72 RMS=4.14D-02 Max=3.57D-01 LinEq1:  Iter=  2 NonCon=    72 RMS=9.46D-03 Max=1.23D-01 LinEq1:  Iter=  3 NonCon=    72 RMS=3.03D-03 Max=5.10D-02 LinEq1:  Iter=  4 NonCon=    72 RMS=6.10D-04 Max=5.65D-03 LinEq1:  Iter=  5 NonCon=    72 RMS=8.57D-05 Max=1.06D-03 LinEq1:  Iter=  6 NonCon=    72 RMS=1.37D-05 Max=1.50D-04 LinEq1:  Iter=  7 NonCon=    72 RMS=2.10D-06 Max=2.11D-05 LinEq1:  Iter=  8 NonCon=    51 RMS=2.78D-07 Max=1.61D-06 LinEq1:  Iter=  9 NonCon=     8 RMS=4.77D-08 Max=5.30D-07 LinEq1:  Iter= 10 NonCon=     1 RMS=9.40D-09 Max=1.08D-07 LinEq1:  Iter= 11 NonCon=     0 RMS=1.38D-09 Max=8.71D-09 Linear equations converged to 1.000D-08 1.000D-07 after    11 iterations. Isotropic polarizability for W=    0.000000      101.94 Bohr**3. End of Minotr Frequency-dependent properties file   721 does not exist. End of Minotr Frequency-dependent properties file   722 does not exist.<module cmlx:lineCount="214" cmlx:templateRef="l601.popanal"><array dataType="xsd:double" size="34" dictRef="g:alphaocc">-1.55554 -1.45666 -1.44456 -1.36911 -1.23237 -1.19012 -1.18109 -0.97164 -0.89236 -0.86947 -0.83226 -0.81028 -0.67967 -0.66424 -0.65438 -0.6468 -0.63204 -0.59049 -0.58329 -0.57027 -0.55532 -0.54826 -0.54276 -0.52983 -0.52325 -0.48019 -0.46964 -0.45537 -0.4553 -0.44546 -0.43245 -0.42544 -0.36668 -0.34275</array><array dataType="xsd:double" size="28" dictRef="g:alphavirt">-0.04045 -0.02012 0.03385 0.05259 0.0631 0.06701 0.09314 0.10606 0.11564 0.11889 0.12346 0.12754 0.13249 0.13832 0.14307 0.14672 0.1474 0.1545 0.15535 0.1577 0.15896 0.16388 0.17567 0.18171 0.19091 0.19532 0.22627 0.22979</array><module cmlx:lineCount="13" cmlx:templateRef="l601.alphabetaeigen"/><module cmlx:lineCount="96" cmlx:templateRef="l601.condensed"><array dataType="xsd:double" size="23" dictRef="x:floatArr">4.148966 0.0 0.0 0.0 0.0 0.0 0.0 0.0 0.0 0.0 0.0 0.0 0.0 0.0 0.0 0.0 0.0 0.0 0.0 0.0 0.0 0.0 0.0</array><array dataType="xsd:double" size="23" dictRef="x:floatArr">0.0 4.080704 0.0 0.0 0.0 0.0 0.0 0.0 0.0 0.0 0.0 0.0 0.0 0.0 0.0 0.0 0.0 0.0 0.0 0.0 0.0 0.0 0.0</array><array dataType="xsd:double" size="23" dictRef="x:floatArr">0.0 0.0 4.080703 0.0 0.0 0.0 0.0 0.0 0.0 0.0 0.0 0.0 0.0 0.0 0.0 0.0 0.0 0.0 0.0 0.0 0.0 0.0 0.0</array><array dataType="xsd:double" size="23" dictRef="x:floatArr">0.0 0.0 0.0 4.14897 0.0 0.0 0.0 0.0 0.0 0.0 0.0 0.0 0.0 0.0 0.0 0.0 0.0 0.0 0.0 0.0 0.0 0.0 0.0</array><array dataType="xsd:double" size="23" dictRef="x:floatArr">0.0 0.0 0.0 0.0 0.859922 0.0 0.0 0.0 0.0 0.0 0.0 0.0 0.0 0.0 0.0 0.0 0.0 0.0 0.0 0.0 0.0 0.0 0.0</array><array dataType="xsd:double" size="23" dictRef="x:floatArr">0.0 0.0 0.0 0.0 0.0 0.859928 0.0 0.0 0.0 0.0 0.0 0.0 0.0 0.0 0.0 0.0 0.0 0.0 0.0 0.0 0.0 0.0 0.0</array><array dataType="xsd:double" size="23" dictRef="x:floatArr">0.0 0.0 0.0 0.0 0.0 0.0 4.151511 0.0 0.0 0.0 0.0 0.0 0.0 0.0 0.0 0.0 0.0 0.0 0.0 0.0 0.0 0.0 0.0</array><array dataType="xsd:double" size="23" dictRef="x:floatArr">0.0 0.0 0.0 0.0 0.0 0.0 0.0 0.89251 0.0 0.0 0.0 0.0 0.0 0.0 0.0 0.0 0.0 0.0 0.0 0.0 0.0 0.0 0.0</array><array dataType="xsd:double" size="23" dictRef="x:floatArr">0.0 0.0 0.0 0.0 0.0 0.0 0.0 0.0 0.897096 0.0 0.0 0.0 0.0 0.0 0.0 0.0 0.0 0.0 0.0 0.0 0.0 0.0 0.0</array><array dataType="xsd:double" size="23" dictRef="x:floatArr">0.0 0.0 0.0 0.0 0.0 0.0 0.0 0.0 0.0 4.151521 0.0 0.0 0.0 0.0 0.0 0.0 0.0 0.0 0.0 0.0 0.0 0.0 0.0</array><array dataType="xsd:double" size="23" dictRef="x:floatArr">0.0 0.0 0.0 0.0 0.0 0.0 0.0 0.0 0.0 0.0 0.892506 0.0 0.0 0.0 0.0 0.0 0.0 0.0 0.0 0.0 0.0 0.0 0.0</array><array dataType="xsd:double" size="23" dictRef="x:floatArr">0.0 0.0 0.0 0.0 0.0 0.0 0.0 0.0 0.0 0.0 0.0 0.897099 0.0 0.0 0.0 0.0 0.0 0.0 0.0 0.0 0.0 0.0 0.0</array><array dataType="xsd:double" size="23" dictRef="x:floatArr">0.0 0.0 0.0 0.0 0.0 0.0 0.0 0.0 0.0 0.0 0.0 0.0 0.861896 0.0 0.0 0.0 0.0 0.0 0.0 0.0 0.0 0.0 0.0</array><array dataType="xsd:double" size="23" dictRef="x:floatArr">0.0 0.0 0.0 0.0 0.0 0.0 0.0 0.0 0.0 0.0 0.0 0.0 0.0 0.861886 0.0 0.0 0.0 0.0 0.0 0.0 0.0 0.0 0.0</array><array dataType="xsd:double" size="23" dictRef="x:floatArr">0.0 0.0 0.0 0.0 0.0 0.0 0.0 0.0 0.0 0.0 0.0 0.0 0.0 0.0 6.264543 0.0 0.0 0.0 0.0 0.0 0.0 0.0 0.0</array><array dataType="xsd:double" size="23" dictRef="x:floatArr">0.0 0.0 0.0 0.0 0.0 0.0 0.0 0.0 0.0 0.0 0.0 0.0 0.0 0.0 0.0 4.205177 0.0 0.0 0.0 0.0 0.0 0.0 0.0</array><array dataType="xsd:double" size="23" dictRef="x:floatArr">0.0 0.0 0.0 0.0 0.0 0.0 0.0 0.0 0.0 0.0 0.0 0.0 0.0 0.0 0.0 0.0 4.205187 0.0 0.0 0.0 0.0 0.0 0.0</array><array dataType="xsd:double" size="23" dictRef="x:floatArr">0.0 0.0 0.0 0.0 0.0 0.0 0.0 0.0 0.0 0.0 0.0 0.0 0.0 0.0 0.0 0.0 0.0 0.829378 0.0 0.0 0.0 0.0 0.0</array><array dataType="xsd:double" size="23" dictRef="x:floatArr">0.0 0.0 0.0 0.0 0.0 0.0 0.0 0.0 0.0 0.0 0.0 0.0 0.0 0.0 0.0 0.0 0.0 0.0 0.82938 0.0 0.0 0.0 0.0</array><array dataType="xsd:double" size="23" dictRef="x:floatArr">0.0 0.0 0.0 0.0 0.0 0.0 0.0 0.0 0.0 0.0 0.0 0.0 0.0 0.0 0.0 0.0 0.0 0.0 0.0 3.677302 0.0 0.0 0.0</array><array dataType="xsd:double" size="23" dictRef="x:floatArr">0.0 0.0 0.0 0.0 0.0 0.0 0.0 0.0 0.0 0.0 0.0 0.0 0.0 0.0 0.0 0.0 0.0 0.0 0.0 0.0 3.6773 0.0 0.0</array><array dataType="xsd:double" size="23" dictRef="x:floatArr">0.0 0.0 0.0 0.0 0.0 0.0 0.0 0.0 0.0 0.0 0.0 0.0 0.0 0.0 0.0 0.0 0.0 0.0 0.0 0.0 0.0 6.263258 0.0</array><array dataType="xsd:double" size="18" dictRef="x:floatArr">0.0 0.0 0.0 0.0 0.0 0.0 0.0 0.0 0.0 0.0 0.0 0.0 0.0 0.0 0.0 0.0 0.0 0.0</array></module>    23  O    0.000000   0.000000   0.000000   0.000000   6.263255<module cmlx:lineCount="95" cmlx:templateRef="mulliken"><module cmlx:lineCount="26" cmlx:templateRef="l601.mullik"><scalar dataType="xsd:string" dictRef="g:title">Mulliken atomic charges:</scalar><scalar dataType="xsd:integer" dictRef="cc:serial">1</scalar> Sum of Mulliken atomic charges =   0.00000</module> Mulliken charges with hydrogens summed into heavy atoms:              1     1  C   -0.008889     2  C    0.057410     3  C    0.057402     4  C   -0.008898     7  C    0.058883    10  C    0.058874    15  O   -0.264543    16  C   -0.034555    17  C   -0.034567    20  C    0.322698    21  C    0.322700    22  O   -0.263258    23  O   -0.263255 Sum of Mulliken charges with hydrogens summed into heavy atoms =   0.00000<module cmlx:lineCount="26" cmlx:templateRef="l601.mullik"><scalar dataType="xsd:string" dictRef="g:title">APT atomic charges:</scalar><scalar dataType="xsd:integer" dictRef="cc:serial">1</scalar><list cmlx:lineCount="23" cmlx:templateRef="row"><array dataType="xsd:integer" dictRef="cc:serial" size="23">1 2 3 4 5 6 7 8 9 10 11 12 13 14 15 16 17 18 19 20 21 22 23</array><array dataType="xsd:string" dictRef="cc:elementType" size="23">C C C C H H C H H C H H H H O C C H H C C O O</array><array dataType="xsd:double" dictRef="x:charge" size="23">-0.157114 -0.119414 -0.119373 -0.157116 0.140648 0.140641 -0.063148 0.057103 0.058145 -0.063215 0.057117 0.058146 0.09836 0.098364 -0.819605 -0.136072 -0.136048 0.094452 0.09444 1.155004 1.155 -0.718168 -0.718166</array></list><scalar dataType="xsd:string" dictRef="x:type">APT</scalar><scalar dataType="xsd:double" dictRef="x:charge.sum">-2.0E-5</scalar></module><module cmlx:lineCount="26" cmlx:templateRef="l601.mullik"><scalar dataType="xsd:string" dictRef="g:title">APT Atomic charges with hydrogens summed into heavy atoms:</scalar><scalar dataType="xsd:integer" dictRef="cc:serial">1</scalar><list cmlx:lineCount="23" cmlx:templateRef="row"><array dataType="xsd:integer" dictRef="cc:serial" size="23">1 2 3 4 5 6 7 8 9 10 11 12 13 14 15 16 17 18 19 20 21 22 23</array><array dataType="xsd:string" dictRef="cc:elementType" size="23">C C C C H H C H H C H H H H O C C H H C C O O</array><array dataType="xsd:double" dictRef="x:charge" size="23">-0.016466 -0.02105 -0.021013 -0.016475 0.0 0.0 0.0521 0.0 0.0 0.052047 0.0 0.0 0.0 0.0 -0.819605 -0.041621 -0.041608 0.0 0.0 1.155004 1.155 -0.718168 -0.718166</array></list><scalar dataType="xsd:string" dictRef="x:type">APT</scalar><scalar dataType="xsd:double" dictRef="x:charge.sum">-2.0E-5</scalar></module> Charge=              0.0000 electrons</module><module cmlx:lineCount="3" cmlx:templateRef="multipole"/></module><module cmlx:lineCount="2" cmlx:templateRef="l601.polariz"><list cmlx:templateRef="l601.pol"><scalar dataType="xsd:double" dictRef="g:l601.pol.exact">112.804</scalar><scalar dataType="xsd:double" dictRef="g:l601.pol">-0.0020</scalar><scalar dataType="xsd:double" dictRef="g:l601.pol">122.74</scalar><scalar dataType="xsd:double" dictRef="g:l601.pol">7.072</scalar><scalar dataType="xsd:double" dictRef="g:l601.pol">0.0</scalar><scalar dataType="xsd:double" dictRef="g:l601.pol">70.265</scalar></list><list cmlx:templateRef="l601.pol"><scalar dataType="xsd:double" dictRef="g:l601.pol.approx">87.61</scalar><scalar dataType="xsd:double" dictRef="g:l601.pol">-0.0030</scalar><scalar dataType="xsd:double" dictRef="g:l601.pol">117.869</scalar><scalar dataType="xsd:double" dictRef="g:l601.pol">8.111</scalar><scalar dataType="xsd:double" dictRef="g:l601.pol">0.0</scalar><scalar dataType="xsd:double" dictRef="g:l601.pol">51.676</scalar></list></module> Calling FoFJK, ICntrl=    100127 FMM=F ISym2X=0 I1Cent= 0 IOpClX= 0 NMat=1 NMatS=1 NMatT=0. ------------------------------------------------------------------- Center     Atomic                   Forces (Hartrees/Bohr) Number     Number              X              Y              Z -------------------------------------------------------------------      1        6           0.000001262   -0.000024855   -0.000000907      2        6           0.000003064   -0.000005629    0.000037083      3        6          -0.000009690   -0.000014985   -0.000022365      4        6          -0.000017564    0.000037880   -0.000009573      5        1           0.000003397   -0.000001848    0.000008672      6        1          -0.000005129   -0.000006455   -0.000003168      7        6           0.000001026    0.000022348   -0.000021814      8        1          -0.000016949    0.000000852   -0.000000458      9        1           0.000000768   -0.000000764   -0.000010511     10        6           0.000008946    0.000018922    0.000025376     11        1           0.000009666   -0.000002980    0.000008748     12        1          -0.000003859    0.000002267    0.000009375     13        1           0.000004546   -0.000015619   -0.000011511     14        1           0.000005371   -0.000016909   -0.000000568     15        8          -0.000004919   -0.000005868   -0.000020748     16        6           0.000031462    0.000017707    0.000012236     17        6           0.000031404   -0.000010402    0.000002645     18        1           0.000000244    0.000004089    0.000002008     19        1          -0.000001680   -0.000005512    0.000004609     20        6          -0.000014414   -0.000001927    0.000012309     21        6          -0.000005839   -0.000013136   -0.000006717     22        8          -0.000013254    0.000044431   -0.000012480     23        8          -0.000007860   -0.000021606   -0.000002239 ------------------------------------------------------------------- Cartesian Forces:  Max     0.000044431 RMS     0.000014689 IRC-IRC-IRC-IRC-IRC-IRC-IRC-IRC-IRC-IRC-IRC-IRC-IRC-IRC-IRC-IRC-IRC-IRC          ******** Start new reaction path calculation ******** Supplied step size of   0.1000 bohr.    Integration on MW PES will use step size of   0.2654 sqrt(amu)*bohr. Point Number:   0          Path Number:   1 Calculating another point on the path. IRC-IRC-IRC-IRC-IRC-IRC-IRC-IRC-IRC-IRC-IRC-IRC-IRC-IRC-IRC-IRC-IRC-IRC<module cmlx:lineCount="29" cmlx:templateRef="l202.orient"><molecule id="a23" cmlx:templateRef="atom"><atomArray><atom id="a1" elementType="C" x3="-2.374339" y3="0.693458" z3="-0.658193"><scalar dataType="xsd:integer" dictRef="cc:serial">1</scalar><scalar dataType="xsd:integer" dictRef="g:atomicType">0</scalar><scalar dataType="xsd:integer" dictRef="compchem:atomicNumber">6</scalar></atom><atom id="a2" elementType="C" x3="-1.418844" y3="1.351579" z3="0.133811"><scalar dataType="xsd:integer" dictRef="cc:serial">2</scalar><scalar dataType="xsd:integer" dictRef="g:atomicType">0</scalar><scalar dataType="xsd:integer" dictRef="compchem:atomicNumber">6</scalar></atom><atom id="a3" elementType="C" x3="-1.418752" y3="-1.351594" z3="0.133785"><scalar dataType="xsd:integer" dictRef="cc:serial">3</scalar><scalar dataType="xsd:integer" dictRef="g:atomicType">0</scalar><scalar dataType="xsd:integer" dictRef="compchem:atomicNumber">6</scalar></atom><atom id="a4" elementType="C" x3="-2.374251" y3="-0.69352" z3="-0.658227"><scalar dataType="xsd:integer" dictRef="cc:serial">4</scalar><scalar dataType="xsd:integer" dictRef="g:atomicType">0</scalar><scalar dataType="xsd:integer" dictRef="compchem:atomicNumber">6</scalar></atom><atom id="a5" elementType="H" x3="-2.989517" y3="1.257397" z3="-1.374025"><scalar dataType="xsd:integer" dictRef="cc:serial">5</scalar><scalar dataType="xsd:integer" dictRef="g:atomicType">0</scalar><scalar dataType="xsd:integer" dictRef="compchem:atomicNumber">1</scalar></atom><atom id="a6" elementType="H" x3="-2.989354" y3="-1.257476" z3="-1.374076"><scalar dataType="xsd:integer" dictRef="cc:serial">6</scalar><scalar dataType="xsd:integer" dictRef="g:atomicType">0</scalar><scalar dataType="xsd:integer" dictRef="compchem:atomicNumber">1</scalar></atom><atom id="a7" elementType="C" x3="-1.030884" y3="0.761037" z3="1.446887"><scalar dataType="xsd:integer" dictRef="cc:serial">7</scalar><scalar dataType="xsd:integer" dictRef="g:atomicType">0</scalar><scalar dataType="xsd:integer" dictRef="compchem:atomicNumber">6</scalar></atom><atom id="a8" elementType="H" x3="-0.020607" y3="1.145084" z3="1.756564"><scalar dataType="xsd:integer" dictRef="cc:serial">8</scalar><scalar dataType="xsd:integer" dictRef="g:atomicType">0</scalar><scalar dataType="xsd:integer" dictRef="compchem:atomicNumber">1</scalar></atom><atom id="a9" elementType="H" x3="-1.760847" y3="1.131957" z3="2.219339"><scalar dataType="xsd:integer" dictRef="cc:serial">9</scalar><scalar dataType="xsd:integer" dictRef="g:atomicType">0</scalar><scalar dataType="xsd:integer" dictRef="compchem:atomicNumber">1</scalar></atom><atom id="a10" elementType="C" x3="-1.031002" y3="-0.761171" z3="1.446854"><scalar dataType="xsd:integer" dictRef="cc:serial">10</scalar><scalar dataType="xsd:integer" dictRef="g:atomicType">0</scalar><scalar dataType="xsd:integer" dictRef="compchem:atomicNumber">6</scalar></atom><atom id="a11" elementType="H" x3="-0.020905" y3="-1.145412" z3="1.75674"><scalar dataType="xsd:integer" dictRef="cc:serial">11</scalar><scalar dataType="xsd:integer" dictRef="g:atomicType">0</scalar><scalar dataType="xsd:integer" dictRef="compchem:atomicNumber">1</scalar></atom><atom id="a12" elementType="H" x3="-1.761247" y3="-1.132035" z3="2.219047"><scalar dataType="xsd:integer" dictRef="cc:serial">12</scalar><scalar dataType="xsd:integer" dictRef="g:atomicType">0</scalar><scalar dataType="xsd:integer" dictRef="compchem:atomicNumber">1</scalar></atom><atom id="a13" elementType="H" x3="-1.274879" y3="-2.440363" z3="0.036064"><scalar dataType="xsd:integer" dictRef="cc:serial">13</scalar><scalar dataType="xsd:integer" dictRef="g:atomicType">0</scalar><scalar dataType="xsd:integer" dictRef="compchem:atomicNumber">1</scalar></atom><atom id="a14" elementType="H" x3="-1.275068" y3="2.4404" z3="0.036086"><scalar dataType="xsd:integer" dictRef="cc:serial">14</scalar><scalar dataType="xsd:integer" dictRef="g:atomicType">0</scalar><scalar dataType="xsd:integer" dictRef="compchem:atomicNumber">1</scalar></atom><atom id="a15" elementType="O" x3="2.011566" y3="6.3E-5" z3="0.280503"><scalar dataType="xsd:integer" dictRef="cc:serial">15</scalar><scalar dataType="xsd:integer" dictRef="g:atomicType">0</scalar><scalar dataType="xsd:integer" dictRef="compchem:atomicNumber">8</scalar></atom><atom id="a16" elementType="C" x3="0.214066" y3="-0.711691" z3="-1.079891"><scalar dataType="xsd:integer" dictRef="cc:serial">16</scalar><scalar dataType="xsd:integer" dictRef="g:atomicType">0</scalar><scalar dataType="xsd:integer" dictRef="compchem:atomicNumber">6</scalar></atom><atom id="a17" elementType="C" x3="0.213991" y3="0.71167" z3="-1.079862"><scalar dataType="xsd:integer" dictRef="cc:serial">17</scalar><scalar dataType="xsd:integer" dictRef="g:atomicType">0</scalar><scalar dataType="xsd:integer" dictRef="compchem:atomicNumber">6</scalar></atom><atom id="a18" elementType="H" x3="-0.116138" y3="-1.340865" z3="-1.911544"><scalar dataType="xsd:integer" dictRef="cc:serial">18</scalar><scalar dataType="xsd:integer" dictRef="g:atomicType">0</scalar><scalar dataType="xsd:integer" dictRef="compchem:atomicNumber">1</scalar></atom><atom id="a19" elementType="H" x3="-0.116218" y3="1.340831" z3="-1.911528"><scalar dataType="xsd:integer" dictRef="cc:serial">19</scalar><scalar dataType="xsd:integer" dictRef="g:atomicType">0</scalar><scalar dataType="xsd:integer" dictRef="compchem:atomicNumber">1</scalar></atom><atom id="a20" elementType="C" x3="1.359268" y3="-1.13979" z3="-0.231192"><scalar dataType="xsd:integer" dictRef="cc:serial">20</scalar><scalar dataType="xsd:integer" dictRef="g:atomicType">0</scalar><scalar dataType="xsd:integer" dictRef="compchem:atomicNumber">6</scalar></atom><atom id="a21" elementType="C" x3="1.359134" y3="1.139858" z3="-0.231144"><scalar dataType="xsd:integer" dictRef="cc:serial">21</scalar><scalar dataType="xsd:integer" dictRef="g:atomicType">0</scalar><scalar dataType="xsd:integer" dictRef="compchem:atomicNumber">6</scalar></atom><atom id="a22" elementType="O" x3="1.821474" y3="-2.218562" z3="0.105515"><scalar dataType="xsd:integer" dictRef="cc:serial">22</scalar><scalar dataType="xsd:integer" dictRef="g:atomicType">0</scalar><scalar dataType="xsd:integer" dictRef="compchem:atomicNumber">8</scalar></atom><atom id="a23" elementType="O" x3="1.821293" y3="2.218653" z3="0.105516"><scalar dataType="xsd:integer" dictRef="cc:serial">23</scalar><scalar dataType="xsd:integer" dictRef="g:atomicType">0</scalar><scalar dataType="xsd:integer" dictRef="compchem:atomicNumber">8</scalar></atom></atomArray><formula formalCharge="0" concise="C 10 H 10 O 3"><atomArray elementType="C H O" count="10.0 10.0 3.0"/></formula><bondArray><bond atomRefs2="a1 a2" id="a1_a2" order="2"/><bond atomRefs2="a1 a4" id="a1_a4" order="S"/><bond atomRefs2="a1 a5" id="a1_a5" order="S"/><bond atomRefs2="a2 a7" id="a2_a7" order="S"/><bond atomRefs2="a2 a14" id="a2_a14" order="S"/><bond atomRefs2="a3 a4" id="a3_a4" order="2"/><bond atomRefs2="a3 a10" id="a3_a10" order="S"/><bond atomRefs2="a3 a13" id="a3_a13" order="S"/><bond atomRefs2="a4 a6" id="a4_a6" order="S"/><bond atomRefs2="a7 a8" id="a7_a8" order="S"/><bond atomRefs2="a7 a9" id="a7_a9" order="S"/><bond atomRefs2="a7 a10" id="a7_a10" order="S"/><bond atomRefs2="a10 a11" id="a10_a11" order="S"/><bond atomRefs2="a10 a12" id="a10_a12" order="S"/><bond atomRefs2="a15 a20" id="a15_a20" order="S"/><bond atomRefs2="a15 a21" id="a15_a21" order="S"/><bond atomRefs2="a16 a17" id="a16_a17" order="2"/><bond atomRefs2="a16 a18" id="a16_a18" order="S"/><bond atomRefs2="a16 a20" id="a16_a20" order="S"/><bond atomRefs2="a17 a19" id="a17_a19" order="S"/><bond atomRefs2="a17 a21" id="a17_a21" order="S"/><bond atomRefs2="a20 a22" id="a20_a22" order="2"/><bond atomRefs2="a21 a23" id="a21_a23" order="2"/></bondArray><property dictRef="cml:molmass"><scalar dataType="xsd:double" units="unit:dalton" xmlns:unit="http://www.xml-cml.org/unit/si/">178.1846</scalar></property></molecule></module><module cmlx:lineCount="71" cmlx:templateRef="l202.distmat"><array dataType="xsd:double" size="270" dictRef="cc:distance">0.0 1.404765 0.0 2.392199 2.703174 0.0 1.386978 2.392187 1.40475 0.0 1.099494 2.179324 3.398181 2.167256 0.0 2.167228 3.398146 2.179288 1.099472 2.514874 0.0 2.49816 1.491114 2.517517 2.889961 3.469894 3.983445 0.0 3.402216 2.151984 3.289623 3.840745 4.315973 4.938285 1.1243 0.0 2.974701 2.124765 3.261072 3.462516 3.799688 4.486786 1.12566 1.800769 0.0 2.889935 2.517581 1.491006 2.498051 3.983435 3.469742 1.522208 2.179593 2.171023 0.0 3.840832 3.289847 2.151852 3.402133 4.938404 4.315815 2.17959 2.290496 2.903068 1.124262 0.0 3.462198 3.260949 2.124577 2.974352 4.486446 3.799278 2.171033 2.903272 2.263992 1.125647 1.800749 0.0 3.392881 3.795933 1.102573 2.177641 4.312977 2.515381 3.506981 4.169982 4.214775 2.206692 2.492002 2.591079 0.0 2.177666 1.102612 3.795973 3.392894 2.515401 4.31296 2.206863 2.4923 2.591254 3.50712 4.170326 4.214734 4.880763 0.0 4.538514 3.689963 3.68993 4.538465 5.415642 5.415555 3.346048 2.760355 4.389917 3.346202 2.760856 4.390184 4.100749 4.100847 0.0 2.975251 2.897681 2.13274 2.622503 3.771839 3.262872 3.17859 3.398259 4.264298 2.817283 2.879201 3.868015 2.539807 3.66041 2.363952 0.0 2.622516 2.132753 2.897558 2.975119 3.262946 3.771673 2.817199 2.878923 3.867991 3.178609 3.398564 4.264224 3.660237 2.53991 2.363948 1.423361 0.0 3.287678 3.623503 2.424931 2.662506 3.911036 2.924243 4.066179 4.432164 5.087643 3.528719 3.674721 4.451042 2.518879 4.40844 3.336207 1.093865 2.239102 0.0 2.662527 2.424946 3.623404 3.287562 2.924332 3.910878 3.528701 3.674556 4.451123 4.066199 4.432458 5.087518 4.408292 2.518965 3.336184 2.239097 1.09387 2.681696 0.0 4.181262 3.749407 2.809887 3.784268 5.095538 4.497839 3.484526 3.328044 4.571768 2.944925 2.420079 3.967537 2.949855 4.452968 1.409464 1.488303 2.336622 2.245181 3.339771 0.0 3.784239 2.809836 3.749288 4.181129 4.497861 5.095376 2.944737 2.419648 3.967268 3.484585 3.328461 4.571839 4.452798 2.949888 1.409462 2.336618 1.488294 3.339784 2.24516 2.279648 5.164103 4.821449 3.354325 4.529146 6.116941 5.124153 4.337423 4.175325 5.341091 3.472722 2.696767 4.299238 3.105063 5.594579 2.233618 2.501921 3.546178 2.931419 4.526853 1.220965 4.529106 3.354267 4.821344 5.163976 5.124153 6.11678 3.472583 2.696499 4.29894 4.337525 4.175784 5.341228 5.59442 3.105067 2.2336 3.546165 2.501907 4.526846 2.93138 3.406755</array></module> Symmetry turned off by external request.<module cmlx:lineCount="1" cmlx:templateRef="l202.stoich"/> Framework group  C1[X(C10H10O3)] Deg. of freedom    63 Full point group                 C1      NOp   1<module cmlx:lineCount="1" cmlx:templateRef="l202.rotconst"><array dataType="xsd:double" size="3" dictRef="cc:rotconst" cmlx:templateRef="rotconst">1.2224906 0.8831568 0.6764594</array></module><module cmlx:lineCount="1" cmlx:templateRef="l301.basis"/> Integral buffers will be    131072 words long. Regular integral format. Two-electron integral symmetry is turned off.    62 basis functions,   372 primitive gaussians,    62 cartesian basis functions    34 alpha electrons       34 beta electrons       nuclear repulsion energy       470.7807383390 Hartrees. Do NDO integrals.<module cmlx:lineCount="1" cmlx:templateRef="l302.basis"><list cmlx:templateRef="onee"><scalar dataType="xsd:string" dictRef="g:onee">One-electron integrals</scalar></list></module> NBasis=    62 RedAO= F  NBF=    62 NBsUse=    62 1.00D-04 NBFU=    62 Initial guess read from the read-write file. B after Tr=     0.000000    0.000000    0.000000         Rot=    1.000000    0.000000    0.000000    0.000000 Ang=   0.00 deg. Requested convergence on RMS density matrix=1.00D-08 within 128 cycles. Requested convergence on MAX density matrix=1.00D-06. Requested convergence on             energy=1.00D-06. No special actions if energy rises. Overlap will be assumed to be unity. Keep J ints in memory in canonical form, NReq=899243. SCF Done:  E(RAM1) = -0.513497650754E-01 A.U. after   14 cycles             Convg  =    0.3903D-08             -V/T =  0.9996<module cmlx:lineCount="1" cmlx:templateRef="l801"/> NBasis=    62 NAE=    34 NBE=    34 NFC=     0 NFV=     0 NROrb=     62 NOA=    34 NOB=    34 NVA=    28 NVB=    28 Symmetrizing basis deriv contribution to polar: IMax=3 JMax=2 DiffMx= 0.00D+00 G2DrvN: will do    24 centers at a time, making    1 passes doing MaxLOS=1. Calling FoFCou, ICntrl=  3107 FMM=F I1Cent=   0 AccDes= 0.00D+00. FoFDir/FoFCou used for L=0 through L=1. End of G2Drv Frequency-dependent properties file   721 does not exist. End of G2Drv Frequency-dependent properties file   722 does not exist.          IDoAtm=11111111111111111111111          Differentiating once with respect to electric field.                with respect to dipole field.          Differentiating once with respect to nuclear coordinates.          Electric field/nuclear overlap derivatives assumed to be zero.          Keep J ints in memory in canonical form, NReq=811133.          There are    72 degrees of freedom in the 1st order CPHF.  IDoFFX=5. LinEq1:  Iter=  0 NonCon=    72 RMS=2.58D-01 Max=4.92D+00 AX will form    72 AO Fock derivatives at one time. LinEq1:  Iter=  1 NonCon=    72 RMS=3.96D-02 Max=3.12D-01 LinEq1:  Iter=  2 NonCon=    72 RMS=9.49D-03 Max=1.14D-01 LinEq1:  Iter=  3 NonCon=    72 RMS=2.79D-03 Max=4.75D-02 LinEq1:  Iter=  4 NonCon=    72 RMS=5.76D-04 Max=6.38D-03 LinEq1:  Iter=  5 NonCon=    72 RMS=8.08D-05 Max=1.08D-03 LinEq1:  Iter=  6 NonCon=    72 RMS=1.33D-05 Max=1.54D-04 LinEq1:  Iter=  7 NonCon=    72 RMS=2.15D-06 Max=2.20D-05 LinEq1:  Iter=  8 NonCon=    55 RMS=3.02D-07 Max=2.30D-06 LinEq1:  Iter=  9 NonCon=     8 RMS=5.06D-08 Max=5.99D-07 LinEq1:  Iter= 10 NonCon=     0 RMS=8.63D-09 Max=7.37D-08 Linear equations converged to 1.000D-08 1.000D-07 after    10 iterations. Isotropic polarizability for W=    0.000000      102.14 Bohr**3. End of Minotr Frequency-dependent properties file   721 does not exist. End of Minotr Frequency-dependent properties file   722 does not exist. Calling FoFJK, ICntrl=    100127 FMM=F ISym2X=0 I1Cent= 0 IOpClX= 0 NMat=1 NMatS=1 NMatT=0. ------------------------------------------------------------------- Center     Atomic                   Forces (Hartrees/Bohr) Number     Number              X              Y              Z -------------------------------------------------------------------      1        6          -0.001890967   -0.002737526   -0.001659420      2        6           0.010353617   -0.002196189   -0.004888818      3        6           0.010341774    0.002175972   -0.004948402      4        6          -0.001909935    0.002750129   -0.001667704      5        1          -0.000446570    0.000103656    0.000567090      6        1          -0.000455215   -0.000112078    0.000555471      7        6          -0.000219358    0.000089591    0.000133350      8        1          -0.000073877   -0.000038556    0.000183457      9        1          -0.000142527    0.000057112   -0.000216132     10        6          -0.000211909   -0.000048732    0.000179795     11        1          -0.000047404    0.000036343    0.000192702     12        1          -0.000147236   -0.000055627   -0.000196489     13        1           0.000015763    0.000075270   -0.000085954     14        1           0.000016889   -0.000107825   -0.000075173     15        8          -0.000485860   -0.000005861   -0.001059852     16        6          -0.008038905   -0.004791655    0.006995852     17        6          -0.008038770    0.004799197    0.006985704     18        1           0.000841799    0.000571666   -0.000239892     19        1           0.000840047   -0.000572971   -0.000237282     20        6          -0.000348929   -0.000055496   -0.000171984     21        6          -0.000340072    0.000040576   -0.000191043     22        8           0.000191029    0.000281032   -0.000082847     23        8           0.000196616   -0.000258031   -0.000072430 ------------------------------------------------------------------- Cartesian Forces:  Max     0.010353617 RMS     0.002895359 IRC-IRC-IRC-IRC-IRC-IRC-IRC-IRC-IRC-IRC-IRC-IRC-IRC-IRC-IRC-IRC-IRC-IRC Pt  1 Step number   1 out of a maximum of  20 CORRECTOR INTEGRATION CONVERGENCE:   Recorrection delta-x convergence threshold:    0.010000   Delta-x Convergence Met Point Number:   1          Path Number:   1   CHANGE IN THE REACTION COORDINATE =    0.26538   NET REACTION COORDINATE UP TO THIS POINT =    0.26538  # OF POINTS ALONG THE PATH =   1  # OF STEPS =   1 Calculating another point on the path. IRC-IRC-IRC-IRC-IRC-IRC-IRC-IRC-IRC-IRC-IRC-IRC-IRC-IRC-IRC-IRC-IRC-IRC<module cmlx:lineCount="29" cmlx:templateRef="l202.orient"><molecule id="a23" cmlx:templateRef="atom"><atomArray><atom id="a1" elementType="C" x3="-2.3773" y3="0.688814" z3="-0.660763"><scalar dataType="xsd:integer" dictRef="cc:serial">1</scalar><scalar dataType="xsd:integer" dictRef="g:atomicType">0</scalar><scalar dataType="xsd:integer" dictRef="compchem:atomicNumber">6</scalar></atom><atom id="a2" elementType="C" x3="-1.401955" y3="1.347831" z3="0.125647"><scalar dataType="xsd:integer" dictRef="cc:serial">2</scalar><scalar dataType="xsd:integer" dictRef="g:atomicType">0</scalar><scalar dataType="xsd:integer" dictRef="compchem:atomicNumber">6</scalar></atom><atom id="a3" elementType="C" x3="-1.40187" y3="-1.347881" z3="0.125581"><scalar dataType="xsd:integer" dictRef="cc:serial">3</scalar><scalar dataType="xsd:integer" dictRef="g:atomicType">0</scalar><scalar dataType="xsd:integer" dictRef="compchem:atomicNumber">6</scalar></atom><atom id="a4" elementType="C" x3="-2.377237" y3="-0.688877" z3="-0.660812"><scalar dataType="xsd:integer" dictRef="cc:serial">4</scalar><scalar dataType="xsd:integer" dictRef="g:atomicType">0</scalar><scalar dataType="xsd:integer" dictRef="compchem:atomicNumber">6</scalar></atom><atom id="a5" elementType="H" x3="-2.999427" y3="1.2604" z3="-1.364028"><scalar dataType="xsd:integer" dictRef="cc:serial">5</scalar><scalar dataType="xsd:integer" dictRef="g:atomicType">0</scalar><scalar dataType="xsd:integer" dictRef="compchem:atomicNumber">1</scalar></atom><atom id="a6" elementType="H" x3="-2.999298" y3="-1.260474" z3="-1.364126"><scalar dataType="xsd:integer" dictRef="cc:serial">6</scalar><scalar dataType="xsd:integer" dictRef="g:atomicType">0</scalar><scalar dataType="xsd:integer" dictRef="compchem:atomicNumber">1</scalar></atom><atom id="a7" elementType="C" x3="-1.031245" y3="0.761126" z3="1.447098"><scalar dataType="xsd:integer" dictRef="cc:serial">7</scalar><scalar dataType="xsd:integer" dictRef="g:atomicType">0</scalar><scalar dataType="xsd:integer" dictRef="compchem:atomicNumber">6</scalar></atom><atom id="a8" elementType="H" x3="-0.021527" y3="1.144363" z3="1.760325"><scalar dataType="xsd:integer" dictRef="cc:serial">8</scalar><scalar dataType="xsd:integer" dictRef="g:atomicType">0</scalar><scalar dataType="xsd:integer" dictRef="compchem:atomicNumber">1</scalar></atom><atom id="a9" elementType="H" x3="-1.763962" y3="1.133305" z3="2.215437"><scalar dataType="xsd:integer" dictRef="cc:serial">9</scalar><scalar dataType="xsd:integer" dictRef="g:atomicType">0</scalar><scalar dataType="xsd:integer" dictRef="compchem:atomicNumber">1</scalar></atom><atom id="a10" elementType="C" x3="-1.031346" y3="-0.761239" z3="1.447098"><scalar dataType="xsd:integer" dictRef="cc:serial">10</scalar><scalar dataType="xsd:integer" dictRef="g:atomicType">0</scalar><scalar dataType="xsd:integer" dictRef="compchem:atomicNumber">6</scalar></atom><atom id="a11" elementType="H" x3="-0.021744" y3="-1.144622" z3="1.760516"><scalar dataType="xsd:integer" dictRef="cc:serial">11</scalar><scalar dataType="xsd:integer" dictRef="g:atomicType">0</scalar><scalar dataType="xsd:integer" dictRef="compchem:atomicNumber">1</scalar></atom><atom id="a12" elementType="H" x3="-1.764295" y3="-1.133331" z3="2.215259"><scalar dataType="xsd:integer" dictRef="cc:serial">12</scalar><scalar dataType="xsd:integer" dictRef="g:atomicType">0</scalar><scalar dataType="xsd:integer" dictRef="compchem:atomicNumber">1</scalar></atom><atom id="a13" elementType="H" x3="-1.274535" y3="-2.439663" z3="0.034502"><scalar dataType="xsd:integer" dictRef="cc:serial">13</scalar><scalar dataType="xsd:integer" dictRef="g:atomicType">0</scalar><scalar dataType="xsd:integer" dictRef="compchem:atomicNumber">1</scalar></atom><atom id="a14" elementType="H" x3="-1.274675" y3="2.439622" z3="0.034602"><scalar dataType="xsd:integer" dictRef="cc:serial">14</scalar><scalar dataType="xsd:integer" dictRef="g:atomicType">0</scalar><scalar dataType="xsd:integer" dictRef="compchem:atomicNumber">1</scalar></atom><atom id="a15" elementType="O" x3="2.010994" y3="5.9E-5" z3="0.27923"><scalar dataType="xsd:integer" dictRef="cc:serial">15</scalar><scalar dataType="xsd:integer" dictRef="g:atomicType">0</scalar><scalar dataType="xsd:integer" dictRef="compchem:atomicNumber">8</scalar></atom><atom id="a16" elementType="C" x3="0.201023" y3="-0.718872" z3="-1.067896"><scalar dataType="xsd:integer" dictRef="cc:serial">16</scalar><scalar dataType="xsd:integer" dictRef="g:atomicType">0</scalar><scalar dataType="xsd:integer" dictRef="compchem:atomicNumber">6</scalar></atom><atom id="a17" elementType="C" x3="0.200955" y3="0.718856" z3="-1.067878"><scalar dataType="xsd:integer" dictRef="cc:serial">17</scalar><scalar dataType="xsd:integer" dictRef="g:atomicType">0</scalar><scalar dataType="xsd:integer" dictRef="compchem:atomicNumber">6</scalar></atom><atom id="a18" elementType="H" x3="-0.101685" y3="-1.333851" z3="-1.921447"><scalar dataType="xsd:integer" dictRef="cc:serial">18</scalar><scalar dataType="xsd:integer" dictRef="g:atomicType">0</scalar><scalar dataType="xsd:integer" dictRef="compchem:atomicNumber">1</scalar></atom><atom id="a19" elementType="H" x3="-0.101798" y3="1.333822" z3="-1.921421"><scalar dataType="xsd:integer" dictRef="cc:serial">19</scalar><scalar dataType="xsd:integer" dictRef="g:atomicType">0</scalar><scalar dataType="xsd:integer" dictRef="compchem:atomicNumber">1</scalar></atom><atom id="a20" elementType="C" x3="1.35864" y3="-1.13976" z3="-0.231598"><scalar dataType="xsd:integer" dictRef="cc:serial">20</scalar><scalar dataType="xsd:integer" dictRef="g:atomicType">0</scalar><scalar dataType="xsd:integer" dictRef="compchem:atomicNumber">6</scalar></atom><atom id="a21" elementType="C" x3="1.358526" y3="1.139827" z3="-0.231571"><scalar dataType="xsd:integer" dictRef="cc:serial">21</scalar><scalar dataType="xsd:integer" dictRef="g:atomicType">0</scalar><scalar dataType="xsd:integer" dictRef="compchem:atomicNumber">6</scalar></atom><atom id="a22" elementType="O" x3="1.821775" y3="-2.218329" z3="0.105465"><scalar dataType="xsd:integer" dictRef="cc:serial">22</scalar><scalar dataType="xsd:integer" dictRef="g:atomicType">0</scalar><scalar dataType="xsd:integer" dictRef="compchem:atomicNumber">8</scalar></atom><atom id="a23" elementType="O" x3="1.821595" y3="2.21843" z3="0.105472"><scalar dataType="xsd:integer" dictRef="cc:serial">23</scalar><scalar dataType="xsd:integer" dictRef="g:atomicType">0</scalar><scalar dataType="xsd:integer" dictRef="compchem:atomicNumber">8</scalar></atom></atomArray><formula formalCharge="0" concise="C 10 H 10 O 3"><atomArray elementType="C H O" count="10.0 10.0 3.0"/></formula><bondArray><bond atomRefs2="a1 a2" id="a1_a2" order="2"/><bond atomRefs2="a1 a4" id="a1_a4" order="S"/><bond atomRefs2="a1 a5" id="a1_a5" order="S"/><bond atomRefs2="a2 a7" id="a2_a7" order="S"/><bond atomRefs2="a2 a14" id="a2_a14" order="S"/><bond atomRefs2="a3 a4" id="a3_a4" order="2"/><bond atomRefs2="a3 a10" id="a3_a10" order="S"/><bond atomRefs2="a3 a13" id="a3_a13" order="S"/><bond atomRefs2="a4 a6" id="a4_a6" order="S"/><bond atomRefs2="a7 a8" id="a7_a8" order="S"/><bond atomRefs2="a7 a9" id="a7_a9" order="S"/><bond atomRefs2="a7 a10" id="a7_a10" order="S"/><bond atomRefs2="a10 a11" id="a10_a11" order="S"/><bond atomRefs2="a10 a12" id="a10_a12" order="S"/><bond atomRefs2="a15 a20" id="a15_a20" order="S"/><bond atomRefs2="a15 a21" id="a15_a21" order="S"/><bond atomRefs2="a16 a17" id="a16_a17" order="2"/><bond atomRefs2="a16 a18" id="a16_a18" order="S"/><bond atomRefs2="a16 a20" id="a16_a20" order="S"/><bond atomRefs2="a17 a19" id="a17_a19" order="S"/><bond atomRefs2="a17 a21" id="a17_a21" order="S"/><bond atomRefs2="a20 a22" id="a20_a22" order="2"/><bond atomRefs2="a21 a23" id="a21_a23" order="2"/></bondArray><property dictRef="cml:molmass"><scalar dataType="xsd:double" units="unit:dalton" xmlns:unit="http://www.xml-cml.org/unit/si/">178.1846</scalar></property></molecule></module><module cmlx:lineCount="71" cmlx:templateRef="l202.distmat"><array dataType="xsd:double" size="270" dictRef="cc:distance">0.0 1.415643 0.0 2.391219 2.695712 0.0 1.37769 2.391207 1.415642 0.0 1.099243 2.186022 3.402096 2.163635 0.0 2.163637 3.402086 2.186011 1.099243 2.520875 0.0 2.502033 1.492609 2.516283 2.890932 3.467772 3.982848 0.0 3.408645 2.149221 3.284663 3.843441 4.317746 4.940906 1.124505 0.0 2.97427 2.131734 3.264183 3.459662 3.788812 4.4799 1.12505 1.800924 0.0 2.890904 2.516299 1.492596 2.501988 3.982813 3.467716 1.522365 2.179258 2.171721 0.0 3.84353 3.284829 2.149204 3.408648 4.941003 4.317713 2.179265 2.288985 2.903658 1.124504 0.0 3.459406 3.264036 2.131699 2.974059 4.479598 3.788588 2.171727 2.903807 2.266636 1.125051 1.800945 0.0 3.389226 3.790733 1.102949 2.182811 4.315276 2.51425 3.507088 4.17058 4.214513 2.207187 2.495144 2.588836 0.0 2.182807 1.102949 3.79073 3.38921 2.51426 4.315261 2.207204 2.495234 2.588803 3.507116 4.170781 4.214378 4.879285 0.0 4.540386 3.672642 3.672628 4.540362 5.421539 5.421494 3.346395 2.763009 4.391291 3.346539 2.763427 4.391537 4.099615 4.099626 0.0 2.965651 2.874951 2.095067 2.610372 3.774665 3.259316 3.16766 3.394113 4.251117 2.801022 2.868938 3.848813 2.52065 3.656401 2.368038 0.0 2.610373 2.095098 2.874856 2.96555 3.259359 3.774537 2.80093 2.868673 3.848743 3.167705 3.394401 4.251094 3.656304 2.520711 2.36804 1.437728 0.0 3.295288 3.615621 2.425078 2.680173 3.929092 2.951636 4.074322 4.438853 5.095472 3.541081 3.68769 4.462827 2.534588 4.40921 3.329521 1.094706 2.243608 0.0 2.680151 2.425097 3.615514 3.295158 2.951666 3.928926 3.541013 3.687491 4.462801 4.074342 4.439117 5.095377 4.409098 2.534652 3.329517 2.243604 1.094705 2.667673 0.0 4.18152 3.733178 2.791291 3.787386 5.10254 4.504311 3.484672 3.330141 4.572248 2.945052 2.423634 3.967351 2.948587 4.451649 1.409149 1.488831 2.343939 2.241832 3.332715 0.0 3.78735 2.791259 3.7331 4.181427 4.504304 5.102427 2.944885 2.423266 3.967093 3.484748 3.330505 4.572334 4.451579 2.94857 1.40915 2.343931 1.488824 3.332713 2.241824 2.279587 5.16438 4.807322 3.339157 4.534105 6.12413 5.130296 4.33784 4.176604 5.34256 3.473239 2.700112 4.299809 3.105022 5.593705 2.233214 2.500397 3.553991 2.930934 4.519533 1.221236 4.534045 3.339105 4.807255 5.164282 5.130254 6.12401 3.473095 2.699862 4.299496 4.337933 4.176983 5.342669 5.593647 3.104969 2.233211 3.553981 2.500389 4.519525 2.930915 3.406668</array></module> Symmetry turned off by external request.<module cmlx:lineCount="1" cmlx:templateRef="l202.stoich"/> Framework group  C1[X(C10H10O3)] Deg. of freedom    63 Full point group                 C1      NOp   1<module cmlx:lineCount="1" cmlx:templateRef="l202.rotconst"><array dataType="xsd:double" size="3" dictRef="cc:rotconst" cmlx:templateRef="rotconst">1.2247839 0.8853071 0.6773943</array></module><module cmlx:lineCount="1" cmlx:templateRef="l301.basis"/> Integral buffers will be    131072 words long. Regular integral format. Two-electron integral symmetry is turned off.    62 basis functions,   372 primitive gaussians,    62 cartesian basis functions    34 alpha electrons       34 beta electrons       nuclear repulsion energy       470.9875752367 Hartrees. Do NDO integrals.<module cmlx:lineCount="1" cmlx:templateRef="l302.basis"><list cmlx:templateRef="onee"><scalar dataType="xsd:string" dictRef="g:onee">One-electron integrals</scalar></list></module> NBasis=    62 RedAO= F  NBF=    62 NBsUse=    62 1.00D-04 NBFU=    62 Initial guess read from the read-write file. B after Tr=     0.000000    0.000000    0.000000         Rot=    1.000000    0.000000    0.000000    0.000000 Ang=   0.00 deg. Requested convergence on RMS density matrix=1.00D-08 within 128 cycles. Requested convergence on MAX density matrix=1.00D-06. Requested convergence on             energy=1.00D-06. No special actions if energy rises. Overlap will be assumed to be unity. Keep J ints in memory in canonical form, NReq=899243. SCF Done:  E(RAM1) = -0.541874358510E-01 A.U. after   14 cycles             Convg  =    0.3783D-08             -V/T =  0.9996<module cmlx:lineCount="1" cmlx:templateRef="l801"/> NBasis=    62 NAE=    34 NBE=    34 NFC=     0 NFV=     0 NROrb=     62 NOA=    34 NOB=    34 NVA=    28 NVB=    28 Symmetrizing basis deriv contribution to polar: IMax=3 JMax=2 DiffMx= 0.00D+00 G2DrvN: will do    24 centers at a time, making    1 passes doing MaxLOS=1. Calling FoFCou, ICntrl=  3107 FMM=F I1Cent=   0 AccDes= 0.00D+00. FoFDir/FoFCou used for L=0 through L=1. End of G2Drv Frequency-dependent properties file   721 does not exist. End of G2Drv Frequency-dependent properties file   722 does not exist.          IDoAtm=11111111111111111111111          Differentiating once with respect to electric field.                with respect to dipole field.          Differentiating once with respect to nuclear coordinates.          Electric field/nuclear overlap derivatives assumed to be zero.          Keep J ints in memory in canonical form, NReq=811133.          There are    72 degrees of freedom in the 1st order CPHF.  IDoFFX=5. LinEq1:  Iter=  0 NonCon=    72 RMS=2.51D-01 Max=4.78D+00 AX will form    72 AO Fock derivatives at one time. LinEq1:  Iter=  1 NonCon=    72 RMS=3.72D-02 Max=2.47D-01 LinEq1:  Iter=  2 NonCon=    72 RMS=9.01D-03 Max=1.01D-01 LinEq1:  Iter=  3 NonCon=    72 RMS=2.27D-03 Max=3.56D-02 LinEq1:  Iter=  4 NonCon=    72 RMS=4.86D-04 Max=6.51D-03 LinEq1:  Iter=  5 NonCon=    72 RMS=7.38D-05 Max=9.60D-04 LinEq1:  Iter=  6 NonCon=    72 RMS=1.25D-05 Max=1.35D-04 LinEq1:  Iter=  7 NonCon=    72 RMS=2.01D-06 Max=2.04D-05 LinEq1:  Iter=  8 NonCon=    53 RMS=2.87D-07 Max=2.25D-06 LinEq1:  Iter=  9 NonCon=     8 RMS=4.91D-08 Max=5.86D-07 LinEq1:  Iter= 10 NonCon=     0 RMS=8.35D-09 Max=6.99D-08 Linear equations converged to 1.000D-08 1.000D-07 after    10 iterations. Isotropic polarizability for W=    0.000000      101.34 Bohr**3. End of Minotr Frequency-dependent properties file   721 does not exist. End of Minotr Frequency-dependent properties file   722 does not exist. Calling FoFJK, ICntrl=    100127 FMM=F ISym2X=0 I1Cent= 0 IOpClX= 0 NMat=1 NMatS=1 NMatT=0. ------------------------------------------------------------------- Center     Atomic                   Forces (Hartrees/Bohr) Number     Number              X              Y              Z -------------------------------------------------------------------      1        6          -0.003299687   -0.004531516   -0.002923398      2        6           0.020259006   -0.004688908   -0.010315356      3        6           0.020256098    0.004680822   -0.010322120      4        6          -0.003306709    0.004528878   -0.002927755      5        1          -0.000970542    0.000271581    0.001100638      6        1          -0.000971645   -0.000271003    0.001099641      7        6          -0.000357705    0.000097433    0.000175811      8        1          -0.000105806   -0.000087352    0.000398284      9        1          -0.000320390    0.000144027   -0.000440600     10        6          -0.000350466   -0.000094065    0.000177706     11        1          -0.000104204    0.000089293    0.000397361     12        1          -0.000318030   -0.000143459   -0.000438442     13        1           0.000039325    0.000165882   -0.000157386     14        1           0.000040586   -0.000166598   -0.000156292     15        8          -0.000922468   -0.000001004   -0.002176899     16        6          -0.016024419   -0.008498693    0.014361544     17        6          -0.016018424    0.008499844    0.014356589     18        1           0.001483447    0.000922534   -0.000662525     19        1           0.001482569   -0.000921708   -0.000663055     20        6          -0.000747608   -0.000079315   -0.000295817     21        6          -0.000737792    0.000080148   -0.000304726     22        8           0.000497298    0.000448716   -0.000143228     23        8           0.000497565   -0.000445538   -0.000139973 ------------------------------------------------------------------- Cartesian Forces:  Max     0.020259006 RMS     0.005708450 IRC-IRC-IRC-IRC-IRC-IRC-IRC-IRC-IRC-IRC-IRC-IRC-IRC-IRC-IRC-IRC-IRC-IRC Pt  2 Step number   1 out of a maximum of  20 CORRECTOR INTEGRATION CONVERGENCE:   Recorrection delta-x convergence threshold:    0.010000   Delta-x Convergence Met Point Number:   2          Path Number:   1   CHANGE IN THE REACTION COORDINATE =    0.26529   NET REACTION COORDINATE UP TO THIS POINT =    0.53067  # OF POINTS ALONG THE PATH =   2  # OF STEPS =   1 Calculating another point on the path. IRC-IRC-IRC-IRC-IRC-IRC-IRC-IRC-IRC-IRC-IRC-IRC-IRC-IRC-IRC-IRC-IRC-IRC<module cmlx:lineCount="29" cmlx:templateRef="l202.orient"><molecule id="a23" cmlx:templateRef="atom"><atomArray><atom id="a1" elementType="C" x3="-2.379975" y3="0.685002" z3="-0.663126"><scalar dataType="xsd:integer" dictRef="cc:serial">1</scalar><scalar dataType="xsd:integer" dictRef="g:atomicType">0</scalar><scalar dataType="xsd:integer" dictRef="compchem:atomicNumber">6</scalar></atom><atom id="a2" elementType="C" x3="-1.385131" y3="1.343897" z3="0.11702"><scalar dataType="xsd:integer" dictRef="cc:serial">2</scalar><scalar dataType="xsd:integer" dictRef="g:atomicType">0</scalar><scalar dataType="xsd:integer" dictRef="compchem:atomicNumber">6</scalar></atom><atom id="a3" elementType="C" x3="-1.385048" y3="-1.34395" z3="0.116951"><scalar dataType="xsd:integer" dictRef="cc:serial">3</scalar><scalar dataType="xsd:integer" dictRef="g:atomicType">0</scalar><scalar dataType="xsd:integer" dictRef="compchem:atomicNumber">6</scalar></atom><atom id="a4" elementType="C" x3="-2.379916" y3="-0.685067" z3="-0.663177"><scalar dataType="xsd:integer" dictRef="cc:serial">4</scalar><scalar dataType="xsd:integer" dictRef="g:atomicType">0</scalar><scalar dataType="xsd:integer" dictRef="compchem:atomicNumber">6</scalar></atom><atom id="a5" elementType="H" x3="-3.009555" y3="1.263544" z3="-1.353445"><scalar dataType="xsd:integer" dictRef="cc:serial">5</scalar><scalar dataType="xsd:integer" dictRef="g:atomicType">0</scalar><scalar dataType="xsd:integer" dictRef="compchem:atomicNumber">1</scalar></atom><atom id="a6" elementType="H" x3="-3.009433" y3="-1.263613" z3="-1.353549"><scalar dataType="xsd:integer" dictRef="cc:serial">6</scalar><scalar dataType="xsd:integer" dictRef="g:atomicType">0</scalar><scalar dataType="xsd:integer" dictRef="compchem:atomicNumber">1</scalar></atom><atom id="a7" elementType="C" x3="-1.031518" y3="0.761189" z3="1.447148"><scalar dataType="xsd:integer" dictRef="cc:serial">7</scalar><scalar dataType="xsd:integer" dictRef="g:atomicType">0</scalar><scalar dataType="xsd:integer" dictRef="compchem:atomicNumber">6</scalar></atom><atom id="a8" elementType="H" x3="-0.022505" y3="1.143531" z3="1.764299"><scalar dataType="xsd:integer" dictRef="cc:serial">8</scalar><scalar dataType="xsd:integer" dictRef="g:atomicType">0</scalar><scalar dataType="xsd:integer" dictRef="compchem:atomicNumber">1</scalar></atom><atom id="a9" elementType="H" x3="-1.767291" y3="1.134822" z3="2.21094"><scalar dataType="xsd:integer" dictRef="cc:serial">9</scalar><scalar dataType="xsd:integer" dictRef="g:atomicType">0</scalar><scalar dataType="xsd:integer" dictRef="compchem:atomicNumber">1</scalar></atom><atom id="a10" elementType="C" x3="-1.031614" y3="-0.761301" z3="1.447148"><scalar dataType="xsd:integer" dictRef="cc:serial">10</scalar><scalar dataType="xsd:integer" dictRef="g:atomicType">0</scalar><scalar dataType="xsd:integer" dictRef="compchem:atomicNumber">6</scalar></atom><atom id="a11" elementType="H" x3="-0.02271" y3="-1.143777" z3="1.764481"><scalar dataType="xsd:integer" dictRef="cc:serial">11</scalar><scalar dataType="xsd:integer" dictRef="g:atomicType">0</scalar><scalar dataType="xsd:integer" dictRef="compchem:atomicNumber">1</scalar></atom><atom id="a12" elementType="H" x3="-1.767604" y3="-1.134845" z3="2.210776"><scalar dataType="xsd:integer" dictRef="cc:serial">12</scalar><scalar dataType="xsd:integer" dictRef="g:atomicType">0</scalar><scalar dataType="xsd:integer" dictRef="compchem:atomicNumber">1</scalar></atom><atom id="a13" elementType="H" x3="-1.273987" y3="-2.438539" z3="0.032933"><scalar dataType="xsd:integer" dictRef="cc:serial">13</scalar><scalar dataType="xsd:integer" dictRef="g:atomicType">0</scalar><scalar dataType="xsd:integer" dictRef="compchem:atomicNumber">1</scalar></atom><atom id="a14" elementType="H" x3="-1.274117" y3="2.438493" z3="0.033039"><scalar dataType="xsd:integer" dictRef="cc:serial">14</scalar><scalar dataType="xsd:integer" dictRef="g:atomicType">0</scalar><scalar dataType="xsd:integer" dictRef="compchem:atomicNumber">1</scalar></atom><atom id="a15" elementType="O" x3="2.010443" y3="5.9E-5" z3="0.277838"><scalar dataType="xsd:integer" dictRef="cc:serial">15</scalar><scalar dataType="xsd:integer" dictRef="g:atomicType">0</scalar><scalar dataType="xsd:integer" dictRef="compchem:atomicNumber">8</scalar></atom><atom id="a16" elementType="C" x3="0.187766" y3="-0.725678" z3="-1.055726"><scalar dataType="xsd:integer" dictRef="cc:serial">16</scalar><scalar dataType="xsd:integer" dictRef="g:atomicType">0</scalar><scalar dataType="xsd:integer" dictRef="compchem:atomicNumber">6</scalar></atom><atom id="a17" elementType="C" x3="0.187702" y3="0.725663" z3="-1.055712"><scalar dataType="xsd:integer" dictRef="cc:serial">17</scalar><scalar dataType="xsd:integer" dictRef="g:atomicType">0</scalar><scalar dataType="xsd:integer" dictRef="compchem:atomicNumber">6</scalar></atom><atom id="a18" elementType="H" x3="-0.088282" y3="-1.326269" z3="-1.929716"><scalar dataType="xsd:integer" dictRef="cc:serial">18</scalar><scalar dataType="xsd:integer" dictRef="g:atomicType">0</scalar><scalar dataType="xsd:integer" dictRef="compchem:atomicNumber">1</scalar></atom><atom id="a19" elementType="H" x3="-0.088399" y3="1.326245" z3="-1.929691"><scalar dataType="xsd:integer" dictRef="cc:serial">19</scalar><scalar dataType="xsd:integer" dictRef="g:atomicType">0</scalar><scalar dataType="xsd:integer" dictRef="compchem:atomicNumber">1</scalar></atom><atom id="a20" elementType="C" x3="1.357967" y3="-1.139779" z3="-0.231785"><scalar dataType="xsd:integer" dictRef="cc:serial">20</scalar><scalar dataType="xsd:integer" dictRef="g:atomicType">0</scalar><scalar dataType="xsd:integer" dictRef="compchem:atomicNumber">6</scalar></atom><atom id="a21" elementType="C" x3="1.357861" y3="1.139846" z3="-0.231764"><scalar dataType="xsd:integer" dictRef="cc:serial">21</scalar><scalar dataType="xsd:integer" dictRef="g:atomicType">0</scalar><scalar dataType="xsd:integer" dictRef="compchem:atomicNumber">6</scalar></atom><atom id="a22" elementType="O" x3="1.822116" y3="-2.218073" z3="0.105368"><scalar dataType="xsd:integer" dictRef="cc:serial">22</scalar><scalar dataType="xsd:integer" dictRef="g:atomicType">0</scalar><scalar dataType="xsd:integer" dictRef="compchem:atomicNumber">8</scalar></atom><atom id="a23" elementType="O" x3="1.821936" y3="2.218175" z3="0.105377"><scalar dataType="xsd:integer" dictRef="cc:serial">23</scalar><scalar dataType="xsd:integer" dictRef="g:atomicType">0</scalar><scalar dataType="xsd:integer" dictRef="compchem:atomicNumber">8</scalar></atom></atomArray><formula formalCharge="0" concise="C 10 H 10 O 3"><atomArray elementType="C H O" count="10.0 10.0 3.0"/></formula><bondArray><bond atomRefs2="a1 a2" id="a1_a2" order="2"/><bond atomRefs2="a1 a4" id="a1_a4" order="S"/><bond atomRefs2="a1 a5" id="a1_a5" order="S"/><bond atomRefs2="a2 a7" id="a2_a7" order="S"/><bond atomRefs2="a2 a14" id="a2_a14" order="S"/><bond atomRefs2="a3 a4" id="a3_a4" order="2"/><bond atomRefs2="a3 a10" id="a3_a10" order="S"/><bond atomRefs2="a3 a13" id="a3_a13" order="S"/><bond atomRefs2="a4 a6" id="a4_a6" order="S"/><bond atomRefs2="a7 a8" id="a7_a8" order="S"/><bond atomRefs2="a7 a9" id="a7_a9" order="S"/><bond atomRefs2="a7 a10" id="a7_a10" order="S"/><bond atomRefs2="a10 a11" id="a10_a11" order="S"/><bond atomRefs2="a10 a12" id="a10_a12" order="S"/><bond atomRefs2="a15 a20" id="a15_a20" order="S"/><bond atomRefs2="a15 a21" id="a15_a21" order="S"/><bond atomRefs2="a16 a17" id="a16_a17" order="2"/><bond atomRefs2="a16 a18" id="a16_a18" order="S"/><bond atomRefs2="a16 a20" id="a16_a20" order="S"/><bond atomRefs2="a17 a19" id="a17_a19" order="S"/><bond atomRefs2="a17 a21" id="a17_a21" order="S"/><bond atomRefs2="a20 a22" id="a20_a22" order="2"/><bond atomRefs2="a21 a23" id="a21_a23" order="2"/></bondArray><property dictRef="cml:molmass"><scalar dataType="xsd:double" units="unit:dalton" xmlns:unit="http://www.xml-cml.org/unit/si/">178.1846</scalar></property></molecule></module><module cmlx:lineCount="71" cmlx:templateRef="l202.distmat"><array dataType="xsd:double" size="270" dictRef="cc:distance">0.0 1.425653 0.0 2.390617 2.687847 0.0 1.370069 2.390606 1.425654 0.0 1.098919 2.192596 3.405894 2.161018 0.0 2.161019 3.405883 2.192591 1.098918 2.527157 0.0 2.505473 1.4946 2.515158 2.891938 3.465301 3.981944 0.0 3.414719 2.14719 3.279916 3.846271 4.319398 4.943386 1.124668 0.0 2.972873 2.138752 3.267295 3.456568 3.776855 4.472248 1.12443 1.801067 0.0 2.891907 2.515168 1.494597 2.505435 3.981905 3.465255 1.522489 2.178823 2.172529 0.0 3.84635 3.280067 2.147182 3.414727 4.943471 4.319374 2.178827 2.287308 2.904291 1.124667 0.0 3.45632 3.267148 2.138732 2.972681 4.471955 3.776656 2.172532 2.90443 2.269668 1.124431 1.801087 0.0 3.385885 3.785003 1.103412 2.18685 4.317367 2.512878 3.506716 4.170739 4.213784 2.207233 2.498072 2.585783 0.0 2.186846 1.103412 3.785 3.385872 2.512884 4.317353 2.207239 2.498143 2.585736 3.506735 4.170919 4.213645 4.877032 0.0 4.542063 3.655364 3.655353 4.542044 5.427509 5.427472 3.34666 2.765858 4.392704 3.346799 2.766257 4.392937 4.098075 4.098076 0.0 2.955918 2.85175 2.056982 2.597833 3.777367 3.255789 3.156233 3.389793 4.237313 2.784337 2.858789 3.828958 2.501158 3.651642 2.37218 0.0 2.597835 2.057017 2.851663 2.955826 3.255827 3.777248 2.784254 2.858542 3.828894 3.15628 3.390069 4.237294 3.651556 2.501216 2.372181 1.451341 0.0 3.301715 3.605653 2.422965 2.695709 3.946271 2.978089 4.080488 4.444096 5.101086 3.551376 3.699283 4.472184 2.548535 4.408179 3.322211 1.095797 2.247326 0.0 2.695682 2.422984 3.605549 3.301587 2.97811 3.946105 3.55131 3.699093 4.472152 4.080507 4.444348 5.100995 4.408073 2.548594 3.322212 2.247325 1.095796 2.652514 0.0 4.181877 3.71684 2.772622 3.790071 5.109729 4.510862 3.484556 3.332201 4.572522 2.944853 2.427213 3.966778 2.946869 4.449947 1.408783 1.489875 2.351223 2.238166 3.325076 0.0 3.790036 2.772596 3.716772 4.181793 4.510852 5.109626 2.944699 2.426868 3.966535 3.484636 3.332551 4.572608 4.44989 2.946848 1.408784 2.351215 1.489868 3.32507 2.238161 2.279625 5.164881 4.793141 3.324173 4.538485 6.131463 5.136468 4.338156 4.177926 5.344079 3.473663 2.703729 4.300257 3.104788 5.59245 2.232783 2.499296 3.561601 2.930274 4.51151 1.221403 4.538422 3.324121 4.79308 5.164789 5.136417 6.131349 3.473523 2.703487 4.299954 4.338245 4.178285 5.344179 5.592403 3.104726 2.232783 3.561593 2.499288 4.511499 2.930259 3.406582</array></module> Symmetry turned off by external request.<module cmlx:lineCount="1" cmlx:templateRef="l202.stoich"/> Framework group  C1[X(C10H10O3)] Deg. of freedom    63 Full point group                 C1      NOp   1<module cmlx:lineCount="1" cmlx:templateRef="l202.rotconst"><array dataType="xsd:double" size="3" dictRef="cc:rotconst" cmlx:templateRef="rotconst">1.2272309 0.8875449 0.6783356</array></module><module cmlx:lineCount="1" cmlx:templateRef="l301.basis"/> Integral buffers will be    131072 words long. Regular integral format. Two-electron integral symmetry is turned off.    62 basis functions,   372 primitive gaussians,    62 cartesian basis functions    34 alpha electrons       34 beta electrons       nuclear repulsion energy       471.2152510071 Hartrees. Do NDO integrals.<module cmlx:lineCount="1" cmlx:templateRef="l302.basis"><list cmlx:templateRef="onee"><scalar dataType="xsd:string" dictRef="g:onee">One-electron integrals</scalar></list></module> NBasis=    62 RedAO= F  NBF=    62 NBsUse=    62 1.00D-04 NBFU=    62 Initial guess read from the read-write file. B after Tr=     0.000000    0.000000    0.000000         Rot=    1.000000    0.000000    0.000000    0.000000 Ang=   0.00 deg. Requested convergence on RMS density matrix=1.00D-08 within 128 cycles. Requested convergence on MAX density matrix=1.00D-06. Requested convergence on             energy=1.00D-06. No special actions if energy rises. Overlap will be assumed to be unity. Keep J ints in memory in canonical form, NReq=899243. SCF Done:  E(RAM1) = -0.587020886505E-01 A.U. after   13 cycles             Convg  =    0.9016D-08             -V/T =  0.9996<module cmlx:lineCount="1" cmlx:templateRef="l801"/> NBasis=    62 NAE=    34 NBE=    34 NFC=     0 NFV=     0 NROrb=     62 NOA=    34 NOB=    34 NVA=    28 NVB=    28 Symmetrizing basis deriv contribution to polar: IMax=3 JMax=2 DiffMx= 0.00D+00 G2DrvN: will do    24 centers at a time, making    1 passes doing MaxLOS=1. Calling FoFCou, ICntrl=  3107 FMM=F I1Cent=   0 AccDes= 0.00D+00. FoFDir/FoFCou used for L=0 through L=1. End of G2Drv Frequency-dependent properties file   721 does not exist. End of G2Drv Frequency-dependent properties file   722 does not exist.          IDoAtm=11111111111111111111111          Differentiating once with respect to electric field.                with respect to dipole field.          Differentiating once with respect to nuclear coordinates.          Electric field/nuclear overlap derivatives assumed to be zero.          Keep J ints in memory in canonical form, NReq=811133.          There are    72 degrees of freedom in the 1st order CPHF.  IDoFFX=5. LinEq1:  Iter=  0 NonCon=    72 RMS=2.43D-01 Max=4.50D+00 AX will form    72 AO Fock derivatives at one time. LinEq1:  Iter=  1 NonCon=    72 RMS=3.49D-02 Max=2.41D-01 LinEq1:  Iter=  2 NonCon=    72 RMS=8.26D-03 Max=8.48D-02 LinEq1:  Iter=  3 NonCon=    72 RMS=1.82D-03 Max=2.23D-02 LinEq1:  Iter=  4 NonCon=    72 RMS=3.63D-04 Max=5.15D-03 LinEq1:  Iter=  5 NonCon=    72 RMS=6.20D-05 Max=6.79D-04 LinEq1:  Iter=  6 NonCon=    72 RMS=1.05D-05 Max=1.00D-04 LinEq1:  Iter=  7 NonCon=    72 RMS=1.65D-06 Max=1.74D-05 LinEq1:  Iter=  8 NonCon=    41 RMS=2.29D-07 Max=1.39D-06 LinEq1:  Iter=  9 NonCon=     4 RMS=3.97D-08 Max=4.45D-07 LinEq1:  Iter= 10 NonCon=     0 RMS=7.44D-09 Max=7.30D-08 Linear equations converged to 1.000D-08 1.000D-07 after    10 iterations. Isotropic polarizability for W=    0.000000       99.87 Bohr**3. End of Minotr Frequency-dependent properties file   721 does not exist. End of Minotr Frequency-dependent properties file   722 does not exist. Calling FoFJK, ICntrl=    100127 FMM=F ISym2X=0 I1Cent= 0 IOpClX= 0 NMat=1 NMatS=1 NMatT=0. ------------------------------------------------------------------- Center     Atomic                   Forces (Hartrees/Bohr) Number     Number              X              Y              Z -------------------------------------------------------------------      1        6          -0.004097867   -0.005246549   -0.003694060      2        6           0.028161543   -0.006916227   -0.015123496      3        6           0.028159145    0.006912492   -0.015126333      4        6          -0.004102650    0.005243773   -0.003696608      5        1          -0.001402562    0.000422775    0.001589631      6        1          -0.001403417   -0.000422511    0.001589154      7        6          -0.000349438    0.000102314   -0.000097862      8        1          -0.000157313   -0.000125224    0.000589678      9        1          -0.000489969    0.000227145   -0.000705019     10        6          -0.000343028   -0.000100941   -0.000100324     11        1          -0.000156124    0.000126472    0.000588419     12        1          -0.000487841   -0.000227238   -0.000704064     13        1           0.000101972    0.000246741   -0.000235713     14        1           0.000103022   -0.000247245   -0.000235438     15        8          -0.001221205   -0.000000463   -0.003326067     16        6          -0.022594219   -0.011013012    0.020532207     17        6          -0.022588375    0.011013858    0.020526917     18        1           0.001848433    0.001247784   -0.000816312     19        1           0.001848218   -0.001247299   -0.000816597     20        6          -0.001223210   -0.000107203   -0.000067191     21        6          -0.001214773    0.000108182   -0.000074673     22        8           0.000804504    0.000660801   -0.000299451     23        8           0.000805155   -0.000658426   -0.000296798 ------------------------------------------------------------------- Cartesian Forces:  Max     0.028161543 RMS     0.007988010 IRC-IRC-IRC-IRC-IRC-IRC-IRC-IRC-IRC-IRC-IRC-IRC-IRC-IRC-IRC-IRC-IRC-IRC Pt  3 Step number   1 out of a maximum of  20 COR
[...]
"><scalar dataType="xsd:integer" dictRef="cc:serial">6</scalar><scalar dataType="xsd:integer" dictRef="g:atomicType">0</scalar><scalar dataType="xsd:integer" dictRef="compchem:atomicNumber">1</scalar></atom><atom id="a7" elementType="C" x3="-1.104461" y3="0.762652" z3="1.408302"><scalar dataType="xsd:integer" dictRef="cc:serial">7</scalar><scalar dataType="xsd:integer" dictRef="g:atomicType">0</scalar><scalar dataType="xsd:integer" dictRef="compchem:atomicNumber">6</scalar></atom><atom id="a8" elementType="H" x3="-0.171192" y3="1.153544" z3="1.890185"><scalar dataType="xsd:integer" dictRef="cc:serial">8</scalar><scalar dataType="xsd:integer" dictRef="g:atomicType">0</scalar><scalar dataType="xsd:integer" dictRef="compchem:atomicNumber">1</scalar></atom><atom id="a9" elementType="H" x3="-1.975808" y3="1.151553" z3="1.993205"><scalar dataType="xsd:integer" dictRef="cc:serial">9</scalar><scalar dataType="xsd:integer" dictRef="g:atomicType">0</scalar><scalar dataType="xsd:integer" dictRef="compchem:atomicNumber">1</scalar></atom><atom id="a10" elementType="C" x3="-1.104427" y3="-0.76276" z3="1.408279"><scalar dataType="xsd:integer" dictRef="cc:serial">10</scalar><scalar dataType="xsd:integer" dictRef="g:atomicType">0</scalar><scalar dataType="xsd:integer" dictRef="compchem:atomicNumber">6</scalar></atom><atom id="a11" elementType="H" x3="-0.171144" y3="-1.153625" z3="1.890156"><scalar dataType="xsd:integer" dictRef="cc:serial">11</scalar><scalar dataType="xsd:integer" dictRef="g:atomicType">0</scalar><scalar dataType="xsd:integer" dictRef="compchem:atomicNumber">1</scalar></atom><atom id="a12" elementType="H" x3="-1.97576" y3="-1.151717" z3="1.993164"><scalar dataType="xsd:integer" dictRef="cc:serial">12</scalar><scalar dataType="xsd:integer" dictRef="g:atomicType">0</scalar><scalar dataType="xsd:integer" dictRef="compchem:atomicNumber">1</scalar></atom><atom id="a13" elementType="H" x3="-1.219003" y3="-2.407183" z3="-0.045609"><scalar dataType="xsd:integer" dictRef="cc:serial">13</scalar><scalar dataType="xsd:integer" dictRef="g:atomicType">0</scalar><scalar dataType="xsd:integer" dictRef="compchem:atomicNumber">1</scalar></atom><atom id="a14" elementType="H" x3="-1.219127" y3="2.407116" z3="-0.045534"><scalar dataType="xsd:integer" dictRef="cc:serial">14</scalar><scalar dataType="xsd:integer" dictRef="g:atomicType">0</scalar><scalar dataType="xsd:integer" dictRef="compchem:atomicNumber">1</scalar></atom><atom id="a15" elementType="O" x3="2.075682" y3="5.7E-5" z3="0.157316"><scalar dataType="xsd:integer" dictRef="cc:serial">15</scalar><scalar dataType="xsd:integer" dictRef="g:atomicType">0</scalar><scalar dataType="xsd:integer" dictRef="compchem:atomicNumber">8</scalar></atom><atom id="a16" elementType="C" x3="0.023963" y3="-0.774638" z3="-0.816645"><scalar dataType="xsd:integer" dictRef="cc:serial">16</scalar><scalar dataType="xsd:integer" dictRef="g:atomicType">0</scalar><scalar dataType="xsd:integer" dictRef="compchem:atomicNumber">6</scalar></atom><atom id="a17" elementType="C" x3="0.023919" y3="0.774659" z3="-0.816627"><scalar dataType="xsd:integer" dictRef="cc:serial">17</scalar><scalar dataType="xsd:integer" dictRef="g:atomicType">0</scalar><scalar dataType="xsd:integer" dictRef="compchem:atomicNumber">6</scalar></atom><atom id="a18" elementType="H" x3="-5.38E-4" y3="-1.181614" z3="-1.860804"><scalar dataType="xsd:integer" dictRef="cc:serial">18</scalar><scalar dataType="xsd:integer" dictRef="g:atomicType">0</scalar><scalar dataType="xsd:integer" dictRef="compchem:atomicNumber">1</scalar></atom><atom id="a19" elementType="H" x3="-6.13E-4" y3="1.181658" z3="-1.860776"><scalar dataType="xsd:integer" dictRef="cc:serial">19</scalar><scalar dataType="xsd:integer" dictRef="g:atomicType">0</scalar><scalar dataType="xsd:integer" dictRef="compchem:atomicNumber">1</scalar></atom><atom id="a20" elementType="C" x3="1.342974" y3="-1.142956" z3="-0.178165"><scalar dataType="xsd:integer" dictRef="cc:serial">20</scalar><scalar dataType="xsd:integer" dictRef="g:atomicType">0</scalar><scalar dataType="xsd:integer" dictRef="compchem:atomicNumber">6</scalar></atom><atom id="a21" elementType="C" x3="1.342915" y3="1.143037" z3="-0.178149"><scalar dataType="xsd:integer" dictRef="cc:serial">21</scalar><scalar dataType="xsd:integer" dictRef="g:atomicType">0</scalar><scalar dataType="xsd:integer" dictRef="compchem:atomicNumber">6</scalar></atom><atom id="a22" elementType="O" x3="1.879417" y3="-2.208694" z3="0.075964"><scalar dataType="xsd:integer" dictRef="cc:serial">22</scalar><scalar dataType="xsd:integer" dictRef="g:atomicType">0</scalar><scalar dataType="xsd:integer" dictRef="compchem:atomicNumber">8</scalar></atom><atom id="a23" elementType="O" x3="1.879306" y3="2.208799" z3="0.075987"><scalar dataType="xsd:integer" dictRef="cc:serial">23</scalar><scalar dataType="xsd:integer" dictRef="g:atomicType">0</scalar><scalar dataType="xsd:integer" dictRef="compchem:atomicNumber">8</scalar></atom></atomArray><formula formalCharge="0" concise="C 10 H 10 O 3"><atomArray elementType="C H O" count="10.0 10.0 3.0"/></formula><bondArray><bond atomRefs2="a1 a2" id="a1_a2" order="S"/><bond atomRefs2="a1 a4" id="a1_a4" order="2"/><bond atomRefs2="a1 a5" id="a1_a5" order="S"/><bond atomRefs2="a2 a7" id="a2_a7" order="S"/><bond atomRefs2="a2 a14" id="a2_a14" order="S"/><bond atomRefs2="a2 a17" id="a2_a17" order="S"/><bond atomRefs2="a3 a4" id="a3_a4" order="S"/><bond atomRefs2="a3 a10" id="a3_a10" order="S"/><bond atomRefs2="a3 a13" id="a3_a13" order="S"/><bond atomRefs2="a3 a16" id="a3_a16" order="S"/><bond atomRefs2="a4 a6" id="a4_a6" order="S"/><bond atomRefs2="a7 a8" id="a7_a8" order="S"/><bond atomRefs2="a7 a9" id="a7_a9" order="S"/><bond atomRefs2="a7 a10" id="a7_a10" order="S"/><bond atomRefs2="a10 a11" id="a10_a11" order="S"/><bond atomRefs2="a10 a12" id="a10_a12" order="S"/><bond atomRefs2="a15 a20" id="a15_a20" order="S"/><bond atomRefs2="a15 a21" id="a15_a21" order="S"/><bond atomRefs2="a16 a17" id="a16_a17" order="S"/><bond atomRefs2="a16 a18" id="a16_a18" order="S"/><bond atomRefs2="a16 a20" id="a16_a20" order="S"/><bond atomRefs2="a17 a19" id="a17_a19" order="S"/><bond atomRefs2="a17 a21" id="a17_a21" order="S"/><bond atomRefs2="a20 a22" id="a20_a22" order="2"/><bond atomRefs2="a21 a23" id="a21_a23" order="2"/></bondArray><property dictRef="cml:molmass"><scalar dataType="xsd:double" units="unit:dalton" xmlns:unit="http://www.xml-cml.org/unit/si/">178.1846</scalar></property></molecule></module><module cmlx:lineCount="71" cmlx:templateRef="l202.distmat"><array dataType="xsd:double" size="270" dictRef="cc:distance">0.0 1.504358 0.0 2.393592 2.578881 0.0 1.344067 2.393592 1.504358 0.0 1.093158 2.255178 3.445897 2.175541 0.0 2.17554 3.445897 2.255178 1.093158 2.632296 0.0 2.450959 1.535173 2.508109 2.838566 3.28516 3.848067 0.0 3.430114 2.179641 3.271197 3.855731 4.231141 4.896498 1.120713 0.0 2.73574 2.175195 3.266703 3.252697 3.295495 4.113782 1.119196 1.807555 0.0 2.838564 2.50811 1.535173 2.450958 3.848064 3.285158 1.525412 2.185264 2.183126 0.0 3.855732 3.271203 2.179641 3.430113 4.896498 4.231138 2.185265 2.307169 2.929381 1.120713 0.0 3.252687 3.266698 2.175195 2.735734 4.11377 3.295488 2.183126 2.929385 2.30327 1.119196 1.807554 0.0 3.358423 3.696721 1.118141 2.192775 4.336925 2.477148 3.489246 4.186166 4.170626 2.197964 2.533102 2.51107 0.0 2.192775 1.118141 3.696721 3.358423 2.477148 4.336925 2.197964 2.533104 2.511067 3.489246 4.186172 4.170621 4.814299 0.0 4.607798 3.517562 3.517569 4.6078 5.569318 5.569322 3.501403 3.062974 4.594671 3.501413 3.062996 4.594682 4.085454 4.085443 0.0 2.833763 2.520941 1.536128 2.438821 3.847452 3.274854 2.930357 3.329099 3.95026 2.494733 2.740159 3.469309 2.191954 3.50192 2.399647 0.0 2.438819 1.536128 2.520942 2.833759 3.274851 3.847448 2.494734 2.740156 3.46931 2.930364 3.329115 3.950262 3.50192 2.191954 2.399647 1.549298 0.0 3.26514 3.29738 2.185886 2.735823 4.133745 3.296511 3.960539 4.421764 4.919222 3.475761 3.754942 4.330758 2.506314 4.202278 3.127274 1.120936 2.217635 0.0 2.735814 2.185886 3.297374 3.265127 3.296502 4.133729 3.475761 3.754943 4.330759 3.960541 4.421778 4.919217 4.202271 2.506318 3.12728 2.217636 1.120936 2.363271 0.0 4.19539 3.516002 2.54303 3.811664 5.238008 4.628103 3.483986 3.44161 4.581913 2.941279 2.563322 3.965948 2.859994 4.380064 1.39853 1.510995 2.41346 2.153554 3.168634 0.0 3.811663 2.54303 3.516011 4.195392 4.6281 5.238009 2.941287 2.563325 3.965952 3.484006 3.441644 4.581932 4.380074 2.85999 1.39853 2.41346 1.510995 3.168626 2.153554 2.285993 5.218229 4.656126 3.207392 4.614382 6.283826 5.278102 4.416735 4.336016 5.461669 3.573389 2.934155 4.433424 3.10715 5.560705 2.218946 2.509179 3.624912 2.88794 4.333586 1.219898 4.614383 3.207398 4.656139 5.218233 5.278098 6.283828 3.573411 2.934182 4.433441 4.416767 4.336064 5.461701 5.560719 3.10715 2.218946 3.624912 2.509178 4.333575 2.887934 3.403896</array></module> Symmetry turned off by external request.<module cmlx:lineCount="1" cmlx:templateRef="l202.stoich"/> Framework group  C1[X(C10H10O3)] Deg. of freedom    63 Full point group                 C1      NOp   1<module cmlx:lineCount="1" cmlx:templateRef="l202.rotconst"><array dataType="xsd:double" size="3" dictRef="cc:rotconst" cmlx:templateRef="rotconst">1.2962204 0.9035955 0.6746092</array></module><module cmlx:lineCount="214" cmlx:templateRef="l601.popanal"><array dataType="xsd:double" size="34" dictRef="g:alphaocc">-1.59344 -1.48283 -1.45386 -1.37367 -1.21541 -1.21098 -1.17971 -0.97496 -0.90157 -0.87235 -0.84118 -0.79485 -0.69155 -0.6812 -0.66652 -0.66011 -0.63042 -0.59972 -0.58572 -0.56734 -0.55266 -0.54985 -0.53139 -0.51674 -0.51227 -0.50697 -0.48905 -0.46004 -0.44735 -0.44299 -0.43112 -0.42944 -0.41801 -0.38787</array><array dataType="xsd:double" size="28" dictRef="g:alphavirt">0.00601 0.01998 0.03489 0.05509 0.07887 0.08988 0.09106 0.10258 0.11278 0.12025 0.12499 0.12502 0.12752 0.13203 0.13348 0.13558 0.14482 0.1496 0.15744 0.16064 0.16073 0.16577 0.16663 0.17933 0.18791 0.19314 0.21987 0.22409</array><module cmlx:lineCount="13" cmlx:templateRef="l601.alphabetaeigen"/><module cmlx:lineCount="96" cmlx:templateRef="l601.condensed"><array dataType="xsd:double" size="23" dictRef="x:floatArr">4.163522 0.0 0.0 0.0 0.0 0.0 0.0 0.0 0.0 0.0 0.0 0.0 0.0 0.0 0.0 0.0 0.0 0.0 0.0 0.0 0.0 0.0 0.0</array><array dataType="xsd:double" size="23" dictRef="x:floatArr">0.0 4.067028 0.0 0.0 0.0 0.0 0.0 0.0 0.0 0.0 0.0 0.0 0.0 0.0 0.0 0.0 0.0 0.0 0.0 0.0 0.0 0.0 0.0</array><array dataType="xsd:double" size="23" dictRef="x:floatArr">0.0 0.0 4.067028 0.0 0.0 0.0 0.0 0.0 0.0 0.0 0.0 0.0 0.0 0.0 0.0 0.0 0.0 0.0 0.0 0.0 0.0 0.0 0.0</array><array dataType="xsd:double" size="23" dictRef="x:floatArr">0.0 0.0 0.0 4.163522 0.0 0.0 0.0 0.0 0.0 0.0 0.0 0.0 0.0 0.0 0.0 0.0 0.0 0.0 0.0 0.0 0.0 0.0 0.0</array><array dataType="xsd:double" size="23" dictRef="x:floatArr">0.0 0.0 0.0 0.0 0.85444 0.0 0.0 0.0 0.0 0.0 0.0 0.0 0.0 0.0 0.0 0.0 0.0 0.0 0.0 0.0 0.0 0.0 0.0</array><array dataType="xsd:double" size="23" dictRef="x:floatArr">0.0 0.0 0.0 0.0 0.0 0.85444 0.0 0.0 0.0 0.0 0.0 0.0 0.0 0.0 0.0 0.0 0.0 0.0 0.0 0.0 0.0 0.0 0.0</array><array dataType="xsd:double" size="23" dictRef="x:floatArr">0.0 0.0 0.0 0.0 0.0 0.0 4.164544 0.0 0.0 0.0 0.0 0.0 0.0 0.0 0.0 0.0 0.0 0.0 0.0 0.0 0.0 0.0 0.0</array><array dataType="xsd:double" size="23" dictRef="x:floatArr">0.0 0.0 0.0 0.0 0.0 0.0 0.0 0.90274 0.0 0.0 0.0 0.0 0.0 0.0 0.0 0.0 0.0 0.0 0.0 0.0 0.0 0.0 0.0</array><array dataType="xsd:double" size="23" dictRef="x:floatArr">0.0 0.0 0.0 0.0 0.0 0.0 0.0 0.0 0.901331 0.0 0.0 0.0 0.0 0.0 0.0 0.0 0.0 0.0 0.0 0.0 0.0 0.0 0.0</array><array dataType="xsd:double" size="23" dictRef="x:floatArr">0.0 0.0 0.0 0.0 0.0 0.0 0.0 0.0 0.0 4.164544 0.0 0.0 0.0 0.0 0.0 0.0 0.0 0.0 0.0 0.0 0.0 0.0 0.0</array><array dataType="xsd:double" size="23" dictRef="x:floatArr">0.0 0.0 0.0 0.0 0.0 0.0 0.0 0.0 0.0 0.0 0.90274 0.0 0.0 0.0 0.0 0.0 0.0 0.0 0.0 0.0 0.0 0.0 0.0</array><array dataType="xsd:double" size="23" dictRef="x:floatArr">0.0 0.0 0.0 0.0 0.0 0.0 0.0 0.0 0.0 0.0 0.0 0.901331 0.0 0.0 0.0 0.0 0.0 0.0 0.0 0.0 0.0 0.0 0.0</array><array dataType="xsd:double" size="23" dictRef="x:floatArr">0.0 0.0 0.0 0.0 0.0 0.0 0.0 0.0 0.0 0.0 0.0 0.0 0.877477 0.0 0.0 0.0 0.0 0.0 0.0 0.0 0.0 0.0 0.0</array><array dataType="xsd:double" size="23" dictRef="x:floatArr">0.0 0.0 0.0 0.0 0.0 0.0 0.0 0.0 0.0 0.0 0.0 0.0 0.0 0.877477 0.0 0.0 0.0 0.0 0.0 0.0 0.0 0.0 0.0</array><array dataType="xsd:double" size="23" dictRef="x:floatArr">0.0 0.0 0.0 0.0 0.0 0.0 0.0 0.0 0.0 0.0 0.0 0.0 0.0 0.0 6.249331 0.0 0.0 0.0 0.0 0.0 0.0 0.0 0.0</array><array dataType="xsd:double" size="23" dictRef="x:floatArr">0.0 0.0 0.0 0.0 0.0 0.0 0.0 0.0 0.0 0.0 0.0 0.0 0.0 0.0 0.0 4.136842 0.0 0.0 0.0 0.0 0.0 0.0 0.0</array><array dataType="xsd:double" size="23" dictRef="x:floatArr">0.0 0.0 0.0 0.0 0.0 0.0 0.0 0.0 0.0 0.0 0.0 0.0 0.0 0.0 0.0 0.0 4.136843 0.0 0.0 0.0 0.0 0.0 0.0</array><array dataType="xsd:double" size="23" dictRef="x:floatArr">0.0 0.0 0.0 0.0 0.0 0.0 0.0 0.0 0.0 0.0 0.0 0.0 0.0 0.0 0.0 0.0 0.0 0.857608 0.0 0.0 0.0 0.0 0.0</array><array dataType="xsd:double" size="23" dictRef="x:floatArr">0.0 0.0 0.0 0.0 0.0 0.0 0.0 0.0 0.0 0.0 0.0 0.0 0.0 0.0 0.0 0.0 0.0 0.0 0.857608 0.0 0.0 0.0 0.0</array><array dataType="xsd:double" size="23" dictRef="x:floatArr">0.0 0.0 0.0 0.0 0.0 0.0 0.0 0.0 0.0 0.0 0.0 0.0 0.0 0.0 0.0 0.0 0.0 0.0 0.0 3.694828 0.0 0.0 0.0</array><array dataType="xsd:double" size="23" dictRef="x:floatArr">0.0 0.0 0.0 0.0 0.0 0.0 0.0 0.0 0.0 0.0 0.0 0.0 0.0 0.0 0.0 0.0 0.0 0.0 0.0 0.0 3.694828 0.0 0.0</array><array dataType="xsd:double" size="23" dictRef="x:floatArr">0.0 0.0 0.0 0.0 0.0 0.0 0.0 0.0 0.0 0.0 0.0 0.0 0.0 0.0 0.0 0.0 0.0 0.0 0.0 0.0 0.0 6.254973 0.0</array><array dataType="xsd:double" size="18" dictRef="x:floatArr">0.0 0.0 0.0 0.0 0.0 0.0 0.0 0.0 0.0 0.0 0.0 0.0 0.0 0.0 0.0 0.0 0.0 0.0</array></module>    23  O    0.000000   0.000000   0.000000   0.000000   6.254973<module cmlx:lineCount="95" cmlx:templateRef="mulliken"><module cmlx:lineCount="26" cmlx:templateRef="l601.mullik"><scalar dataType="xsd:string" dictRef="g:title">Mulliken atomic charges:</scalar><scalar dataType="xsd:integer" dictRef="cc:serial">1</scalar> Sum of Mulliken atomic charges =   0.00000</module> Mulliken charges with hydrogens summed into heavy atoms:              1     1  C   -0.017962     2  C    0.055494     3  C    0.055494     4  C   -0.017962     7  C    0.031385    10  C    0.031385    15  O   -0.249331    16  C    0.005550    17  C    0.005550    20  C    0.305172    21  C    0.305172    22  O   -0.254973    23  O   -0.254973 Sum of Mulliken charges with hydrogens summed into heavy atoms =   0.00000<module cmlx:lineCount="26" cmlx:templateRef="l601.mullik"><scalar dataType="xsd:string" dictRef="g:title">APT atomic charges:</scalar><scalar dataType="xsd:integer" dictRef="cc:serial">1</scalar><list cmlx:lineCount="23" cmlx:templateRef="row"><array dataType="xsd:integer" dictRef="cc:serial" size="23">1 2 3 4 5 6 7 8 9 10 11 12 13 14 15 16 17 18 19 20 21 22 23</array><array dataType="xsd:string" dictRef="cc:elementType" size="23">C C C C H H C H H C H H H H O C C H H C C O O</array><array dataType="xsd:double" dictRef="x:charge" size="23">-0.149136 0.035629 0.035629 -0.149136 0.129789 0.129789 -0.061465 0.041472 0.046348 -0.061466 0.041473 0.046348 0.06487 0.06487 -0.907729 -0.163087 -0.163088 0.091465 0.091465 1.132092 1.132093 -0.714105 -0.714105</array></list><scalar dataType="xsd:string" dictRef="x:type">APT</scalar><scalar dataType="xsd:double" dictRef="x:charge.sum">2.0E-5</scalar></module><module cmlx:lineCount="26" cmlx:templateRef="l601.mullik"><scalar dataType="xsd:string" dictRef="g:title">APT Atomic charges with hydrogens summed into heavy atoms:</scalar><scalar dataType="xsd:integer" dictRef="cc:serial">1</scalar><list cmlx:lineCount="23" cmlx:templateRef="row"><array dataType="xsd:integer" dictRef="cc:serial" size="23">1 2 3 4 5 6 7 8 9 10 11 12 13 14 15 16 17 18 19 20 21 22 23</array><array dataType="xsd:string" dictRef="cc:elementType" size="23">C C C C H H C H H C H H H H O C C H H C C O O</array><array dataType="xsd:double" dictRef="x:charge" size="23">-0.019347 0.100499 0.100499 -0.019347 0.0 0.0 0.026356 0.0 0.0 0.026356 0.0 0.0 0.0 0.0 -0.907729 -0.071622 -0.071622 0.0 0.0 1.132092 1.132093 -0.714105 -0.714105</array></list><scalar dataType="xsd:string" dictRef="x:type">APT</scalar><scalar dataType="xsd:double" dictRef="x:charge.sum">2.0E-5</scalar></module> Charge=              0.0000 electrons</module><module cmlx:lineCount="3" cmlx:templateRef="multipole"/></module><module cmlx:lineCount="2" cmlx:templateRef="l601.polariz"><list cmlx:templateRef="l601.pol"><scalar dataType="xsd:double" dictRef="g:l601.pol.exact">81.252</scalar><scalar dataType="xsd:double" dictRef="g:l601.pol">-0.0010</scalar><scalar dataType="xsd:double" dictRef="g:l601.pol">110.528</scalar><scalar dataType="xsd:double" dictRef="g:l601.pol">10.372</scalar><scalar dataType="xsd:double" dictRef="g:l601.pol">0.0010</scalar><scalar dataType="xsd:double" dictRef="g:l601.pol">56.833</scalar></list><list cmlx:templateRef="l601.pol"><scalar dataType="xsd:double" dictRef="g:l601.pol.approx">55.165</scalar><scalar dataType="xsd:double" dictRef="g:l601.pol">-0.0010</scalar><scalar dataType="xsd:double" dictRef="g:l601.pol">94.382</scalar><scalar dataType="xsd:double" dictRef="g:l601.pol">9.025</scalar><scalar dataType="xsd:double" dictRef="g:l601.pol">0.0010</scalar><scalar dataType="xsd:double" dictRef="g:l601.pol">39.462</scalar></list></module> ------------------------------------------------------------------- Center     Atomic                   Forces (Hartrees/Bohr) Number     Number              X              Y              Z -------------------------------------------------------------------      1        6           0.000016062    0.000010935    0.000002366      2        6          -0.000025681   -0.000014766    0.000021336      3        6          -0.000025668    0.000014785    0.000021363      4        6           0.000016057   -0.000010961    0.000002395      5        1           0.000016288   -0.000008009    0.000006416      6        1           0.000016271    0.000007989    0.000006411      7        6          -0.000035405    0.000011226   -0.000002011      8        1          -0.000027919   -0.000005056    0.000001660      9        1           0.000017026   -0.000005866   -0.000015675     10        6          -0.000035348   -0.000011096   -0.000001992     11        1          -0.000027844    0.000005047    0.000001685     12        1           0.000016956    0.000005835   -0.000015610     13        1          -0.000001022    0.000002441    0.000001422     14        1          -0.000001020   -0.000002440    0.000001408     15        8          -0.000092061    0.000000017   -0.000076367     16        6           0.000023909    0.000006543    0.000036973     17        6           0.000023890   -0.000006560    0.000036973     18        1           0.000002010   -0.000000080    0.000003471     19        1           0.000002011    0.000000083    0.000003461     20        6           0.000059564    0.000017282    0.000008087     21        6           0.000059609   -0.000017323    0.000008122     22        8           0.000001176    0.000025566   -0.000026019     23        8           0.000001140   -0.000025594   -0.000025877 ------------------------------------------------------------------- Cartesian Forces:  Max     0.000092061 RMS     0.000023618 This type of calculation cannot be archived. ERROR IS A HARDY PLANT... IT FLOURISHETH IN EVERY SOIL.            MARTIN FARQUHAR TUPPER<module cmlx:lineCount="3" cmlx:templateRef="jobcpu"><scalar dictRef="cc:jobtime" dataType="xsd:string">PT69.500S</scalar><scalar dataType="xsd:string" dictRef="cc:jobdatetime.end">Tue Nov  3 22:06:13 2009</scalar><scalar dataType="xsd:string" dictRef="cc:program">Gaussian 09</scalar></module></module>
