 Entering Gaussian System, Link 0=g03
 Initial command:
 /apps/gaussian/g09/g09/l1.exe /home/scan-user-1/run/19321/Gau-10015.inp -scrdir=/home/scan-user-1/run/19321/
 Entering Link 1 = /apps/gaussian/g09/g09/l1.exe PID=     10016.
  
 Copyright (c) 1988,1990,1992,1993,1995,1998,2003,2009, Gaussian, Inc.
                  All Rights Reserved.
  
 This is part of the Gaussian(R) 09 program.  It is based on
 the Gaussian(R) 03 system (copyright 2003, Gaussian, Inc.),
 the Gaussian(R) 98 system (copyright 1998, Gaussian, Inc.),
 the Gaussian(R) 94 system (copyright 1995, Gaussian, Inc.),
 the Gaussian 92(TM) system (copyright 1992, Gaussian, Inc.),
 the Gaussian 90(TM) system (copyright 1990, Gaussian, Inc.),
 the Gaussian 88(TM) system (copyright 1988, Gaussian, Inc.),
 the Gaussian 86(TM) system (copyright 1986, Carnegie Mellon
 University), and the Gaussian 82(TM) system (copyright 1983,
 Carnegie Mellon University). Gaussian is a federally registered
 trademark of Gaussian, Inc.
  
 This software contains proprietary and confidential information,
 including trade secrets, belonging to Gaussian, Inc.
  
 This software is provided under written license and may be
 used, copied, transmitted, or stored only in accord with that
 written license.
  
 The following legend is applicable only to US Government
 contracts under FAR:
  
                    RESTRICTED RIGHTS LEGEND
  
 Use, reproduction and disclosure by the US Government is
 subject to restrictions as set forth in subparagraphs (a)
 and (c) of the Commercial Computer Software - Restricted
 Rights clause in FAR 52.227-19.
  
 Gaussian, Inc.
 340 Quinnipiac St., Bldg. 40, Wallingford CT 06492
  
  
 ---------------------------------------------------------------
 Warning -- This program may not be used in any manner that
 competes with the business of Gaussian, Inc. or will provide
 assistance to any competitor of Gaussian, Inc.  The licensee
 of this program is prohibited from giving any competitor of
 Gaussian, Inc. access to this program.  By using this program,
 the user acknowledges that Gaussian, Inc. is engaged in the
 business of creating and licensing software in the field of
 computational chemistry and represents and warrants to the
 licensee that it is not a competitor of Gaussian, Inc. and that
 it will not use this program in any manner prohibited above.
 ---------------------------------------------------------------
  

 Cite this work as:
 Gaussian 09, Revision A.02,
 M. J. Frisch, G. W. Trucks, H. B. Schlegel, G. E. Scuseria, 
 M. A. Robb, J. R. Cheeseman, G. Scalmani, V. Barone, B. Mennucci, 
 G. A. Petersson, H. Nakatsuji, M. Caricato, X. Li, H. P. Hratchian, 
 A. F. Izmaylov, J. Bloino, G. Zheng, J. L. Sonnenberg, M. Hada, 
 M. Ehara, K. Toyota, R. Fukuda, J. Hasegawa, M. Ishida, T. Nakajima, 
 Y. Honda, O. Kitao, H. Nakai, T. Vreven, J. A. Montgomery, Jr., 
 J. E. Peralta, F. Ogliaro, M. Bearpark, J. J. Heyd, E. Brothers, 
 K. N. Kudin, V. N. Staroverov, R. Kobayashi, J. Normand, 
 K. Raghavachari, A. Rendell, J. C. Burant, S. S. Iyengar, J. Tomasi, 
 M. Cossi, N. Rega, J. M. Millam, M. Klene, J. E. Knox, J. B. Cross, 
 V. Bakken, C. Adamo, J. Jaramillo, R. Gomperts, R. E. Stratmann, 
 O. Yazyev, A. J. Austin, R. Cammi, C. Pomelli, J. W. Ochterski, 
 R. L. Martin, K. Morokuma, V. G. Zakrzewski, G. A. Voth, 
 P. Salvador, J. J. Dannenberg, S. Dapprich, A. D. Daniels, 
 O. Farkas, J. B. Foresman, J. V. Ortiz, J. Cioslowski, 
 and D. J. Fox, Gaussian, Inc., Wallingford CT, 2009.
 
 ******************************************
 Gaussian 09:  EM64L-G09RevA.02 11-Jun-2009
                 3-Nov-2009 
 ******************************************
 %nprocshared=2
 Will use up to    2 processors via shared memory.
 %mem=3600MB
 %NoSave
 %Chk=chk.chk
 %rwf=/tmp/pbs.3091103.cx1/rwf
 ----------------------------------------------------------------------
 # irc=(reverse,maxpoints=50,calcall) am1 geom=(modredundant,connectivi
 ty)
 ----------------------------------------------------------------------
 1/10=4,14=-1,18=120,22=2,26=1,38=1,42=50,44=3,57=2,71=1/1,23;
 2/9=110,12=2,17=6,18=5,29=1,40=1/2;
 3/5=2,16=1,25=1,41=700000,71=2/1,2,3;
 4/35=1/1;
 5/5=2,35=1,38=5/2;
 8/6=4,10=90,11=11/1;
 11/6=1,8=1,9=11,15=111,16=1/1,2,10;
 10/6=1/2;
 6/7=2,8=2,9=2,10=2,18=1,28=1/1;
 7/10=1,25=1/1,2,3,16;
 1/10=4,14=-1,18=20,22=2,42=50,44=3,71=1/23(3);
 2/9=110,29=1/2;
 7/8=1,9=1,25=1,44=-1/16;
 99//99;
 2/9=110,29=1/2;
 3/5=2,16=1,25=1,41=700000,71=2,135=20/1,2,3;
 4/5=5,16=3,35=1/1;
 5/5=2,35=1,38=5/2;
 8/6=4,10=90,11=11/1;
 11/6=1,8=1,9=11,15=111,16=1/1,2,10;
 10/6=1/2;
 7/10=1,25=1/1,2,3,16;
 1/10=4,14=-1,18=20,22=2,42=50,44=3,71=1/23(-8);
 2/9=110,29=1/2;
 6/7=2,8=2,9=2,10=2,18=1,19=2,28=1/1;
 7/8=1,9=1,25=1,44=-1/16;
 99//99;
 -----------
 DA2_exo_IRC
 -----------
 Symbolic Z-matrix:
 Charge =  0 Multiplicity = 1
 C                    -2.30663   0.69837  -0.66349 
 C                    -1.3707    1.35551   0.1343 
 C                    -1.37061  -1.35552   0.13428 
 C                    -2.30654  -0.69842  -0.66352 
 H                    -2.91502   1.25461  -1.39105 
 H                    -2.91485  -1.25468  -1.39111 
 C                    -0.96573   0.76097   1.43894 
 H                     0.04521   1.14574   1.74462 
 H                    -1.69244   1.13059   2.21581 
 C                    -0.96585  -0.7611    1.43891 
 H                     0.04491  -1.14606   1.7448 
 H                    -1.69284  -1.13066   2.21552 
 H                    -1.21185  -2.44135   0.03093 
 H                    -1.21204   2.44139   0.03096 
 O                     2.0771    0.00007   0.27413 
 C                     0.29205  -0.70507  -1.09983 
 C                     0.29197   0.70506  -1.0998 
 H                    -0.06612  -1.34701  -1.90815 
 H                    -0.0662    1.34698  -1.90813 
 C                     1.42514  -1.1398   -0.23847 
 C                     1.425     1.13987  -0.23842 
 O                     1.88608  -2.21877   0.09784 
 O                     1.8859    2.21887   0.09784 
 
 The following ModRedundant input section has been read:
 B    7   17 D                                                                 
 B   10   16 D                                                                 
 IRC-IRC-IRC-IRC-IRC-IRC-IRC-IRC-IRC-IRC-IRC-IRC-IRC-IRC-IRC-IRC-IRC-IRC
 ------------------------------------------------------------------------
 INPUT DATA FOR L123
 ------------------------------------------------------------------------
 GENERAL PARAMETERS:
 Rxn path following direction = Reverse
 Maximum points per path      =  50
 Step size                    =   0.100 bohr
 Integration scheme           = HPC                                 
    Redo corrector integration= Yes                                 
    Max correction cycles     =  20
 Initial Hessian              = CalcFC
 Hessian evaluation           = Full Hessian always
 ------------------------------------------------------------------------
 IRC-IRC-IRC-IRC-IRC-IRC-IRC-IRC-IRC-IRC-IRC-IRC-IRC-IRC-IRC-IRC-IRC-IRC
                          Input orientation:                          
 ---------------------------------------------------------------------
 Center     Atomic      Atomic             Coordinates (Angstroms)
 Number     Number       Type             X           Y           Z
 ---------------------------------------------------------------------
      1          6           0       -2.306625    0.698367   -0.663488
      2          6           0       -1.370704    1.355510    0.134303
      3          6           0       -1.370613   -1.355521    0.134277
      4          6           0       -2.306537   -0.698424   -0.663522
      5          1           0       -2.915017    1.254610   -1.391052
      6          1           0       -2.914851   -1.254681   -1.391107
      7          6           0       -0.965728    0.760972    1.438937
      8          1           0        0.045205    1.145738    1.744623
      9          1           0       -1.692442    1.130588    2.215808
     10          6           0       -0.965845   -0.761100    1.438905
     11          1           0        0.044910   -1.146059    1.744798
     12          1           0       -1.692840   -1.130660    2.215521
     13          1           0       -1.211846   -2.441350    0.030933
     14          1           0       -1.212041    2.441394    0.030958
     15          8           0        2.077105    0.000065    0.274126
     16          6           0        0.292048   -0.705073   -1.099833
     17          6           0        0.291972    0.705056   -1.099803
     18          1           0       -0.066119   -1.347009   -1.908145
     19          1           0       -0.066203    1.346978   -1.908129
     20          6           0        1.425135   -1.139801   -0.238470
     21          6           0        1.425000    1.139874   -0.238422
     22          8           0        1.886077   -2.218770    0.097843
     23          8           0        1.885896    2.218866    0.097843
 ---------------------------------------------------------------------
                    Distance matrix (angstroms):
                    1          2          3          4          5
     1  C    0.000000
     2  C    1.394366   0.000000
     3  C    2.393951   2.711031   0.000000
     4  C    1.396791   2.393941   1.394351   0.000000
     5  H    1.099498   2.172968   3.394790   2.171149   0.000000
     6  H    2.171121   3.394755   2.172933   1.099476   2.509291
     7  C    2.494417   1.489816   2.519050   2.889280   3.471634
     8  H    3.395621   2.154515   3.294549   3.838071   4.313609
     9  H    2.975631   2.118199   3.258387   3.465969   3.810447
    10  C    2.889254   2.519114   1.489707   2.494310   3.983844
    11  H    3.838159   3.294769   2.154381   3.395539   4.935376
    12  H    3.465655   3.258264   2.118011   2.975288   4.493395
    13  H    3.396849   3.801587   1.102230   2.172189   4.310795
    14  H    2.172214   1.102270   3.801629   3.396863   2.516087
    15  O    4.536941   3.707313   3.707281   4.536892   5.409989
    16  C    2.985489   2.921273   2.170381   2.634968   3.769673
    17  C    2.634980   2.170392   2.921150   2.985355   3.266744
    18  H    3.279116   3.630034   2.423482   2.643714   3.892560
    19  H    2.643732   2.423494   3.629932   3.278996   2.896833
    20  C    4.181571   3.765933   2.828725   3.781648   5.089064
    21  C    3.781618   2.828672   3.765814   4.181437   4.491934
    22  O    5.164113   4.835642   3.369355   4.524283   6.109966
    23  O    4.524243   3.369296   4.835537   5.163986   5.118141
                    6          7          8          9         10
     6  H    0.000000
     7  C    3.983853   0.000000
     8  H    4.935255   1.124044   0.000000
     9  H    4.493732   1.126170   1.800462   0.000000
    10  C    3.471486   1.522072   2.179843   2.170255   0.000000
    11  H    4.313454   2.179841   2.291797   2.902303   1.124006
    12  H    3.810047   2.170264   2.902505   2.261248   1.126157
    13  H    2.516070   3.506838   4.169426   4.214664   2.205933
    14  H    4.310777   2.206104   2.489185   2.592791   3.506978
    15  O    5.409900   3.345833   2.757453   4.388359   3.345987
    16  C    3.266667   3.190085   3.402552   4.278005   2.833836
    17  C    3.769501   2.833750   2.888919   3.887448   3.190103
    18  H    2.896744   4.056580   4.423674   5.078425   3.515045
    19  H    3.892395   3.515025   3.659987   4.438281   4.056598
    20  C    4.491909   3.484660   3.325741   4.571371   2.945129
    21  C    5.088898   2.944941   2.415851   3.967591   3.484719
    22  O    5.118139   4.337071   4.173800   5.339454   3.472277
    23  O    6.109801   3.472139   2.692885   4.298212   4.337173
                   11         12         13         14         15
    11  H    0.000000
    12  H    1.800442   0.000000
    13  H    2.488885   2.592622   0.000000
    14  H    4.169771   4.214624   4.882744   0.000000
    15  O    2.757951   4.388626   4.103273   4.103377   0.000000
    16  C    2.889199   3.887477   2.560271   3.666228   2.360384
    17  C    3.402855   4.277932   3.666047   2.560380   2.360380
    18  H    3.660150   4.438203   2.504056   4.407409   3.342203
    19  H    4.423964   5.078300   4.407254   2.504146   3.342182
    20  C    2.416281   3.967861   2.953011   4.455586   1.409650
    21  C    3.326154   4.571443   4.455410   2.953050   1.409649
    22  O    2.693152   4.298510   3.106629   5.596422   2.234009
    23  O    4.174256   5.339591   5.596257   3.106639   2.233991
                   16         17         18         19         20
    16  C    0.000000
    17  C    1.410129   0.000000
    18  H    1.092581   2.234416   0.000000
    19  H    2.234413   1.092586   2.693987   0.000000
    20  C    1.488227   2.330118   2.248241   3.346030   0.000000
    21  C    2.330116   1.488219   3.346042   2.248222   2.279675
    22  O    2.503325   3.538967   2.931727   4.533198   1.220552
    23  O    3.538954   2.503312   4.533190   2.931689   3.406765
                   21         22         23
    21  C    0.000000
    22  O    3.406781   0.000000
    23  O    1.220542   4.437636   0.000000
 Symmetry turned off by external request.
 Stoichiometry    C10H10O3
 Framework group  C1[X(C10H10O3)]
 Deg. of freedom    63
 Full point group                 C1      NOp   1
 Rotational constants (GHZ):      1.2200507      0.8808777      0.6754200
 Standard basis: VSTO-6G (5D, 7F)
 Integral buffers will be    131072 words long.
 Regular integral format.
 Two-electron integral symmetry is turned off.
    62 basis functions,   372 primitive gaussians,    62 cartesian basis functions
    34 alpha electrons       34 beta electrons
       nuclear repulsion energy       470.5602549966 Hartrees.
 Do NDO integrals.
 One-electron integrals computed using PRISM.
 NBasis=    62 RedAO= F  NBF=    62
 NBsUse=    62 1.00D-04 NBFU=    62
 Simple Huckel Guess.
 Requested convergence on RMS density matrix=1.00D-08 within 128 cycles.
 Requested convergence on MAX density matrix=1.00D-06.
 Requested convergence on             energy=1.00D-06.
 No special actions if energy rises.
 Overlap will be assumed to be unity.
 Keep J ints in memory in canonical form, NReq=899243.
 SCF Done:  E(RAM1) = -0.504198254791E-01 A.U. after   17 cycles
             Convg  =    0.4042D-08             -V/T =  0.9997
 Range of M.O.s used for correlation:     1    62
 NBasis=    62 NAE=    34 NBE=    34 NFC=     0 NFV=     0
 NROrb=     62 NOA=    34 NOB=    34 NVA=    28 NVB=    28
 Symmetrizing basis deriv contribution to polar:
 IMax=3 JMax=2 DiffMx= 0.00D+00
 G2DrvN: will do    24 centers at a time, making    1 passes doing MaxLOS=1.
 Calling FoFCou, ICntrl=  3107 FMM=F I1Cent=   0 AccDes= 0.00D+00.
 FoFDir/FoFCou used for L=0 through L=1.
 End of G2Drv Frequency-dependent properties file   721 does not exist.
 End of G2Drv Frequency-dependent properties file   722 does not exist.
          IDoAtm=11111111111111111111111
          Differentiating once with respect to electric field.
                with respect to dipole field.
          Differentiating once with respect to nuclear coordinates.
          Electric field/nuclear overlap derivatives assumed to be zero.
          Keep J ints in memory in canonical form, NReq=811133.
          There are    72 degrees of freedom in the 1st order CPHF.  IDoFFX=5.
 LinEq1:  Iter=  0 NonCon=    72 RMS=2.63D-01 Max=4.87D+00
 AX will form    72 AO Fock derivatives at one time.
 LinEq1:  Iter=  1 NonCon=    72 RMS=4.14D-02 Max=3.57D-01
 LinEq1:  Iter=  2 NonCon=    72 RMS=9.46D-03 Max=1.23D-01
 LinEq1:  Iter=  3 NonCon=    72 RMS=3.03D-03 Max=5.10D-02
 LinEq1:  Iter=  4 NonCon=    72 RMS=6.10D-04 Max=5.65D-03
 LinEq1:  Iter=  5 NonCon=    72 RMS=8.57D-05 Max=1.06D-03
 LinEq1:  Iter=  6 NonCon=    72 RMS=1.37D-05 Max=1.50D-04
 LinEq1:  Iter=  7 NonCon=    72 RMS=2.10D-06 Max=2.11D-05
 LinEq1:  Iter=  8 NonCon=    51 RMS=2.78D-07 Max=1.61D-06
 LinEq1:  Iter=  9 NonCon=     8 RMS=4.77D-08 Max=5.30D-07
 LinEq1:  Iter= 10 NonCon=     1 RMS=9.40D-09 Max=1.08D-07
 LinEq1:  Iter= 11 NonCon=     0 RMS=1.38D-09 Max=8.71D-09
 Linear equations converged to 1.000D-08 1.000D-07 after    11 iterations.
 Isotropic polarizability for W=    0.000000      101.94 Bohr**3.
 End of Minotr Frequency-dependent properties file   721 does not exist.
 End of Minotr Frequency-dependent properties file   722 does not exist.

 **********************************************************************

            Population analysis using the SCF density.

 **********************************************************************

 Alpha  occ. eigenvalues --   -1.55554  -1.45666  -1.44456  -1.36911  -1.23237
 Alpha  occ. eigenvalues --   -1.19012  -1.18109  -0.97164  -0.89236  -0.86947
 Alpha  occ. eigenvalues --   -0.83226  -0.81028  -0.67967  -0.66424  -0.65438
 Alpha  occ. eigenvalues --   -0.64680  -0.63204  -0.59049  -0.58329  -0.57027
 Alpha  occ. eigenvalues --   -0.55532  -0.54826  -0.54276  -0.52983  -0.52325
 Alpha  occ. eigenvalues --   -0.48019  -0.46964  -0.45537  -0.45530  -0.44546
 Alpha  occ. eigenvalues --   -0.43245  -0.42544  -0.36668  -0.34275
 Alpha virt. eigenvalues --   -0.04045  -0.02012   0.03385   0.05259   0.06310
 Alpha virt. eigenvalues --    0.06701   0.09314   0.10606   0.11564   0.11889
 Alpha virt. eigenvalues --    0.12346   0.12754   0.13249   0.13832   0.14307
 Alpha virt. eigenvalues --    0.14672   0.14740   0.15450   0.15535   0.15770
 Alpha virt. eigenvalues --    0.15896   0.16388   0.17567   0.18171   0.19091
 Alpha virt. eigenvalues --    0.19532   0.22627   0.22979
          Condensed to atoms (all electrons):
              1          2          3          4          5          6
     1  C    4.148966   0.000000   0.000000   0.000000   0.000000   0.000000
     2  C    0.000000   4.080704   0.000000   0.000000   0.000000   0.000000
     3  C    0.000000   0.000000   4.080703   0.000000   0.000000   0.000000
     4  C    0.000000   0.000000   0.000000   4.148970   0.000000   0.000000
     5  H    0.000000   0.000000   0.000000   0.000000   0.859922   0.000000
     6  H    0.000000   0.000000   0.000000   0.000000   0.000000   0.859928
     7  C    0.000000   0.000000   0.000000   0.000000   0.000000   0.000000
     8  H    0.000000   0.000000   0.000000   0.000000   0.000000   0.000000
     9  H    0.000000   0.000000   0.000000   0.000000   0.000000   0.000000
    10  C    0.000000   0.000000   0.000000   0.000000   0.000000   0.000000
    11  H    0.000000   0.000000   0.000000   0.000000   0.000000   0.000000
    12  H    0.000000   0.000000   0.000000   0.000000   0.000000   0.000000
    13  H    0.000000   0.000000   0.000000   0.000000   0.000000   0.000000
    14  H    0.000000   0.000000   0.000000   0.000000   0.000000   0.000000
    15  O    0.000000   0.000000   0.000000   0.000000   0.000000   0.000000
    16  C    0.000000   0.000000   0.000000   0.000000   0.000000   0.000000
    17  C    0.000000   0.000000   0.000000   0.000000   0.000000   0.000000
    18  H    0.000000   0.000000   0.000000   0.000000   0.000000   0.000000
    19  H    0.000000   0.000000   0.000000   0.000000   0.000000   0.000000
    20  C    0.000000   0.000000   0.000000   0.000000   0.000000   0.000000
    21  C    0.000000   0.000000   0.000000   0.000000   0.000000   0.000000
    22  O    0.000000   0.000000   0.000000   0.000000   0.000000   0.000000
    23  O    0.000000   0.000000   0.000000   0.000000   0.000000   0.000000
              7          8          9         10         11         12
     1  C    0.000000   0.000000   0.000000   0.000000   0.000000   0.000000
     2  C    0.000000   0.000000   0.000000   0.000000   0.000000   0.000000
     3  C    0.000000   0.000000   0.000000   0.000000   0.000000   0.000000
     4  C    0.000000   0.000000   0.000000   0.000000   0.000000   0.000000
     5  H    0.000000   0.000000   0.000000   0.000000   0.000000   0.000000
     6  H    0.000000   0.000000   0.000000   0.000000   0.000000   0.000000
     7  C    4.151511   0.000000   0.000000   0.000000   0.000000   0.000000
     8  H    0.000000   0.892510   0.000000   0.000000   0.000000   0.000000
     9  H    0.000000   0.000000   0.897096   0.000000   0.000000   0.000000
    10  C    0.000000   0.000000   0.000000   4.151521   0.000000   0.000000
    11  H    0.000000   0.000000   0.000000   0.000000   0.892506   0.000000
    12  H    0.000000   0.000000   0.000000   0.000000   0.000000   0.897099
    13  H    0.000000   0.000000   0.000000   0.000000   0.000000   0.000000
    14  H    0.000000   0.000000   0.000000   0.000000   0.000000   0.000000
    15  O    0.000000   0.000000   0.000000   0.000000   0.000000   0.000000
    16  C    0.000000   0.000000   0.000000   0.000000   0.000000   0.000000
    17  C    0.000000   0.000000   0.000000   0.000000   0.000000   0.000000
    18  H    0.000000   0.000000   0.000000   0.000000   0.000000   0.000000
    19  H    0.000000   0.000000   0.000000   0.000000   0.000000   0.000000
    20  C    0.000000   0.000000   0.000000   0.000000   0.000000   0.000000
    21  C    0.000000   0.000000   0.000000   0.000000   0.000000   0.000000
    22  O    0.000000   0.000000   0.000000   0.000000   0.000000   0.000000
    23  O    0.000000   0.000000   0.000000   0.000000   0.000000   0.000000
             13         14         15         16         17         18
     1  C    0.000000   0.000000   0.000000   0.000000   0.000000   0.000000
     2  C    0.000000   0.000000   0.000000   0.000000   0.000000   0.000000
     3  C    0.000000   0.000000   0.000000   0.000000   0.000000   0.000000
     4  C    0.000000   0.000000   0.000000   0.000000   0.000000   0.000000
     5  H    0.000000   0.000000   0.000000   0.000000   0.000000   0.000000
     6  H    0.000000   0.000000   0.000000   0.000000   0.000000   0.000000
     7  C    0.000000   0.000000   0.000000   0.000000   0.000000   0.000000
     8  H    0.000000   0.000000   0.000000   0.000000   0.000000   0.000000
     9  H    0.000000   0.000000   0.000000   0.000000   0.000000   0.000000
    10  C    0.000000   0.000000   0.000000   0.000000   0.000000   0.000000
    11  H    0.000000   0.000000   0.000000   0.000000   0.000000   0.000000
    12  H    0.000000   0.000000   0.000000   0.000000   0.000000   0.000000
    13  H    0.861896   0.000000   0.000000   0.000000   0.000000   0.000000
    14  H    0.000000   0.861886   0.000000   0.000000   0.000000   0.000000
    15  O    0.000000   0.000000   6.264543   0.000000   0.000000   0.000000
    16  C    0.000000   0.000000   0.000000   4.205177   0.000000   0.000000
    17  C    0.000000   0.000000   0.000000   0.000000   4.205187   0.000000
    18  H    0.000000   0.000000   0.000000   0.000000   0.000000   0.829378
    19  H    0.000000   0.000000   0.000000   0.000000   0.000000   0.000000
    20  C    0.000000   0.000000   0.000000   0.000000   0.000000   0.000000
    21  C    0.000000   0.000000   0.000000   0.000000   0.000000   0.000000
    22  O    0.000000   0.000000   0.000000   0.000000   0.000000   0.000000
    23  O    0.000000   0.000000   0.000000   0.000000   0.000000   0.000000
             19         20         21         22         23
     1  C    0.000000   0.000000   0.000000   0.000000   0.000000
     2  C    0.000000   0.000000   0.000000   0.000000   0.000000
     3  C    0.000000   0.000000   0.000000   0.000000   0.000000
     4  C    0.000000   0.000000   0.000000   0.000000   0.000000
     5  H    0.000000   0.000000   0.000000   0.000000   0.000000
     6  H    0.000000   0.000000   0.000000   0.000000   0.000000
     7  C    0.000000   0.000000   0.000000   0.000000   0.000000
     8  H    0.000000   0.000000   0.000000   0.000000   0.000000
     9  H    0.000000   0.000000   0.000000   0.000000   0.000000
    10  C    0.000000   0.000000   0.000000   0.000000   0.000000
    11  H    0.000000   0.000000   0.000000   0.000000   0.000000
    12  H    0.000000   0.000000   0.000000   0.000000   0.000000
    13  H    0.000000   0.000000   0.000000   0.000000   0.000000
    14  H    0.000000   0.000000   0.000000   0.000000   0.000000
    15  O    0.000000   0.000000   0.000000   0.000000   0.000000
    16  C    0.000000   0.000000   0.000000   0.000000   0.000000
    17  C    0.000000   0.000000   0.000000   0.000000   0.000000
    18  H    0.000000   0.000000   0.000000   0.000000   0.000000
    19  H    0.829380   0.000000   0.000000   0.000000   0.000000
    20  C    0.000000   3.677302   0.000000   0.000000   0.000000
    21  C    0.000000   0.000000   3.677300   0.000000   0.000000
    22  O    0.000000   0.000000   0.000000   6.263258   0.000000
    23  O    0.000000   0.000000   0.000000   0.000000   6.263255
 Mulliken atomic charges:
              1
     1  C   -0.148966
     2  C   -0.080704
     3  C   -0.080703
     4  C   -0.148970
     5  H    0.140078
     6  H    0.140072
     7  C   -0.151511
     8  H    0.107490
     9  H    0.102904
    10  C   -0.151521
    11  H    0.107494
    12  H    0.102901
    13  H    0.138104
    14  H    0.138114
    15  O   -0.264543
    16  C   -0.205177
    17  C   -0.205187
    18  H    0.170622
    19  H    0.170620
    20  C    0.322698
    21  C    0.322700
    22  O   -0.263258
    23  O   -0.263255
 Sum of Mulliken atomic charges =   0.00000
 Mulliken charges with hydrogens summed into heavy atoms:
              1
     1  C   -0.008889
     2  C    0.057410
     3  C    0.057402
     4  C   -0.008898
     7  C    0.058883
    10  C    0.058874
    15  O   -0.264543
    16  C   -0.034555
    17  C   -0.034567
    20  C    0.322698
    21  C    0.322700
    22  O   -0.263258
    23  O   -0.263255
 Sum of Mulliken charges with hydrogens summed into heavy atoms =   0.00000
 APT atomic charges:
              1
     1  C   -0.157114
     2  C   -0.119414
     3  C   -0.119373
     4  C   -0.157116
     5  H    0.140648
     6  H    0.140641
     7  C   -0.063148
     8  H    0.057103
     9  H    0.058145
    10  C   -0.063215
    11  H    0.057117
    12  H    0.058146
    13  H    0.098360
    14  H    0.098364
    15  O   -0.819605
    16  C   -0.136072
    17  C   -0.136048
    18  H    0.094452
    19  H    0.094440
    20  C    1.155004
    21  C    1.155000
    22  O   -0.718168
    23  O   -0.718166
 Sum of APT charges=  -0.00002
 APT Atomic charges with hydrogens summed into heavy atoms:
              1
     1  C   -0.016466
     2  C   -0.021050
     3  C   -0.021013
     4  C   -0.016475
     5  H    0.000000
     6  H    0.000000
     7  C    0.052100
     8  H    0.000000
     9  H    0.000000
    10  C    0.052047
    11  H    0.000000
    12  H    0.000000
    13  H    0.000000
    14  H    0.000000
    15  O   -0.819605
    16  C   -0.041621
    17  C   -0.041608
    18  H    0.000000
    19  H    0.000000
    20  C    1.155004
    21  C    1.155000
    22  O   -0.718168
    23  O   -0.718166
 Sum of APT charges=  -0.00002
 Charge=              0.0000 electrons
 Dipole moment (field-independent basis, Debye):
    X=             -5.2718    Y=             -0.0001    Z=             -1.7786  Tot=              5.5638
 N-N= 4.705602549966D+02 E-N=-7.441692451131D+02  KE=-1.462534030213D+02
  Exact polarizability: 112.804  -0.002 122.740   7.072   0.000  70.265
 Approx polarizability:  87.610  -0.003 117.869   8.111   0.000  51.676
 Calling FoFJK, ICntrl=    100127 FMM=F ISym2X=0 I1Cent= 0 IOpClX= 0 NMat=1 NMatS=1 NMatT=0.
 -------------------------------------------------------------------
 Center     Atomic                   Forces (Hartrees/Bohr)
 Number     Number              X              Y              Z
 -------------------------------------------------------------------
      1        6           0.000001262   -0.000024855   -0.000000907
      2        6           0.000003064   -0.000005629    0.000037083
      3        6          -0.000009690   -0.000014985   -0.000022365
      4        6          -0.000017564    0.000037880   -0.000009573
      5        1           0.000003397   -0.000001848    0.000008672
      6        1          -0.000005129   -0.000006455   -0.000003168
      7        6           0.000001026    0.000022348   -0.000021814
      8        1          -0.000016949    0.000000852   -0.000000458
      9        1           0.000000768   -0.000000764   -0.000010511
     10        6           0.000008946    0.000018922    0.000025376
     11        1           0.000009666   -0.000002980    0.000008748
     12        1          -0.000003859    0.000002267    0.000009375
     13        1           0.000004546   -0.000015619   -0.000011511
     14        1           0.000005371   -0.000016909   -0.000000568
     15        8          -0.000004919   -0.000005868   -0.000020748
     16        6           0.000031462    0.000017707    0.000012236
     17        6           0.000031404   -0.000010402    0.000002645
     18        1           0.000000244    0.000004089    0.000002008
     19        1          -0.000001680   -0.000005512    0.000004609
     20        6          -0.000014414   -0.000001927    0.000012309
     21        6          -0.000005839   -0.000013136   -0.000006717
     22        8          -0.000013254    0.000044431   -0.000012480
     23        8          -0.000007860   -0.000021606   -0.000002239
 -------------------------------------------------------------------
 Cartesian Forces:  Max     0.000044431 RMS     0.000014689
 IRC-IRC-IRC-IRC-IRC-IRC-IRC-IRC-IRC-IRC-IRC-IRC-IRC-IRC-IRC-IRC-IRC-IRC
          ******** Start new reaction path calculation ********
 Supplied step size of   0.1000 bohr.
    Integration on MW PES will use step size of   0.2654 sqrt(amu)*bohr.
 Point Number:   0          Path Number:   1
 Calculating another point on the path.
 IRC-IRC-IRC-IRC-IRC-IRC-IRC-IRC-IRC-IRC-IRC-IRC-IRC-IRC-IRC-IRC-IRC-IRC
                          Input orientation:                          
 ---------------------------------------------------------------------
 Center     Atomic      Atomic             Coordinates (Angstroms)
 Number     Number       Type             X           Y           Z
 ---------------------------------------------------------------------
      1          6           0       -2.374339    0.693458   -0.658193
      2          6           0       -1.418844    1.351579    0.133811
      3          6           0       -1.418752   -1.351594    0.133785
      4          6           0       -2.374251   -0.693520   -0.658227
      5          1           0       -2.989517    1.257397   -1.374025
      6          1           0       -2.989354   -1.257476   -1.374076
      7          6           0       -1.030884    0.761037    1.446887
      8          1           0       -0.020607    1.145084    1.756564
      9          1           0       -1.760847    1.131957    2.219339
     10          6           0       -1.031002   -0.761171    1.446854
     11          1           0       -0.020905   -1.145412    1.756740
     12          1           0       -1.761247   -1.132035    2.219047
     13          1           0       -1.274879   -2.440363    0.036064
     14          1           0       -1.275068    2.440400    0.036086
     15          8           0        2.011566    0.000063    0.280503
     16          6           0        0.214066   -0.711691   -1.079891
     17          6           0        0.213991    0.711670   -1.079862
     18          1           0       -0.116138   -1.340865   -1.911544
     19          1           0       -0.116218    1.340831   -1.911528
     20          6           0        1.359268   -1.139790   -0.231192
     21          6           0        1.359134    1.139858   -0.231144
     22          8           0        1.821474   -2.218562    0.105515
     23          8           0        1.821293    2.218653    0.105516
 ---------------------------------------------------------------------
                    Distance matrix (angstroms):
                    1          2          3          4          5
     1  C    0.000000
     2  C    1.404765   0.000000
     3  C    2.392199   2.703174   0.000000
     4  C    1.386978   2.392187   1.404750   0.000000
     5  H    1.099494   2.179324   3.398181   2.167256   0.000000
     6  H    2.167228   3.398146   2.179288   1.099472   2.514874
     7  C    2.498160   1.491114   2.517517   2.889961   3.469894
     8  H    3.402216   2.151984   3.289623   3.840745   4.315973
     9  H    2.974701   2.124765   3.261072   3.462516   3.799688
    10  C    2.889935   2.517581   1.491006   2.498051   3.983435
    11  H    3.840832   3.289847   2.151852   3.402133   4.938404
    12  H    3.462198   3.260949   2.124577   2.974352   4.486446
    13  H    3.392881   3.795933   1.102573   2.177641   4.312977
    14  H    2.177666   1.102612   3.795973   3.392894   2.515401
    15  O    4.538514   3.689963   3.689930   4.538465   5.415642
    16  C    2.975251   2.897681   2.132740   2.622503   3.771839
    17  C    2.622516   2.132753   2.897558   2.975119   3.262946
    18  H    3.287678   3.623503   2.424931   2.662506   3.911036
    19  H    2.662527   2.424946   3.623404   3.287562   2.924332
    20  C    4.181262   3.749407   2.809887   3.784268   5.095538
    21  C    3.784239   2.809836   3.749288   4.181129   4.497861
    22  O    5.164103   4.821449   3.354325   4.529146   6.116941
    23  O    4.529106   3.354267   4.821344   5.163976   5.124153
                    6          7          8          9         10
     6  H    0.000000
     7  C    3.983445   0.000000
     8  H    4.938285   1.124300   0.000000
     9  H    4.486786   1.125660   1.800769   0.000000
    10  C    3.469742   1.522208   2.179593   2.171023   0.000000
    11  H    4.315815   2.179590   2.290496   2.903068   1.124262
    12  H    3.799278   2.171033   2.903272   2.263992   1.125647
    13  H    2.515381   3.506981   4.169982   4.214775   2.206692
    14  H    4.312960   2.206863   2.492300   2.591254   3.507120
    15  O    5.415555   3.346048   2.760355   4.389917   3.346202
    16  C    3.262872   3.178590   3.398259   4.264298   2.817283
    17  C    3.771673   2.817199   2.878923   3.867991   3.178609
    18  H    2.924243   4.066179   4.432164   5.087643   3.528719
    19  H    3.910878   3.528701   3.674556   4.451123   4.066199
    20  C    4.497839   3.484526   3.328044   4.571768   2.944925
    21  C    5.095376   2.944737   2.419648   3.967268   3.484585
    22  O    5.124153   4.337423   4.175325   5.341091   3.472722
    23  O    6.116780   3.472583   2.696499   4.298940   4.337525
                   11         12         13         14         15
    11  H    0.000000
    12  H    1.800749   0.000000
    13  H    2.492002   2.591079   0.000000
    14  H    4.170326   4.214734   4.880763   0.000000
    15  O    2.760856   4.390184   4.100749   4.100847   0.000000
    16  C    2.879201   3.868015   2.539807   3.660410   2.363952
    17  C    3.398564   4.264224   3.660237   2.539910   2.363948
    18  H    3.674721   4.451042   2.518879   4.408440   3.336207
    19  H    4.432458   5.087518   4.408292   2.518965   3.336184
    20  C    2.420079   3.967537   2.949855   4.452968   1.409464
    21  C    3.328461   4.571839   4.452798   2.949888   1.409462
    22  O    2.696767   4.299238   3.105063   5.594579   2.233618
    23  O    4.175784   5.341228   5.594420   3.105067   2.233600
                   16         17         18         19         20
    16  C    0.000000
    17  C    1.423361   0.000000
    18  H    1.093865   2.239102   0.000000
    19  H    2.239097   1.093870   2.681696   0.000000
    20  C    1.488303   2.336622   2.245181   3.339771   0.000000
    21  C    2.336618   1.488294   3.339784   2.245160   2.279648
    22  O    2.501921   3.546178   2.931419   4.526853   1.220965
    23  O    3.546165   2.501907   4.526846   2.931380   3.406755
                   21         22         23
    21  C    0.000000
    22  O    3.406771   0.000000
    23  O    1.220955   4.437215   0.000000
 Symmetry turned off by external request.
 Stoichiometry    C10H10O3
 Framework group  C1[X(C10H10O3)]
 Deg. of freedom    63
 Full point group                 C1      NOp   1
 Rotational constants (GHZ):      1.2224906      0.8831568      0.6764594
 Standard basis: VSTO-6G (5D, 7F)
 Integral buffers will be    131072 words long.
 Regular integral format.
 Two-electron integral symmetry is turned off.
    62 basis functions,   372 primitive gaussians,    62 cartesian basis functions
    34 alpha electrons       34 beta electrons
       nuclear repulsion energy       470.7807383390 Hartrees.
 Do NDO integrals.
 One-electron integrals computed using PRISM.
 NBasis=    62 RedAO= F  NBF=    62
 NBsUse=    62 1.00D-04 NBFU=    62
 Initial guess read from the read-write file.
 B after Tr=     0.000000    0.000000    0.000000
         Rot=    1.000000    0.000000    0.000000    0.000000 Ang=   0.00 deg.
 Requested convergence on RMS density matrix=1.00D-08 within 128 cycles.
 Requested convergence on MAX density matrix=1.00D-06.
 Requested convergence on             energy=1.00D-06.
 No special actions if energy rises.
 Overlap will be assumed to be unity.
 Keep J ints in memory in canonical form, NReq=899243.
 SCF Done:  E(RAM1) = -0.513497650754E-01 A.U. after   14 cycles
             Convg  =    0.3903D-08             -V/T =  0.9996
 Range of M.O.s used for correlation:     1    62
 NBasis=    62 NAE=    34 NBE=    34 NFC=     0 NFV=     0
 NROrb=     62 NOA=    34 NOB=    34 NVA=    28 NVB=    28
 Symmetrizing basis deriv contribution to polar:
 IMax=3 JMax=2 DiffMx= 0.00D+00
 G2DrvN: will do    24 centers at a time, making    1 passes doing MaxLOS=1.
 Calling FoFCou, ICntrl=  3107 FMM=F I1Cent=   0 AccDes= 0.00D+00.
 FoFDir/FoFCou used for L=0 through L=1.
 End of G2Drv Frequency-dependent properties file   721 does not exist.
 End of G2Drv Frequency-dependent properties file   722 does not exist.
          IDoAtm=11111111111111111111111
          Differentiating once with respect to electric field.
                with respect to dipole field.
          Differentiating once with respect to nuclear coordinates.
          Electric field/nuclear overlap derivatives assumed to be zero.
          Keep J ints in memory in canonical form, NReq=811133.
          There are    72 degrees of freedom in the 1st order CPHF.  IDoFFX=5.
 LinEq1:  Iter=  0 NonCon=    72 RMS=2.58D-01 Max=4.92D+00
 AX will form    72 AO Fock derivatives at one time.
 LinEq1:  Iter=  1 NonCon=    72 RMS=3.96D-02 Max=3.12D-01
 LinEq1:  Iter=  2 NonCon=    72 RMS=9.49D-03 Max=1.14D-01
 LinEq1:  Iter=  3 NonCon=    72 RMS=2.79D-03 Max=4.75D-02
 LinEq1:  Iter=  4 NonCon=    72 RMS=5.76D-04 Max=6.38D-03
 LinEq1:  Iter=  5 NonCon=    72 RMS=8.08D-05 Max=1.08D-03
 LinEq1:  Iter=  6 NonCon=    72 RMS=1.33D-05 Max=1.54D-04
 LinEq1:  Iter=  7 NonCon=    72 RMS=2.15D-06 Max=2.20D-05
 LinEq1:  Iter=  8 NonCon=    55 RMS=3.02D-07 Max=2.30D-06
 LinEq1:  Iter=  9 NonCon=     8 RMS=5.06D-08 Max=5.99D-07
 LinEq1:  Iter= 10 NonCon=     0 RMS=8.63D-09 Max=7.37D-08
 Linear equations converged to 1.000D-08 1.000D-07 after    10 iterations.
 Isotropic polarizability for W=    0.000000      102.14 Bohr**3.
 End of Minotr Frequency-dependent properties file   721 does not exist.
 End of Minotr Frequency-dependent properties file   722 does not exist.
 Calling FoFJK, ICntrl=    100127 FMM=F ISym2X=0 I1Cent= 0 IOpClX= 0 NMat=1 NMatS=1 NMatT=0.
 -------------------------------------------------------------------
 Center     Atomic                   Forces (Hartrees/Bohr)
 Number     Number              X              Y              Z
 -------------------------------------------------------------------
      1        6          -0.001890967   -0.002737526   -0.001659420
      2        6           0.010353617   -0.002196189   -0.004888818
      3        6           0.010341774    0.002175972   -0.004948402
      4        6          -0.001909935    0.002750129   -0.001667704
      5        1          -0.000446570    0.000103656    0.000567090
      6        1          -0.000455215   -0.000112078    0.000555471
      7        6          -0.000219358    0.000089591    0.000133350
      8        1          -0.000073877   -0.000038556    0.000183457
      9        1          -0.000142527    0.000057112   -0.000216132
     10        6          -0.000211909   -0.000048732    0.000179795
     11        1          -0.000047404    0.000036343    0.000192702
     12        1          -0.000147236   -0.000055627   -0.000196489
     13        1           0.000015763    0.000075270   -0.000085954
     14        1           0.000016889   -0.000107825   -0.000075173
     15        8          -0.000485860   -0.000005861   -0.001059852
     16        6          -0.008038905   -0.004791655    0.006995852
     17        6          -0.008038770    0.004799197    0.006985704
     18        1           0.000841799    0.000571666   -0.000239892
     19        1           0.000840047   -0.000572971   -0.000237282
     20        6          -0.000348929   -0.000055496   -0.000171984
     21        6          -0.000340072    0.000040576   -0.000191043
     22        8           0.000191029    0.000281032   -0.000082847
     23        8           0.000196616   -0.000258031   -0.000072430
 -------------------------------------------------------------------
 Cartesian Forces:  Max     0.010353617 RMS     0.002895359
 IRC-IRC-IRC-IRC-IRC-IRC-IRC-IRC-IRC-IRC-IRC-IRC-IRC-IRC-IRC-IRC-IRC-IRC
 Pt  1 Step number   1 out of a maximum of  20
 CORRECTOR INTEGRATION CONVERGENCE:
   Recorrection delta-x convergence threshold:    0.010000
   Delta-x Convergence Met
 Point Number:   1          Path Number:   1
   CHANGE IN THE REACTION COORDINATE =    0.26538
   NET REACTION COORDINATE UP TO THIS POINT =    0.26538
  # OF POINTS ALONG THE PATH =   1
  # OF STEPS =   1

 Calculating another point on the path.
 IRC-IRC-IRC-IRC-IRC-IRC-IRC-IRC-IRC-IRC-IRC-IRC-IRC-IRC-IRC-IRC-IRC-IRC
                          Input orientation:                          
 ---------------------------------------------------------------------
 Center     Atomic      Atomic             Coordinates (Angstroms)
 Number     Number       Type             X           Y           Z
 ---------------------------------------------------------------------
      1          6           0       -2.377300    0.688814   -0.660763
      2          6           0       -1.401955    1.347831    0.125647
      3          6           0       -1.401870   -1.347881    0.125581
      4          6           0       -2.377237   -0.688877   -0.660812
      5          1           0       -2.999427    1.260400   -1.364028
      6          1           0       -2.999298   -1.260474   -1.364126
      7          6           0       -1.031245    0.761126    1.447098
      8          1           0       -0.021527    1.144363    1.760325
      9          1           0       -1.763962    1.133305    2.215437
     10          6           0       -1.031346   -0.761239    1.447098
     11          1           0       -0.021744   -1.144622    1.760516
     12          1           0       -1.764295   -1.133331    2.215259
     13          1           0       -1.274535   -2.439663    0.034502
     14          1           0       -1.274675    2.439622    0.034602
     15          8           0        2.010994    0.000059    0.279230
     16          6           0        0.201023   -0.718872   -1.067896
     17          6           0        0.200955    0.718856   -1.067878
     18          1           0       -0.101685   -1.333851   -1.921447
     19          1           0       -0.101798    1.333822   -1.921421
     20          6           0        1.358640   -1.139760   -0.231598
     21          6           0        1.358526    1.139827   -0.231571
     22          8           0        1.821775   -2.218329    0.105465
     23          8           0        1.821595    2.218430    0.105472
 ---------------------------------------------------------------------
                    Distance matrix (angstroms):
                    1          2          3          4          5
     1  C    0.000000
     2  C    1.415643   0.000000
     3  C    2.391219   2.695712   0.000000
     4  C    1.377690   2.391207   1.415642   0.000000
     5  H    1.099243   2.186022   3.402096   2.163635   0.000000
     6  H    2.163637   3.402086   2.186011   1.099243   2.520875
     7  C    2.502033   1.492609   2.516283   2.890932   3.467772
     8  H    3.408645   2.149221   3.284663   3.843441   4.317746
     9  H    2.974270   2.131734   3.264183   3.459662   3.788812
    10  C    2.890904   2.516299   1.492596   2.501988   3.982813
    11  H    3.843530   3.284829   2.149204   3.408648   4.941003
    12  H    3.459406   3.264036   2.131699   2.974059   4.479598
    13  H    3.389226   3.790733   1.102949   2.182811   4.315276
    14  H    2.182807   1.102949   3.790730   3.389210   2.514260
    15  O    4.540386   3.672642   3.672628   4.540362   5.421539
    16  C    2.965651   2.874951   2.095067   2.610372   3.774665
    17  C    2.610373   2.095098   2.874856   2.965550   3.259359
    18  H    3.295288   3.615621   2.425078   2.680173   3.929092
    19  H    2.680151   2.425097   3.615514   3.295158   2.951666
    20  C    4.181520   3.733178   2.791291   3.787386   5.102540
    21  C    3.787350   2.791259   3.733100   4.181427   4.504304
    22  O    5.164380   4.807322   3.339157   4.534105   6.124130
    23  O    4.534045   3.339105   4.807255   5.164282   5.130254
                    6          7          8          9         10
     6  H    0.000000
     7  C    3.982848   0.000000
     8  H    4.940906   1.124505   0.000000
     9  H    4.479900   1.125050   1.800924   0.000000
    10  C    3.467716   1.522365   2.179258   2.171721   0.000000
    11  H    4.317713   2.179265   2.288985   2.903658   1.124504
    12  H    3.788588   2.171727   2.903807   2.266636   1.125051
    13  H    2.514250   3.507088   4.170580   4.214513   2.207187
    14  H    4.315261   2.207204   2.495234   2.588803   3.507116
    15  O    5.421494   3.346395   2.763009   4.391291   3.346539
    16  C    3.259316   3.167660   3.394113   4.251117   2.801022
    17  C    3.774537   2.800930   2.868673   3.848743   3.167705
    18  H    2.951636   4.074322   4.438853   5.095472   3.541081
    19  H    3.928926   3.541013   3.687491   4.462801   4.074342
    20  C    4.504311   3.484672   3.330141   4.572248   2.945052
    21  C    5.102427   2.944885   2.423266   3.967093   3.484748
    22  O    5.130296   4.337840   4.176604   5.342560   3.473239
    23  O    6.124010   3.473095   2.699862   4.299496   4.337933
                   11         12         13         14         15
    11  H    0.000000
    12  H    1.800945   0.000000
    13  H    2.495144   2.588836   0.000000
    14  H    4.170781   4.214378   4.879285   0.000000
    15  O    2.763427   4.391537   4.099615   4.099626   0.000000
    16  C    2.868938   3.848813   2.520650   3.656401   2.368038
    17  C    3.394401   4.251094   3.656304   2.520711   2.368040
    18  H    3.687690   4.462827   2.534588   4.409210   3.329521
    19  H    4.439117   5.095377   4.409098   2.534652   3.329517
    20  C    2.423634   3.967351   2.948587   4.451649   1.409149
    21  C    3.330505   4.572334   4.451579   2.948570   1.409150
    22  O    2.700112   4.299809   3.105022   5.593705   2.233214
    23  O    4.176983   5.342669   5.593647   3.104969   2.233211
                   16         17         18         19         20
    16  C    0.000000
    17  C    1.437728   0.000000
    18  H    1.094706   2.243608   0.000000
    19  H    2.243604   1.094705   2.667673   0.000000
    20  C    1.488831   2.343939   2.241832   3.332715   0.000000
    21  C    2.343931   1.488824   3.332713   2.241824   2.279587
    22  O    2.500397   3.553991   2.930934   4.519533   1.221236
    23  O    3.553981   2.500389   4.519525   2.930915   3.406668
                   21         22         23
    21  C    0.000000
    22  O    3.406670   0.000000
    23  O    1.221235   4.436759   0.000000
 Symmetry turned off by external request.
 Stoichiometry    C10H10O3
 Framework group  C1[X(C10H10O3)]
 Deg. of freedom    63
 Full point group                 C1      NOp   1
 Rotational constants (GHZ):      1.2247839      0.8853071      0.6773943
 Standard basis: VSTO-6G (5D, 7F)
 Integral buffers will be    131072 words long.
 Regular integral format.
 Two-electron integral symmetry is turned off.
    62 basis functions,   372 primitive gaussians,    62 cartesian basis functions
    34 alpha electrons       34 beta electrons
       nuclear repulsion energy       470.9875752367 Hartrees.
 Do NDO integrals.
 One-electron integrals computed using PRISM.
 NBasis=    62 RedAO= F  NBF=    62
 NBsUse=    62 1.00D-04 NBFU=    62
 Initial guess read from the read-write file.
 B after Tr=     0.000000    0.000000    0.000000
         Rot=    1.000000    0.000000    0.000000    0.000000 Ang=   0.00 deg.
 Requested convergence on RMS density matrix=1.00D-08 within 128 cycles.
 Requested convergence on MAX density matrix=1.00D-06.
 Requested convergence on             energy=1.00D-06.
 No special actions if energy rises.
 Overlap will be assumed to be unity.
 Keep J ints in memory in canonical form, NReq=899243.
 SCF Done:  E(RAM1) = -0.541874358510E-01 A.U. after   14 cycles
             Convg  =    0.3783D-08             -V/T =  0.9996
 Range of M.O.s used for correlation:     1    62
 NBasis=    62 NAE=    34 NBE=    34 NFC=     0 NFV=     0
 NROrb=     62 NOA=    34 NOB=    34 NVA=    28 NVB=    28
 Symmetrizing basis deriv contribution to polar:
 IMax=3 JMax=2 DiffMx= 0.00D+00
 G2DrvN: will do    24 centers at a time, making    1 passes doing MaxLOS=1.
 Calling FoFCou, ICntrl=  3107 FMM=F I1Cent=   0 AccDes= 0.00D+00.
 FoFDir/FoFCou used for L=0 through L=1.
 End of G2Drv Frequency-dependent properties file   721 does not exist.
 End of G2Drv Frequency-dependent properties file   722 does not exist.
          IDoAtm=11111111111111111111111
          Differentiating once with respect to electric field.
                with respect to dipole field.
          Differentiating once with respect to nuclear coordinates.
          Electric field/nuclear overlap derivatives assumed to be zero.
          Keep J ints in memory in canonical form, NReq=811133.
          There are    72 degrees of freedom in the 1st order CPHF.  IDoFFX=5.
 LinEq1:  Iter=  0 NonCon=    72 RMS=2.51D-01 Max=4.78D+00
 AX will form    72 AO Fock derivatives at one time.
 LinEq1:  Iter=  1 NonCon=    72 RMS=3.72D-02 Max=2.47D-01
 LinEq1:  Iter=  2 NonCon=    72 RMS=9.01D-03 Max=1.01D-01
 LinEq1:  Iter=  3 NonCon=    72 RMS=2.27D-03 Max=3.56D-02
 LinEq1:  Iter=  4 NonCon=    72 RMS=4.86D-04 Max=6.51D-03
 LinEq1:  Iter=  5 NonCon=    72 RMS=7.38D-05 Max=9.60D-04
 LinEq1:  Iter=  6 NonCon=    72 RMS=1.25D-05 Max=1.35D-04
 LinEq1:  Iter=  7 NonCon=    72 RMS=2.01D-06 Max=2.04D-05
 LinEq1:  Iter=  8 NonCon=    53 RMS=2.87D-07 Max=2.25D-06
 LinEq1:  Iter=  9 NonCon=     8 RMS=4.91D-08 Max=5.86D-07
 LinEq1:  Iter= 10 NonCon=     0 RMS=8.35D-09 Max=6.99D-08
 Linear equations converged to 1.000D-08 1.000D-07 after    10 iterations.
 Isotropic polarizability for W=    0.000000      101.34 Bohr**3.
 End of Minotr Frequency-dependent properties file   721 does not exist.
 End of Minotr Frequency-dependent properties file   722 does not exist.
 Calling FoFJK, ICntrl=    100127 FMM=F ISym2X=0 I1Cent= 0 IOpClX= 0 NMat=1 NMatS=1 NMatT=0.
 -------------------------------------------------------------------
 Center     Atomic                   Forces (Hartrees/Bohr)
 Number     Number              X              Y              Z
 -------------------------------------------------------------------
      1        6          -0.003299687   -0.004531516   -0.002923398
      2        6           0.020259006   -0.004688908   -0.010315356
      3        6           0.020256098    0.004680822   -0.010322120
      4        6          -0.003306709    0.004528878   -0.002927755
      5        1          -0.000970542    0.000271581    0.001100638
      6        1          -0.000971645   -0.000271003    0.001099641
      7        6          -0.000357705    0.000097433    0.000175811
      8        1          -0.000105806   -0.000087352    0.000398284
      9        1          -0.000320390    0.000144027   -0.000440600
     10        6          -0.000350466   -0.000094065    0.000177706
     11        1          -0.000104204    0.000089293    0.000397361
     12        1          -0.000318030   -0.000143459   -0.000438442
     13        1           0.000039325    0.000165882   -0.000157386
     14        1           0.000040586   -0.000166598   -0.000156292
     15        8          -0.000922468   -0.000001004   -0.002176899
     16        6          -0.016024419   -0.008498693    0.014361544
     17        6          -0.016018424    0.008499844    0.014356589
     18        1           0.001483447    0.000922534   -0.000662525
     19        1           0.001482569   -0.000921708   -0.000663055
     20        6          -0.000747608   -0.000079315   -0.000295817
     21        6          -0.000737792    0.000080148   -0.000304726
     22        8           0.000497298    0.000448716   -0.000143228
     23        8           0.000497565   -0.000445538   -0.000139973
 -------------------------------------------------------------------
 Cartesian Forces:  Max     0.020259006 RMS     0.005708450
 IRC-IRC-IRC-IRC-IRC-IRC-IRC-IRC-IRC-IRC-IRC-IRC-IRC-IRC-IRC-IRC-IRC-IRC
 Pt  2 Step number   1 out of a maximum of  20
 CORRECTOR INTEGRATION CONVERGENCE:
   Recorrection delta-x convergence threshold:    0.010000
   Delta-x Convergence Met
 Point Number:   2          Path Number:   1
   CHANGE IN THE REACTION COORDINATE =    0.26529
   NET REACTION COORDINATE UP TO THIS POINT =    0.53067
  # OF POINTS ALONG THE PATH =   2
  # OF STEPS =   1

 Calculating another point on the path.
 IRC-IRC-IRC-IRC-IRC-IRC-IRC-IRC-IRC-IRC-IRC-IRC-IRC-IRC-IRC-IRC-IRC-IRC
                          Input orientation:                          
 ---------------------------------------------------------------------
 Center     Atomic      Atomic             Coordinates (Angstroms)
 Number     Number       Type             X           Y           Z
 ---------------------------------------------------------------------
      1          6           0       -2.379975    0.685002   -0.663126
      2          6           0       -1.385131    1.343897    0.117020
      3          6           0       -1.385048   -1.343950    0.116951
      4          6           0       -2.379916   -0.685067   -0.663177
      5          1           0       -3.009555    1.263544   -1.353445
      6          1           0       -3.009433   -1.263613   -1.353549
      7          6           0       -1.031518    0.761189    1.447148
      8          1           0       -0.022505    1.143531    1.764299
      9          1           0       -1.767291    1.134822    2.210940
     10          6           0       -1.031614   -0.761301    1.447148
     11          1           0       -0.022710   -1.143777    1.764481
     12          1           0       -1.767604   -1.134845    2.210776
     13          1           0       -1.273987   -2.438539    0.032933
     14          1           0       -1.274117    2.438493    0.033039
     15          8           0        2.010443    0.000059    0.277838
     16          6           0        0.187766   -0.725678   -1.055726
     17          6           0        0.187702    0.725663   -1.055712
     18          1           0       -0.088282   -1.326269   -1.929716
     19          1           0       -0.088399    1.326245   -1.929691
     20          6           0        1.357967   -1.139779   -0.231785
     21          6           0        1.357861    1.139846   -0.231764
     22          8           0        1.822116   -2.218073    0.105368
     23          8           0        1.821936    2.218175    0.105377
 ---------------------------------------------------------------------
                    Distance matrix (angstroms):
                    1          2          3          4          5
     1  C    0.000000
     2  C    1.425653   0.000000
     3  C    2.390617   2.687847   0.000000
     4  C    1.370069   2.390606   1.425654   0.000000
     5  H    1.098919   2.192596   3.405894   2.161018   0.000000
     6  H    2.161019   3.405883   2.192591   1.098918   2.527157
     7  C    2.505473   1.494600   2.515158   2.891938   3.465301
     8  H    3.414719   2.147190   3.279916   3.846271   4.319398
     9  H    2.972873   2.138752   3.267295   3.456568   3.776855
    10  C    2.891907   2.515168   1.494597   2.505435   3.981905
    11  H    3.846350   3.280067   2.147182   3.414727   4.943471
    12  H    3.456320   3.267148   2.138732   2.972681   4.471955
    13  H    3.385885   3.785003   1.103412   2.186850   4.317367
    14  H    2.186846   1.103412   3.785000   3.385872   2.512884
    15  O    4.542063   3.655364   3.655353   4.542044   5.427509
    16  C    2.955918   2.851750   2.056982   2.597833   3.777367
    17  C    2.597835   2.057017   2.851663   2.955826   3.255827
    18  H    3.301715   3.605653   2.422965   2.695709   3.946271
    19  H    2.695682   2.422984   3.605549   3.301587   2.978110
    20  C    4.181877   3.716840   2.772622   3.790071   5.109729
    21  C    3.790036   2.772596   3.716772   4.181793   4.510852
    22  O    5.164881   4.793141   3.324173   4.538485   6.131463
    23  O    4.538422   3.324121   4.793080   5.164789   5.136417
                    6          7          8          9         10
     6  H    0.000000
     7  C    3.981944   0.000000
     8  H    4.943386   1.124668   0.000000
     9  H    4.472248   1.124430   1.801067   0.000000
    10  C    3.465255   1.522489   2.178823   2.172529   0.000000
    11  H    4.319374   2.178827   2.287308   2.904291   1.124667
    12  H    3.776656   2.172532   2.904430   2.269668   1.124431
    13  H    2.512878   3.506716   4.170739   4.213784   2.207233
    14  H    4.317353   2.207239   2.498143   2.585736   3.506735
    15  O    5.427472   3.346660   2.765858   4.392704   3.346799
    16  C    3.255789   3.156233   3.389793   4.237313   2.784337
    17  C    3.777248   2.784254   2.858542   3.828894   3.156280
    18  H    2.978089   4.080488   4.444096   5.101086   3.551376
    19  H    3.946105   3.551310   3.699093   4.472152   4.080507
    20  C    4.510862   3.484556   3.332201   4.572522   2.944853
    21  C    5.109626   2.944699   2.426868   3.966535   3.484636
    22  O    5.136468   4.338156   4.177926   5.344079   3.473663
    23  O    6.131349   3.473523   2.703487   4.299954   4.338245
                   11         12         13         14         15
    11  H    0.000000
    12  H    1.801087   0.000000
    13  H    2.498072   2.585783   0.000000
    14  H    4.170919   4.213645   4.877032   0.000000
    15  O    2.766257   4.392937   4.098075   4.098076   0.000000
    16  C    2.858789   3.828958   2.501158   3.651642   2.372180
    17  C    3.390069   4.237294   3.651556   2.501216   2.372181
    18  H    3.699283   4.472184   2.548535   4.408179   3.322211
    19  H    4.444348   5.100995   4.408073   2.548594   3.322212
    20  C    2.427213   3.966778   2.946869   4.449947   1.408783
    21  C    3.332551   4.572608   4.449890   2.946848   1.408784
    22  O    2.703729   4.300257   3.104788   5.592450   2.232783
    23  O    4.178285   5.344179   5.592403   3.104726   2.232783
                   16         17         18         19         20
    16  C    0.000000
    17  C    1.451341   0.000000
    18  H    1.095797   2.247326   0.000000
    19  H    2.247325   1.095796   2.652514   0.000000
    20  C    1.489875   2.351223   2.238166   3.325076   0.000000
    21  C    2.351215   1.489868   3.325070   2.238161   2.279625
    22  O    2.499296   3.561601   2.930274   4.511510   1.221403
    23  O    3.561593   2.499288   4.511499   2.930259   3.406582
                   21         22         23
    21  C    0.000000
    22  O    3.406583   0.000000
    23  O    1.221403   4.436248   0.000000
 Symmetry turned off by external request.
 Stoichiometry    C10H10O3
 Framework group  C1[X(C10H10O3)]
 Deg. of freedom    63
 Full point group                 C1      NOp   1
 Rotational constants (GHZ):      1.2272309      0.8875449      0.6783356
 Standard basis: VSTO-6G (5D, 7F)
 Integral buffers will be    131072 words long.
 Regular integral format.
 Two-electron integral symmetry is turned off.
    62 basis functions,   372 primitive gaussians,    62 cartesian basis functions
    34 alpha electrons       34 beta electrons
       nuclear repulsion energy       471.2152510071 Hartrees.
 Do NDO integrals.
 One-electron integrals computed using PRISM.
 NBasis=    62 RedAO= F  NBF=    62
 NBsUse=    62 1.00D-04 NBFU=    62
 Initial guess read from the read-write file.
 B after Tr=     0.000000    0.000000    0.000000
         Rot=    1.000000    0.000000    0.000000    0.000000 Ang=   0.00 deg.
 Requested convergence on RMS density matrix=1.00D-08 within 128 cycles.
 Requested convergence on MAX density matrix=1.00D-06.
 Requested convergence on             energy=1.00D-06.
 No special actions if energy rises.
 Overlap will be assumed to be unity.
 Keep J ints in memory in canonical form, NReq=899243.
 SCF Done:  E(RAM1) = -0.587020886505E-01 A.U. after   13 cycles
             Convg  =    0.9016D-08             -V/T =  0.9996
 Range of M.O.s used for correlation:     1    62
 NBasis=    62 NAE=    34 NBE=    34 NFC=     0 NFV=     0
 NROrb=     62 NOA=    34 NOB=    34 NVA=    28 NVB=    28
 Symmetrizing basis deriv contribution to polar:
 IMax=3 JMax=2 DiffMx= 0.00D+00
 G2DrvN: will do    24 centers at a time, making    1 passes doing MaxLOS=1.
 Calling FoFCou, ICntrl=  3107 FMM=F I1Cent=   0 AccDes= 0.00D+00.
 FoFDir/FoFCou used for L=0 through L=1.
 End of G2Drv Frequency-dependent properties file   721 does not exist.
 End of G2Drv Frequency-dependent properties file   722 does not exist.
          IDoAtm=11111111111111111111111
          Differentiating once with respect to electric field.
                with respect to dipole field.
          Differentiating once with respect to nuclear coordinates.
          Electric field/nuclear overlap derivatives assumed to be zero.
          Keep J ints in memory in canonical form, NReq=811133.
          There are    72 degrees of freedom in the 1st order CPHF.  IDoFFX=5.
 LinEq1:  Iter=  0 NonCon=    72 RMS=2.43D-01 Max=4.50D+00
 AX will form    72 AO Fock derivatives at one time.
 LinEq1:  Iter=  1 NonCon=    72 RMS=3.49D-02 Max=2.41D-01
 LinEq1:  Iter=  2 NonCon=    72 RMS=8.26D-03 Max=8.48D-02
 LinEq1:  Iter=  3 NonCon=    72 RMS=1.82D-03 Max=2.23D-02
 LinEq1:  Iter=  4 NonCon=    72 RMS=3.63D-04 Max=5.15D-03
 LinEq1:  Iter=  5 NonCon=    72 RMS=6.20D-05 Max=6.79D-04
 LinEq1:  Iter=  6 NonCon=    72 RMS=1.05D-05 Max=1.00D-04
 LinEq1:  Iter=  7 NonCon=    72 RMS=1.65D-06 Max=1.74D-05
 LinEq1:  Iter=  8 NonCon=    41 RMS=2.29D-07 Max=1.39D-06
 LinEq1:  Iter=  9 NonCon=     4 RMS=3.97D-08 Max=4.45D-07
 LinEq1:  Iter= 10 NonCon=     0 RMS=7.44D-09 Max=7.30D-08
 Linear equations converged to 1.000D-08 1.000D-07 after    10 iterations.
 Isotropic polarizability for W=    0.000000       99.87 Bohr**3.
 End of Minotr Frequency-dependent properties file   721 does not exist.
 End of Minotr Frequency-dependent properties file   722 does not exist.
 Calling FoFJK, ICntrl=    100127 FMM=F ISym2X=0 I1Cent= 0 IOpClX= 0 NMat=1 NMatS=1 NMatT=0.
 -------------------------------------------------------------------
 Center     Atomic                   Forces (Hartrees/Bohr)
 Number     Number              X              Y              Z
 -------------------------------------------------------------------
      1        6          -0.004097867   -0.005246549   -0.003694060
      2        6           0.028161543   -0.006916227   -0.015123496
      3        6           0.028159145    0.006912492   -0.015126333
      4        6          -0.004102650    0.005243773   -0.003696608
      5        1          -0.001402562    0.000422775    0.001589631
      6        1          -0.001403417   -0.000422511    0.001589154
      7        6          -0.000349438    0.000102314   -0.000097862
      8        1          -0.000157313   -0.000125224    0.000589678
      9        1          -0.000489969    0.000227145   -0.000705019
     10        6          -0.000343028   -0.000100941   -0.000100324
     11        1          -0.000156124    0.000126472    0.000588419
     12        1          -0.000487841   -0.000227238   -0.000704064
     13        1           0.000101972    0.000246741   -0.000235713
     14        1           0.000103022   -0.000247245   -0.000235438
     15        8          -0.001221205   -0.000000463   -0.003326067
     16        6          -0.022594219   -0.011013012    0.020532207
     17        6          -0.022588375    0.011013858    0.020526917
     18        1           0.001848433    0.001247784   -0.000816312
     19        1           0.001848218   -0.001247299   -0.000816597
     20        6          -0.001223210   -0.000107203   -0.000067191
     21        6          -0.001214773    0.000108182   -0.000074673
     22        8           0.000804504    0.000660801   -0.000299451
     23        8           0.000805155   -0.000658426   -0.000296798
 -------------------------------------------------------------------
 Cartesian Forces:  Max     0.028161543 RMS     0.007988010
 IRC-IRC-IRC-IRC-IRC-IRC-IRC-IRC-IRC-IRC-IRC-IRC-IRC-IRC-IRC-IRC-IRC-IRC
 Pt  3 Step number   1 out of a maximum of  20
 CORRECTOR INTEGRATION CONVERGENCE:
   Recorrection delta-x convergence threshold:    0.010000
   Delta-x Convergence Met
 Point Number:   3          Path Number:   1
   CHANGE IN THE REACTION COORDINATE =    0.26530
   NET REACTION COORDINATE UP TO THIS POINT =    0.79597
  # OF POINTS ALONG THE PATH =   3
  # OF STEPS =   1

 Calculating another point on the path.
 IRC-IRC-IRC-IRC-IRC-IRC-IRC-IRC-IRC-IRC-IRC-IRC-IRC-IRC-IRC-IRC-IRC-IRC
                          Input orientation:                          
 ---------------------------------------------------------------------
 Center     Atomic      Atomic             Coordinates (Angstroms)
 Number     Number       Type             X           Y           Z
 ---------------------------------------------------------------------
      1          6           0       -2.382287    0.681993   -0.665217
      2          6           0       -1.368422    1.339708    0.107905
      3          6           0       -1.368340   -1.339763    0.107834
      4          6           0       -2.382230   -0.682060   -0.665270
      5          1           0       -3.019782    1.266830   -1.342258
      6          1           0       -3.019665   -1.266899   -1.342365
      7          6           0       -1.031678    0.761236    1.446958
      8          1           0       -0.023627    1.142693    1.768557
      9          1           0       -1.770956    1.136513    2.205631
     10          6           0       -1.031770   -0.761347    1.446956
     11          1           0       -0.023825   -1.142932    1.768731
     12          1           0       -1.771256   -1.136537    2.205470
     13          1           0       -1.272976   -2.436977    0.031144
     14          1           0       -1.273100    2.436927    0.031251
     15          8           0        2.009923    0.000058    0.276286
     16          6           0        0.174339   -0.731954   -1.043322
     17          6           0        0.174278    0.731939   -1.043311
     18          1           0       -0.076330   -1.318257   -1.936074
     19          1           0       -0.076448    1.318236   -1.936051
     20          6           0        1.357160   -1.139825   -0.231704
     21          6           0        1.357057    1.139893   -0.231687
     22          8           0        1.822500   -2.217774    0.105207
     23          8           0        1.822321    2.217877    0.105217
 ---------------------------------------------------------------------
                    Distance matrix (angstroms):
                    1          2          3          4          5
     1  C    0.000000
     2  C    1.434653   0.000000
     3  C    2.390229   2.679471   0.000000
     4  C    1.364053   2.390220   1.434656   0.000000
     5  H    1.098553   2.198926   3.409451   2.159388   0.000000
     6  H    2.159389   3.409441   2.198923   1.098553   2.533729
     7  C    2.508328   1.497027   2.514118   2.892853   3.462356
     8  H    3.420348   2.145939   3.275492   3.849188   4.320825
     9  H    2.970199   2.145641   3.270289   3.452960   3.763518
    10  C    2.892820   2.514125   1.497028   2.508292   3.980630
    11  H    3.849260   3.275635   2.145936   3.420357   4.945803
    12  H    3.452717   3.270145   2.145628   2.970015   4.463336
    13  H    3.382819   3.778670   1.104017   2.189788   4.319230
    14  H    2.189785   1.104016   3.778667   3.382808   2.511285
    15  O    4.543454   3.638162   3.638153   4.543437   5.433445
    16  C    2.945938   2.827935   2.018527   2.584852   3.779803
    17  C    2.584855   2.018565   2.827853   2.945852   3.252306
    18  H    3.306587   3.593345   2.418122   2.708665   3.962222
    19  H    2.708638   2.418142   3.593245   3.306463   3.003073
    20  C    4.182155   3.700299   2.753835   3.792172   5.116927
    21  C    3.792139   2.753813   3.700237   4.182078   4.517323
    22  O    5.165505   4.778877   3.309437   4.542226   6.138837
    23  O    4.542162   3.309384   4.778820   5.165417   5.142532
                    6          7          8          9         10
     6  H    0.000000
     7  C    3.980672   0.000000
     8  H    4.945727   1.124768   0.000000
     9  H    4.463623   1.123811   1.801175   0.000000
    10  C    3.462315   1.522583   2.178337   2.173443   0.000000
    11  H    4.320804   2.178339   2.285625   2.905033   1.124766
    12  H    3.763330   2.173444   2.905167   2.273050   1.123811
    13  H    2.511281   3.505897   4.170553   4.212624   2.206907
    14  H    4.319217   2.206910   2.500891   2.582027   3.505912
    15  O    5.433412   3.346818   2.769081   4.394194   3.346954
    16  C    3.252270   3.144135   3.385285   4.222681   2.767137
    17  C    3.779691   2.767061   2.848594   3.808312   3.144183
    18  H    3.003057   4.084347   4.447848   5.104055   3.559201
    19  H    3.962059   3.559138   3.709141   4.478605   4.084366
    20  C    4.517335   3.484033   3.334293   4.572464   2.944169
    21  C    5.116830   2.944025   2.430488   3.965476   3.484114
    22  O    5.142587   4.338332   4.179433   5.345648   3.473950
    23  O    6.138728   3.473813   2.707442   4.300317   4.338419
                   11         12         13         14         15
    11  H    0.000000
    12  H    1.801194   0.000000
    13  H    2.500828   2.582077   0.000000
    14  H    4.170721   4.212485   4.873903   0.000000
    15  O    2.769467   4.394419   4.095932   4.095926   0.000000
    16  C    2.848827   3.808370   2.481189   3.645764   2.376252
    17  C    3.385553   4.222664   3.645686   2.481244   2.376253
    18  H    3.709323   4.478637   2.559969   4.405001   3.314355
    19  H    4.448092   5.103967   4.404901   2.560024   3.314358
    20  C    2.430817   3.965705   2.944368   4.447535   1.408364
    21  C    3.334636   4.572550   4.447488   2.944344   1.408365
    22  O    2.707677   4.300612   3.104112   5.590568   2.232303
    23  O    4.179781   5.345742   5.590529   3.104043   2.232303
                   16         17         18         19         20
    16  C    0.000000
    17  C    1.463893   0.000000
    18  H    1.097084   2.250141   0.000000
    19  H    2.250141   1.097083   2.636493   0.000000
    20  C    1.491358   2.358266   2.234191   3.316940   0.000000
    21  C    2.358259   1.491351   3.316932   2.234189   2.279718
    22  O    2.498643   3.568829   2.929423   4.502900   1.221485
    23  O    3.568821   2.498634   4.502887   2.929411   3.406473
                   21         22         23
    21  C    0.000000
    22  O    3.406474   0.000000
    23  O    1.221484   4.435651   0.000000
 Symmetry turned off by external request.
 Stoichiometry    C10H10O3
 Framework group  C1[X(C10H10O3)]
 Deg. of freedom    63
 Full point group                 C1      NOp   1
 Rotational constants (GHZ):      1.2299112      0.8899097      0.6793062
 Standard basis: VSTO-6G (5D, 7F)
 Integral buffers will be    131072 words long.
 Regular integral format.
 Two-electron integral symmetry is turned off.
    62 basis functions,   372 primitive gaussians,    62 cartesian basis functions
    34 alpha electrons       34 beta electrons
       nuclear repulsion energy       471.4717004889 Hartrees.
 Do NDO integrals.
 One-electron integrals computed using PRISM.
 NBasis=    62 RedAO= F  NBF=    62
 NBsUse=    62 1.00D-04 NBFU=    62
 Initial guess read from the read-write file.
 B after Tr=     0.000000    0.000000    0.000000
         Rot=    1.000000    0.000000    0.000000    0.000000 Ang=   0.00 deg.
 Requested convergence on RMS density matrix=1.00D-08 within 128 cycles.
 Requested convergence on MAX density matrix=1.00D-06.
 Requested convergence on             energy=1.00D-06.
 No special actions if energy rises.
 Overlap will be assumed to be unity.
 Keep J ints in memory in canonical form, NReq=899243.
 SCF Done:  E(RAM1) = -0.645117676061E-01 A.U. after   13 cycles
             Convg  =    0.6684D-08             -V/T =  0.9996
 Range of M.O.s used for correlation:     1    62
 NBasis=    62 NAE=    34 NBE=    34 NFC=     0 NFV=     0
 NROrb=     62 NOA=    34 NOB=    34 NVA=    28 NVB=    28
 Symmetrizing basis deriv contribution to polar:
 IMax=3 JMax=2 DiffMx= 0.00D+00
 G2DrvN: will do    24 centers at a time, making    1 passes doing MaxLOS=1.
 Calling FoFCou, ICntrl=  3107 FMM=F I1Cent=   0 AccDes= 0.00D+00.
 FoFDir/FoFCou used for L=0 through L=1.
 End of G2Drv Frequency-dependent properties file   721 does not exist.
 End of G2Drv Frequency-dependent properties file   722 does not exist.
          IDoAtm=11111111111111111111111
          Differentiating once with respect to electric field.
                with respect to dipole field.
          Differentiating once with respect to nuclear coordinates.
          Electric field/nuclear overlap derivatives assumed to be zero.
          Keep J ints in memory in canonical form, NReq=811133.
          There are    72 degrees of freedom in the 1st order CPHF.  IDoFFX=5.
 LinEq1:  Iter=  0 NonCon=    72 RMS=2.37D-01 Max=4.16D+00
 AX will form    72 AO Fock derivatives at one time.
 LinEq1:  Iter=  1 NonCon=    72 RMS=3.31D-02 Max=2.37D-01
 LinEq1:  Iter=  2 NonCon=    72 RMS=7.41D-03 Max=6.89D-02
 LinEq1:  Iter=  3 NonCon=    72 RMS=1.56D-03 Max=1.46D-02
 LinEq1:  Iter=  4 NonCon=    72 RMS=2.71D-04 Max=2.87D-03
 LinEq1:  Iter=  5 NonCon=    72 RMS=4.77D-05 Max=5.23D-04
 LinEq1:  Iter=  6 NonCon=    72 RMS=8.02D-06 Max=7.89D-05
 LinEq1:  Iter=  7 NonCon=    68 RMS=1.23D-06 Max=1.32D-05
 LinEq1:  Iter=  8 NonCon=    33 RMS=1.61D-07 Max=1.29D-06
 LinEq1:  Iter=  9 NonCon=     2 RMS=2.45D-08 Max=2.12D-07
 LinEq1:  Iter= 10 NonCon=     0 RMS=3.20D-09 Max=2.15D-08
 Linear equations converged to 1.000D-08 1.000D-07 after    10 iterations.
 Isotropic polarizability for W=    0.000000       98.10 Bohr**3.
 End of Minotr Frequency-dependent properties file   721 does not exist.
 End of Minotr Frequency-dependent properties file   722 does not exist.
 Calling FoFJK, ICntrl=    100127 FMM=F ISym2X=0 I1Cent= 0 IOpClX= 0 NMat=1 NMatS=1 NMatT=0.
 -------------------------------------------------------------------
 Center     Atomic                   Forces (Hartrees/Bohr)
 Number     Number              X              Y              Z
 -------------------------------------------------------------------
      1        6          -0.004270092   -0.005067323   -0.003948360
      2        6           0.033901606   -0.008854799   -0.019202111
      3        6           0.033899637    0.008852943   -0.019203608
      4        6          -0.004273860    0.005064723   -0.003950072
      5        1          -0.001714594    0.000543507    0.002006320
      6        1          -0.001715315   -0.000543473    0.002006051
      7        6          -0.000189816    0.000088707   -0.000660267
      8        1          -0.000213672   -0.000144142    0.000757870
      9        1          -0.000653732    0.000301955   -0.000994314
     10        6          -0.000183626   -0.000088039   -0.000664239
     11        1          -0.000212652    0.000145040    0.000756504
     12        1          -0.000651772   -0.000302332   -0.000993805
     13        1           0.000217561    0.000350137   -0.000329608
     14        1           0.000218503   -0.000350514   -0.000329622
     15        8          -0.001375347   -0.000000235   -0.004466477
     16        6          -0.027619370   -0.012264469    0.025426672
     17        6          -0.027613528    0.012264879    0.025421342
     18        1           0.001945507    0.001511978   -0.000738233
     19        1           0.001945552   -0.001511564   -0.000738599
     20        6          -0.001827457   -0.000138755    0.000464648
     21        6          -0.001819875    0.000139664    0.000458040
     22        8           0.001102677    0.000888510   -0.000540231
     23        8           0.001103663   -0.000886399   -0.000537903
 -------------------------------------------------------------------
 Cartesian Forces:  Max     0.033901606 RMS     0.009704220
 IRC-IRC-IRC-IRC-IRC-IRC-IRC-IRC-IRC-IRC-IRC-IRC-IRC-IRC-IRC-IRC-IRC-IRC
 Pt  4 Step number   1 out of a maximum of  20
 CORRECTOR INTEGRATION CONVERGENCE:
   Recorrection delta-x convergence threshold:    0.010000
   Delta-x Convergence Met
 Point Number:   4          Path Number:   1
   CHANGE IN THE REACTION COORDINATE =    0.26530
   NET REACTION COORDINATE UP TO THIS POINT =    1.06127
  # OF POINTS ALONG THE PATH =   4
  # OF STEPS =   1

 Calculating another point on the path.
 IRC-IRC-IRC-IRC-IRC-IRC-IRC-IRC-IRC-IRC-IRC-IRC-IRC-IRC-IRC-IRC-IRC-IRC
                          Input orientation:                          
 ---------------------------------------------------------------------
 Center     Atomic      Atomic             Coordinates (Angstroms)
 Number     Number       Type             X           Y           Z
 ---------------------------------------------------------------------
      1          6           0       -2.384226    0.679668   -0.667027
      2          6           0       -1.351871    1.335276    0.098351
      3          6           0       -1.351789   -1.335332    0.098280
      4          6           0       -2.384171   -0.679736   -0.667080
      5          1           0       -3.029944    1.270214   -1.330553
      6          1           0       -3.029831   -1.270283   -1.330661
      7          6           0       -1.031713    0.761268    1.446486
      8          1           0       -0.024911    1.141916    1.773071
      9          1           0       -1.774973    1.138341    2.199457
     10          6           0       -1.031802   -0.761379    1.446482
     11          1           0       -0.025104   -1.142150    1.773237
     12          1           0       -1.775263   -1.138368    2.199298
     13          1           0       -1.271368   -2.434981    0.029053
     14          1           0       -1.271487    2.434929    0.029160
     15          8           0        2.009442    0.000058    0.274566
     16          6           0        0.160804   -0.737680   -1.030690
[...]
 --------------------------------------------------------------------------
 
 Total number of points:                   23
 Total number of gradient calculations:    24
 Total number of Hessian calculations:     24
 IRC-IRC-IRC-IRC-IRC-IRC-IRC-IRC-IRC-IRC-IRC-IRC-IRC-IRC-IRC-IRC-IRC-IRC
                          Input orientation:                          
 ---------------------------------------------------------------------
 Center     Atomic      Atomic             Coordinates (Angstroms)
 Number     Number       Type             X           Y           Z
 ---------------------------------------------------------------------
      1          6           0       -2.408031    0.671979   -0.665266
      2          6           0       -1.191633    1.289407   -0.031033
      3          6           0       -1.191567   -1.289474   -0.031073
      4          6           0       -2.407996   -0.672088   -0.665288
      5          1           0       -3.196419    1.316079   -1.063480
      6          1           0       -3.196350   -1.316216   -1.063524
      7          6           0       -1.104461    0.762652    1.408302
      8          1           0       -0.171192    1.153544    1.890185
      9          1           0       -1.975808    1.151553    1.993205
     10          6           0       -1.104427   -0.762760    1.408279
     11          1           0       -0.171144   -1.153625    1.890156
     12          1           0       -1.975760   -1.151717    1.993164
     13          1           0       -1.219003   -2.407183   -0.045609
     14          1           0       -1.219127    2.407116   -0.045534
     15          8           0        2.075682    0.000057    0.157316
     16          6           0        0.023963   -0.774638   -0.816645
     17          6           0        0.023919    0.774659   -0.816627
     18          1           0       -0.000538   -1.181614   -1.860804
     19          1           0       -0.000613    1.181658   -1.860776
     20          6           0        1.342974   -1.142956   -0.178165
     21          6           0        1.342915    1.143037   -0.178149
     22          8           0        1.879417   -2.208694    0.075964
     23          8           0        1.879306    2.208799    0.075987
 ---------------------------------------------------------------------
                    Distance matrix (angstroms):
                    1          2          3          4          5
     1  C    0.000000
     2  C    1.504358   0.000000
     3  C    2.393592   2.578881   0.000000
     4  C    1.344067   2.393592   1.504358   0.000000
     5  H    1.093158   2.255178   3.445897   2.175541   0.000000
     6  H    2.175540   3.445897   2.255178   1.093158   2.632296
     7  C    2.450959   1.535173   2.508109   2.838566   3.285160
     8  H    3.430114   2.179641   3.271197   3.855731   4.231141
     9  H    2.735740   2.175195   3.266703   3.252697   3.295495
    10  C    2.838564   2.508110   1.535173   2.450958   3.848064
    11  H    3.855732   3.271203   2.179641   3.430113   4.896498
    12  H    3.252687   3.266698   2.175195   2.735734   4.113770
    13  H    3.358423   3.696721   1.118141   2.192775   4.336925
    14  H    2.192775   1.118141   3.696721   3.358423   2.477148
    15  O    4.607798   3.517562   3.517569   4.607800   5.569318
    16  C    2.833763   2.520941   1.536128   2.438821   3.847452
    17  C    2.438819   1.536128   2.520942   2.833759   3.274851
    18  H    3.265140   3.297380   2.185886   2.735823   4.133745
    19  H    2.735814   2.185886   3.297374   3.265127   3.296502
    20  C    4.195390   3.516002   2.543030   3.811664   5.238008
    21  C    3.811663   2.543030   3.516011   4.195392   4.628100
    22  O    5.218229   4.656126   3.207392   4.614382   6.283826
    23  O    4.614383   3.207398   4.656139   5.218233   5.278098
                    6          7          8          9         10
     6  H    0.000000
     7  C    3.848067   0.000000
     8  H    4.896498   1.120713   0.000000
     9  H    4.113782   1.119196   1.807555   0.000000
    10  C    3.285158   1.525412   2.185264   2.183126   0.000000
    11  H    4.231138   2.185265   2.307169   2.929381   1.120713
    12  H    3.295488   2.183126   2.929385   2.303270   1.119196
    13  H    2.477148   3.489246   4.186166   4.170626   2.197964
    14  H    4.336925   2.197964   2.533104   2.511067   3.489246
    15  O    5.569322   3.501403   3.062974   4.594671   3.501413
    16  C    3.274854   2.930357   3.329099   3.950260   2.494733
    17  C    3.847448   2.494734   2.740156   3.469310   2.930364
    18  H    3.296511   3.960539   4.421764   4.919222   3.475761
    19  H    4.133729   3.475761   3.754943   4.330759   3.960541
    20  C    4.628103   3.483986   3.441610   4.581913   2.941279
    21  C    5.238009   2.941287   2.563325   3.965952   3.484006
    22  O    5.278102   4.416735   4.336016   5.461669   3.573389
    23  O    6.283828   3.573411   2.934182   4.433441   4.416767
                   11         12         13         14         15
    11  H    0.000000
    12  H    1.807554   0.000000
    13  H    2.533102   2.511070   0.000000
    14  H    4.186172   4.170621   4.814299   0.000000
    15  O    3.062996   4.594682   4.085454   4.085443   0.000000
    16  C    2.740159   3.469309   2.191954   3.501920   2.399647
    17  C    3.329115   3.950262   3.501920   2.191954   2.399647
    18  H    3.754942   4.330758   2.506314   4.202278   3.127274
    19  H    4.421778   4.919217   4.202271   2.506318   3.127280
    20  C    2.563322   3.965948   2.859994   4.380064   1.398530
    21  C    3.441644   4.581932   4.380074   2.859990   1.398530
    22  O    2.934155   4.433424   3.107150   5.560705   2.218946
    23  O    4.336064   5.461701   5.560719   3.107150   2.218946
                   16         17         18         19         20
    16  C    0.000000
    17  C    1.549298   0.000000
    18  H    1.120936   2.217635   0.000000
    19  H    2.217636   1.120936   2.363271   0.000000
    20  C    1.510995   2.413460   2.153554   3.168634   0.000000
    21  C    2.413460   1.510995   3.168626   2.153554   2.285993
    22  O    2.509179   3.624912   2.887940   4.333586   1.219898
    23  O    3.624912   2.509178   4.333575   2.887934   3.403896
                   21         22         23
    21  C    0.000000
    22  O    3.403896   0.000000
    23  O    1.219898   4.417494   0.000000
 Symmetry turned off by external request.
 Stoichiometry    C10H10O3
 Framework group  C1[X(C10H10O3)]
 Deg. of freedom    63
 Full point group                 C1      NOp   1
 Rotational constants (GHZ):      1.2962204      0.9035955      0.6746092

 **********************************************************************

            Population analysis using the SCF density.

 **********************************************************************

 Alpha  occ. eigenvalues --   -1.59344  -1.48283  -1.45386  -1.37367  -1.21541
 Alpha  occ. eigenvalues --   -1.21098  -1.17971  -0.97496  -0.90157  -0.87235
 Alpha  occ. eigenvalues --   -0.84118  -0.79485  -0.69155  -0.68120  -0.66652
 Alpha  occ. eigenvalues --   -0.66011  -0.63042  -0.59972  -0.58572  -0.56734
 Alpha  occ. eigenvalues --   -0.55266  -0.54985  -0.53139  -0.51674  -0.51227
 Alpha  occ. eigenvalues --   -0.50697  -0.48905  -0.46004  -0.44735  -0.44299
 Alpha  occ. eigenvalues --   -0.43112  -0.42944  -0.41801  -0.38787
 Alpha virt. eigenvalues --    0.00601   0.01998   0.03489   0.05509   0.07887
 Alpha virt. eigenvalues --    0.08988   0.09106   0.10258   0.11278   0.12025
 Alpha virt. eigenvalues --    0.12499   0.12502   0.12752   0.13203   0.13348
 Alpha virt. eigenvalues --    0.13558   0.14482   0.14960   0.15744   0.16064
 Alpha virt. eigenvalues --    0.16073   0.16577   0.16663   0.17933   0.18791
 Alpha virt. eigenvalues --    0.19314   0.21987   0.22409
          Condensed to atoms (all electrons):
              1          2          3          4          5          6
     1  C    4.163522   0.000000   0.000000   0.000000   0.000000   0.000000
     2  C    0.000000   4.067028   0.000000   0.000000   0.000000   0.000000
     3  C    0.000000   0.000000   4.067028   0.000000   0.000000   0.000000
     4  C    0.000000   0.000000   0.000000   4.163522   0.000000   0.000000
     5  H    0.000000   0.000000   0.000000   0.000000   0.854440   0.000000
     6  H    0.000000   0.000000   0.000000   0.000000   0.000000   0.854440
     7  C    0.000000   0.000000   0.000000   0.000000   0.000000   0.000000
     8  H    0.000000   0.000000   0.000000   0.000000   0.000000   0.000000
     9  H    0.000000   0.000000   0.000000   0.000000   0.000000   0.000000
    10  C    0.000000   0.000000   0.000000   0.000000   0.000000   0.000000
    11  H    0.000000   0.000000   0.000000   0.000000   0.000000   0.000000
    12  H    0.000000   0.000000   0.000000   0.000000   0.000000   0.000000
    13  H    0.000000   0.000000   0.000000   0.000000   0.000000   0.000000
    14  H    0.000000   0.000000   0.000000   0.000000   0.000000   0.000000
    15  O    0.000000   0.000000   0.000000   0.000000   0.000000   0.000000
    16  C    0.000000   0.000000   0.000000   0.000000   0.000000   0.000000
    17  C    0.000000   0.000000   0.000000   0.000000   0.000000   0.000000
    18  H    0.000000   0.000000   0.000000   0.000000   0.000000   0.000000
    19  H    0.000000   0.000000   0.000000   0.000000   0.000000   0.000000
    20  C    0.000000   0.000000   0.000000   0.000000   0.000000   0.000000
    21  C    0.000000   0.000000   0.000000   0.000000   0.000000   0.000000
    22  O    0.000000   0.000000   0.000000   0.000000   0.000000   0.000000
    23  O    0.000000   0.000000   0.000000   0.000000   0.000000   0.000000
              7          8          9         10         11         12
     1  C    0.000000   0.000000   0.000000   0.000000   0.000000   0.000000
     2  C    0.000000   0.000000   0.000000   0.000000   0.000000   0.000000
     3  C    0.000000   0.000000   0.000000   0.000000   0.000000   0.000000
     4  C    0.000000   0.000000   0.000000   0.000000   0.000000   0.000000
     5  H    0.000000   0.000000   0.000000   0.000000   0.000000   0.000000
     6  H    0.000000   0.000000   0.000000   0.000000   0.000000   0.000000
     7  C    4.164544   0.000000   0.000000   0.000000   0.000000   0.000000
     8  H    0.000000   0.902740   0.000000   0.000000   0.000000   0.000000
     9  H    0.000000   0.000000   0.901331   0.000000   0.000000   0.000000
    10  C    0.000000   0.000000   0.000000   4.164544   0.000000   0.000000
    11  H    0.000000   0.000000   0.000000   0.000000   0.902740   0.000000
    12  H    0.000000   0.000000   0.000000   0.000000   0.000000   0.901331
    13  H    0.000000   0.000000   0.000000   0.000000   0.000000   0.000000
    14  H    0.000000   0.000000   0.000000   0.000000   0.000000   0.000000
    15  O    0.000000   0.000000   0.000000   0.000000   0.000000   0.000000
    16  C    0.000000   0.000000   0.000000   0.000000   0.000000   0.000000
    17  C    0.000000   0.000000   0.000000   0.000000   0.000000   0.000000
    18  H    0.000000   0.000000   0.000000   0.000000   0.000000   0.000000
    19  H    0.000000   0.000000   0.000000   0.000000   0.000000   0.000000
    20  C    0.000000   0.000000   0.000000   0.000000   0.000000   0.000000
    21  C    0.000000   0.000000   0.000000   0.000000   0.000000   0.000000
    22  O    0.000000   0.000000   0.000000   0.000000   0.000000   0.000000
    23  O    0.000000   0.000000   0.000000   0.000000   0.000000   0.000000
             13         14         15         16         17         18
     1  C    0.000000   0.000000   0.000000   0.000000   0.000000   0.000000
     2  C    0.000000   0.000000   0.000000   0.000000   0.000000   0.000000
     3  C    0.000000   0.000000   0.000000   0.000000   0.000000   0.000000
     4  C    0.000000   0.000000   0.000000   0.000000   0.000000   0.000000
     5  H    0.000000   0.000000   0.000000   0.000000   0.000000   0.000000
     6  H    0.000000   0.000000   0.000000   0.000000   0.000000   0.000000
     7  C    0.000000   0.000000   0.000000   0.000000   0.000000   0.000000
     8  H    0.000000   0.000000   0.000000   0.000000   0.000000   0.000000
     9  H    0.000000   0.000000   0.000000   0.000000   0.000000   0.000000
    10  C    0.000000   0.000000   0.000000   0.000000   0.000000   0.000000
    11  H    0.000000   0.000000   0.000000   0.000000   0.000000   0.000000
    12  H    0.000000   0.000000   0.000000   0.000000   0.000000   0.000000
    13  H    0.877477   0.000000   0.000000   0.000000   0.000000   0.000000
    14  H    0.000000   0.877477   0.000000   0.000000   0.000000   0.000000
    15  O    0.000000   0.000000   6.249331   0.000000   0.000000   0.000000
    16  C    0.000000   0.000000   0.000000   4.136842   0.000000   0.000000
    17  C    0.000000   0.000000   0.000000   0.000000   4.136843   0.000000
    18  H    0.000000   0.000000   0.000000   0.000000   0.000000   0.857608
    19  H    0.000000   0.000000   0.000000   0.000000   0.000000   0.000000
    20  C    0.000000   0.000000   0.000000   0.000000   0.000000   0.000000
    21  C    0.000000   0.000000   0.000000   0.000000   0.000000   0.000000
    22  O    0.000000   0.000000   0.000000   0.000000   0.000000   0.000000
    23  O    0.000000   0.000000   0.000000   0.000000   0.000000   0.000000
             19         20         21         22         23
     1  C    0.000000   0.000000   0.000000   0.000000   0.000000
     2  C    0.000000   0.000000   0.000000   0.000000   0.000000
     3  C    0.000000   0.000000   0.000000   0.000000   0.000000
     4  C    0.000000   0.000000   0.000000   0.000000   0.000000
     5  H    0.000000   0.000000   0.000000   0.000000   0.000000
     6  H    0.000000   0.000000   0.000000   0.000000   0.000000
     7  C    0.000000   0.000000   0.000000   0.000000   0.000000
     8  H    0.000000   0.000000   0.000000   0.000000   0.000000
     9  H    0.000000   0.000000   0.000000   0.000000   0.000000
    10  C    0.000000   0.000000   0.000000   0.000000   0.000000
    11  H    0.000000   0.000000   0.000000   0.000000   0.000000
    12  H    0.000000   0.000000   0.000000   0.000000   0.000000
    13  H    0.000000   0.000000   0.000000   0.000000   0.000000
    14  H    0.000000   0.000000   0.000000   0.000000   0.000000
    15  O    0.000000   0.000000   0.000000   0.000000   0.000000
    16  C    0.000000   0.000000   0.000000   0.000000   0.000000
    17  C    0.000000   0.000000   0.000000   0.000000   0.000000
    18  H    0.000000   0.000000   0.000000   0.000000   0.000000
    19  H    0.857608   0.000000   0.000000   0.000000   0.000000
    20  C    0.000000   3.694828   0.000000   0.000000   0.000000
    21  C    0.000000   0.000000   3.694828   0.000000   0.000000
    22  O    0.000000   0.000000   0.000000   6.254973   0.000000
    23  O    0.000000   0.000000   0.000000   0.000000   6.254973
 Mulliken atomic charges:
              1
     1  C   -0.163522
     2  C   -0.067028
     3  C   -0.067028
     4  C   -0.163522
     5  H    0.145560
     6  H    0.145560
     7  C   -0.164544
     8  H    0.097260
     9  H    0.098669
    10  C   -0.164544
    11  H    0.097260
    12  H    0.098669
    13  H    0.122523
    14  H    0.122523
    15  O   -0.249331
    16  C   -0.136842
    17  C   -0.136843
    18  H    0.142392
    19  H    0.142392
    20  C    0.305172
    21  C    0.305172
    22  O   -0.254973
    23  O   -0.254973
 Sum of Mulliken atomic charges =   0.00000
 Mulliken charges with hydrogens summed into heavy atoms:
              1
     1  C   -0.017962
     2  C    0.055494
     3  C    0.055494
     4  C   -0.017962
     7  C    0.031385
    10  C    0.031385
    15  O   -0.249331
    16  C    0.005550
    17  C    0.005550
    20  C    0.305172
    21  C    0.305172
    22  O   -0.254973
    23  O   -0.254973
 Sum of Mulliken charges with hydrogens summed into heavy atoms =   0.00000
 APT atomic charges:
              1
     1  C   -0.149136
     2  C    0.035629
     3  C    0.035629
     4  C   -0.149136
     5  H    0.129789
     6  H    0.129789
     7  C   -0.061465
     8  H    0.041472
     9  H    0.046348
    10  C   -0.061466
    11  H    0.041473
    12  H    0.046348
    13  H    0.064870
    14  H    0.064870
    15  O   -0.907729
    16  C   -0.163087
    17  C   -0.163088
    18  H    0.091465
    19  H    0.091465
    20  C    1.132092
    21  C    1.132093
    22  O   -0.714105
    23  O   -0.714105
 Sum of APT charges=   0.00002
 APT Atomic charges with hydrogens summed into heavy atoms:
              1
     1  C   -0.019347
     2  C    0.100499
     3  C    0.100499
     4  C   -0.019347
     5  H    0.000000
     6  H    0.000000
     7  C    0.026356
     8  H    0.000000
     9  H    0.000000
    10  C    0.026356
    11  H    0.000000
    12  H    0.000000
    13  H    0.000000
    14  H    0.000000
    15  O   -0.907729
    16  C   -0.071622
    17  C   -0.071622
    18  H    0.000000
    19  H    0.000000
    20  C    1.132092
    21  C    1.132093
    22  O   -0.714105
    23  O   -0.714105
 Sum of APT charges=   0.00002
 Charge=              0.0000 electrons
 Dipole moment (field-independent basis, Debye):
    X=             -4.9770    Y=             -0.0001    Z=             -1.6903  Tot=              5.2562
 N-N= 4.754022702860D+02 E-N=-7.534874596026D+02  KE=-1.463306461265D+02
  Exact polarizability:  81.252  -0.001 110.528  10.372   0.001  56.833
 Approx polarizability:  55.165  -0.001  94.382   9.025   0.001  39.462
 -------------------------------------------------------------------
 Center     Atomic                   Forces (Hartrees/Bohr)
 Number     Number              X              Y              Z
 -------------------------------------------------------------------
      1        6           0.000016062    0.000010935    0.000002366
      2        6          -0.000025681   -0.000014766    0.000021336
      3        6          -0.000025668    0.000014785    0.000021363
      4        6           0.000016057   -0.000010961    0.000002395
      5        1           0.000016288   -0.000008009    0.000006416
      6        1           0.000016271    0.000007989    0.000006411
      7        6          -0.000035405    0.000011226   -0.000002011
      8        1          -0.000027919   -0.000005056    0.000001660
      9        1           0.000017026   -0.000005866   -0.000015675
     10        6          -0.000035348   -0.000011096   -0.000001992
     11        1          -0.000027844    0.000005047    0.000001685
     12        1           0.000016956    0.000005835   -0.000015610
     13        1          -0.000001022    0.000002441    0.000001422
     14        1          -0.000001020   -0.000002440    0.000001408
     15        8          -0.000092061    0.000000017   -0.000076367
     16        6           0.000023909    0.000006543    0.000036973
     17        6           0.000023890   -0.000006560    0.000036973
     18        1           0.000002010   -0.000000080    0.000003471
     19        1           0.000002011    0.000000083    0.000003461
     20        6           0.000059564    0.000017282    0.000008087
     21        6           0.000059609   -0.000017323    0.000008122
     22        8           0.000001176    0.000025566   -0.000026019
     23        8           0.000001140   -0.000025594   -0.000025877
 -------------------------------------------------------------------
 Cartesian Forces:  Max     0.000092061 RMS     0.000023618

 This type of calculation cannot be archived.


 ERROR IS A HARDY PLANT... IT FLOURISHETH IN EVERY SOIL.
            MARTIN FARQUHAR TUPPER
 Job cpu time:  0 days  0 hours  1 minutes  9.5 seconds.
 File lengths (MBytes):  RWF=     42 Int=      0 D2E=      0 Chk=      5 Scr=      1
 Normal termination of Gaussian 09 at Tue Nov  3 22:06:13 2009.
