 Entering Gaussian System, Link 0=g03
 Initial command:
 /apps/gaussian/g09/g09/l1.exe /home/scan-user-1/run/19322/Gau-4000.inp -scrdir=/home/scan-user-1/run/19322/
 Entering Link 1 = /apps/gaussian/g09/g09/l1.exe PID=      4001.
  
 Copyright (c) 1988,1990,1992,1993,1995,1998,2003,2009, Gaussian, Inc.
                  All Rights Reserved.
  
 This is part of the Gaussian(R) 09 program.  It is based on
 the Gaussian(R) 03 system (copyright 2003, Gaussian, Inc.),
 the Gaussian(R) 98 system (copyright 1998, Gaussian, Inc.),
 the Gaussian(R) 94 system (copyright 1995, Gaussian, Inc.),
 the Gaussian 92(TM) system (copyright 1992, Gaussian, Inc.),
 the Gaussian 90(TM) system (copyright 1990, Gaussian, Inc.),
 the Gaussian 88(TM) system (copyright 1988, Gaussian, Inc.),
 the Gaussian 86(TM) system (copyright 1986, Carnegie Mellon
 University), and the Gaussian 82(TM) system (copyright 1983,
 Carnegie Mellon University). Gaussian is a federally registered
 trademark of Gaussian, Inc.
  
 This software contains proprietary and confidential information,
 including trade secrets, belonging to Gaussian, Inc.
  
 This software is provided under written license and may be
 used, copied, transmitted, or stored only in accord with that
 written license.
  
 The following legend is applicable only to US Government
 contracts under FAR:
  
                    RESTRICTED RIGHTS LEGEND
  
 Use, reproduction and disclosure by the US Government is
 subject to restrictions as set forth in subparagraphs (a)
 and (c) of the Commercial Computer Software - Restricted
 Rights clause in FAR 52.227-19.
  
 Gaussian, Inc.
 340 Quinnipiac St., Bldg. 40, Wallingford CT 06492
  
  
 ---------------------------------------------------------------
 Warning -- This program may not be used in any manner that
 competes with the business of Gaussian, Inc. or will provide
 assistance to any competitor of Gaussian, Inc.  The licensee
 of this program is prohibited from giving any competitor of
 Gaussian, Inc. access to this program.  By using this program,
 the user acknowledges that Gaussian, Inc. is engaged in the
 business of creating and licensing software in the field of
 computational chemistry and represents and warrants to the
 licensee that it is not a competitor of Gaussian, Inc. and that
 it will not use this program in any manner prohibited above.
 ---------------------------------------------------------------
  

 Cite this work as:
 Gaussian 09, Revision A.02,
 M. J. Frisch, G. W. Trucks, H. B. Schlegel, G. E. Scuseria, 
 M. A. Robb, J. R. Cheeseman, G. Scalmani, V. Barone, B. Mennucci, 
 G. A. Petersson, H. Nakatsuji, M. Caricato, X. Li, H. P. Hratchian, 
 A. F. Izmaylov, J. Bloino, G. Zheng, J. L. Sonnenberg, M. Hada, 
 M. Ehara, K. Toyota, R. Fukuda, J. Hasegawa, M. Ishida, T. Nakajima, 
 Y. Honda, O. Kitao, H. Nakai, T. Vreven, J. A. Montgomery, Jr., 
 J. E. Peralta, F. Ogliaro, M. Bearpark, J. J. Heyd, E. Brothers, 
 K. N. Kudin, V. N. Staroverov, R. Kobayashi, J. Normand, 
 K. Raghavachari, A. Rendell, J. C. Burant, S. S. Iyengar, J. Tomasi, 
 M. Cossi, N. Rega, J. M. Millam, M. Klene, J. E. Knox, J. B. Cross, 
 V. Bakken, C. Adamo, J. Jaramillo, R. Gomperts, R. E. Stratmann, 
 O. Yazyev, A. J. Austin, R. Cammi, C. Pomelli, J. W. Ochterski, 
 R. L. Martin, K. Morokuma, V. G. Zakrzewski, G. A. Voth, 
 P. Salvador, J. J. Dannenberg, S. Dapprich, A. D. Daniels, 
 O. Farkas, J. B. Foresman, J. V. Ortiz, J. Cioslowski, 
 and D. J. Fox, Gaussian, Inc., Wallingford CT, 2009.
 
 ******************************************
 Gaussian 09:  EM64L-G09RevA.02 11-Jun-2009
                 3-Nov-2009 
 ******************************************
 %nprocshared=2
 Will use up to    2 processors via shared memory.
 %mem=3600MB
 %NoSave
 %Chk=chk.chk
 %rwf=/tmp/pbs.3091106.cx1/rwf
 ----------------------------------------------------------------------
 # irc=(reverse,maxpoints=50,calcall) am1 geom=(modredundant,connectivi
 ty)
 ----------------------------------------------------------------------
 1/10=4,14=-1,18=120,22=2,26=1,38=1,42=50,44=3,57=2,71=1/1,23;
 2/9=110,12=2,17=6,18=5,29=1,40=1/2;
 3/5=2,16=1,25=1,41=700000,71=2/1,2,3;
 4/35=1/1;
 5/5=2,35=1,38=5/2;
 8/6=4,10=90,11=11/1;
 11/6=1,8=1,9=11,15=111,16=1/1,2,10;
 10/6=1/2;
 6/7=2,8=2,9=2,10=2,18=1,28=1/1;
 7/10=1,25=1/1,2,3,16;
 1/10=4,14=-1,18=20,22=2,42=50,44=3,71=1/23(3);
 2/9=110,29=1/2;
 7/8=1,9=1,25=1,44=-1/16;
 99//99;
 2/9=110,29=1/2;
 3/5=2,16=1,25=1,41=700000,71=2,135=20/1,2,3;
 4/5=5,16=3,35=1/1;
 5/5=2,35=1,38=5/2;
 8/6=4,10=90,11=11/1;
 11/6=1,8=1,9=11,15=111,16=1/1,2,10;
 10/6=1/2;
 7/10=1,25=1/1,2,3,16;
 1/10=4,14=-1,18=20,22=2,42=50,44=3,71=1/23(-8);
 2/9=110,29=1/2;
 6/7=2,8=2,9=2,10=2,18=1,19=2,28=1/1;
 7/8=1,9=1,25=1,44=-1/16;
 99//99;
 ----------
 DA1_TS_IRC
 ----------
 Symbolic Z-matrix:
 Charge =  0 Multiplicity = 1
 C                    -1.25495   0.69881  -0.28674 
 C                    -1.25511  -0.69864  -0.28662 
 H                    -1.84275   1.22282  -1.05747 
 H                    -1.84319  -1.2227   -1.05709 
 C                     1.45584  -0.69161  -0.25215 
 H                     2.00066  -1.24168   0.52954 
 H                     1.30041  -1.24141  -1.1917 
 C                     1.45605   0.6913   -0.25202 
 H                     2.00088   1.24107   0.52988 
 H                     1.3009    1.24134  -1.19147 
 C                    -0.38384  -1.41421   0.51238 
 H                    -0.27239  -2.49814   0.37025 
 C                    -0.38361   1.41437   0.5123 
 H                    -0.08931   1.04738   1.50748 
 H                    -0.27201   2.49831   0.37019 
 H                    -0.08949  -1.04722   1.50754 
 
 The following ModRedundant input section has been read:
 B    5   11 D                                                                 
 B    8   13 D                                                                 
 IRC-IRC-IRC-IRC-IRC-IRC-IRC-IRC-IRC-IRC-IRC-IRC-IRC-IRC-IRC-IRC-IRC-IRC
 ------------------------------------------------------------------------
 INPUT DATA FOR L123
 ------------------------------------------------------------------------
 GENERAL PARAMETERS:
 Rxn path following direction = Reverse
 Maximum points per path      =  50
 Step size                    =   0.100 bohr
 Integration scheme           = HPC                                 
    Redo corrector integration= Yes                                 
    Max correction cycles     =  20
 Initial Hessian              = CalcFC
 Hessian evaluation           = Full Hessian always
 ------------------------------------------------------------------------
 IRC-IRC-IRC-IRC-IRC-IRC-IRC-IRC-IRC-IRC-IRC-IRC-IRC-IRC-IRC-IRC-IRC-IRC
                          Input orientation:                          
 ---------------------------------------------------------------------
 Center     Atomic      Atomic             Coordinates (Angstroms)
 Number     Number       Type             X           Y           Z
 ---------------------------------------------------------------------
      1          6           0       -1.254949    0.698814   -0.286740
      2          6           0       -1.255112   -0.698635   -0.286618
      3          1           0       -1.842746    1.222823   -1.057467
      4          1           0       -1.843187   -1.222697   -1.057092
      5          6           0        1.455836   -0.691611   -0.252153
      6          1           0        2.000658   -1.241678    0.529543
      7          1           0        1.300409   -1.241410   -1.191695
      8          6           0        1.456051    0.691302   -0.252023
      9          1           0        2.000884    1.241065    0.529878
     10          1           0        1.300899    1.241342   -1.191471
     11          6           0       -0.383836   -1.414206    0.512377
     12          1           0       -0.272389   -2.498144    0.370249
     13          6           0       -0.383611    1.414374    0.512297
     14          1           0       -0.089307    1.047382    1.507484
     15          1           0       -0.272013    2.498307    0.370194
     16          1           0       -0.089486   -1.047217    1.507535
 ---------------------------------------------------------------------
                    Distance matrix (angstroms):
                    1          2          3          4          5
     1  C    0.000000
     2  C    1.397449   0.000000
     3  H    1.101867   2.152097   0.000000
     4  H    2.152132   1.101864   2.445520   0.000000
     5  C    3.046774   2.711176   3.897978   3.437082   0.000000
     6  H    3.876958   3.400155   4.833645   4.158475   1.100206
     7  H    3.333657   2.764861   3.996234   3.146532   1.099625
     8  C    2.711233   3.046888   3.437051   3.898269   1.382913
     9  H    3.400198   3.876933   4.158544   4.833785   2.154968
    10  H    2.765002   3.333986   3.146554   3.996852   2.154677
    11  C    2.421214   1.381867   3.398051   2.151654   2.119208
    12  H    3.408460   2.153010   4.283689   2.476181   2.576375
    13  C    1.381925   2.421278   2.151726   3.398159   2.898814
    14  H    2.167824   2.761608   3.111961   3.847909   2.916828
    15  H    2.153114   3.408566   2.476344   4.283877   3.680809
    16  H    2.761585   2.167759   3.847887   3.111844   2.368750
                    6          7          8          9         10
     6  H    0.000000
     7  H    1.858227   0.000000
     8  C    2.154960   2.154666   0.000000
     9  H    2.482743   3.101155   1.100205   0.000000
    10  H    3.101119   2.482752   1.099627   1.858231   0.000000
    11  C    2.390789   2.402166   2.898733   3.568986   3.576781
    12  H    2.602081   2.548086   3.680665   4.378919   4.347178
    13  C    3.569264   3.576689   2.119286   2.390850   2.402153
    14  H    3.250249   3.802032   2.368710   2.315626   3.042146
    15  H    4.379259   4.347125   2.576553   2.602348   2.548099
    16  H    2.315812   3.042263   2.916707   3.249876   3.802013
                   11         12         13         14         15
    11  C    0.000000
    12  H    1.098882   0.000000
    13  C    2.828580   3.916675   0.000000
    14  H    2.671404   3.727945   1.100770   0.000000
    15  H    3.916692   4.996451   1.098889   1.852564   0.000000
    16  H    1.100755   1.852583   2.671411   2.094599   3.727949
                   16
    16  H    0.000000
 Symmetry turned off by external request.
 Stoichiometry    C6H10
 Framework group  C1[X(C6H10)]
 Deg. of freedom    42
 Full point group                 C1      NOp   1
 Rotational constants (GHZ):      4.3762569      3.8585238      2.4542153
 Standard basis: VSTO-6G (5D, 7F)
 Integral buffers will be    131072 words long.
 Regular integral format.
 Two-electron integral symmetry is turned off.
    34 basis functions,   204 primitive gaussians,    34 cartesian basis functions
    17 alpha electrons       17 beta electrons
       nuclear repulsion energy       142.2000052586 Hartrees.
 Do NDO integrals.
 One-electron integrals computed using PRISM.
 NBasis=    34 RedAO= F  NBF=    34
 NBsUse=    34 1.00D-04 NBFU=    34
 Simple Huckel Guess.
 Requested convergence on RMS density matrix=1.00D-08 within 128 cycles.
 Requested convergence on MAX density matrix=1.00D-06.
 Requested convergence on             energy=1.00D-06.
 No special actions if energy rises.
 Overlap will be assumed to be unity.
 Keep J ints in memory in canonical form, NReq=883444.
 SCF Done:  E(RAM1) =  0.111654661652     A.U. after   14 cycles
             Convg  =    0.4698D-08             -V/T =  1.0021
 Range of M.O.s used for correlation:     1    34
 NBasis=    34 NAE=    17 NBE=    17 NFC=     0 NFV=     0
 NROrb=     34 NOA=    17 NOB=    17 NVA=    17 NVB=    17
 Symmetrizing basis deriv contribution to polar:
 IMax=3 JMax=2 DiffMx= 0.00D+00
 G2DrvN: will do    17 centers at a time, making    1 passes doing MaxLOS=1.
 Calling FoFCou, ICntrl=  3107 FMM=F I1Cent=   0 AccDes= 0.00D+00.
 FoFDir/FoFCou used for L=0 through L=1.
 End of G2Drv Frequency-dependent properties file   721 does not exist.
 End of G2Drv Frequency-dependent properties file   722 does not exist.
          IDoAtm=1111111111111111
          Differentiating once with respect to electric field.
                with respect to dipole field.
          Differentiating once with respect to nuclear coordinates.
          Electric field/nuclear overlap derivatives assumed to be zero.
          Keep J ints in memory in canonical form, NReq=803419.
          There are    51 degrees of freedom in the 1st order CPHF.  IDoFFX=5.
 LinEq1:  Iter=  0 NonCon=    51 RMS=3.61D-01 Max=3.94D+00
 AX will form    51 AO Fock derivatives at one time.
 LinEq1:  Iter=  1 NonCon=    51 RMS=5.79D-02 Max=2.70D-01
 LinEq1:  Iter=  2 NonCon=    51 RMS=5.39D-03 Max=3.77D-02
 LinEq1:  Iter=  3 NonCon=    51 RMS=7.61D-04 Max=8.27D-03
 LinEq1:  Iter=  4 NonCon=    51 RMS=1.46D-04 Max=1.65D-03
 LinEq1:  Iter=  5 NonCon=    51 RMS=1.97D-05 Max=9.16D-05
 LinEq1:  Iter=  6 NonCon=    51 RMS=2.37D-06 Max=1.07D-05
 LinEq1:  Iter=  7 NonCon=    51 RMS=2.17D-07 Max=1.29D-06
 LinEq1:  Iter=  8 NonCon=    15 RMS=2.94D-08 Max=2.12D-07
 LinEq1:  Iter=  9 NonCon=     0 RMS=3.55D-09 Max=2.65D-08
 Linear equations converged to 1.000D-08 1.000D-07 after     9 iterations.
 Isotropic polarizability for W=    0.000000       60.72 Bohr**3.
 End of Minotr Frequency-dependent properties file   721 does not exist.
 End of Minotr Frequency-dependent properties file   722 does not exist.

 **********************************************************************

            Population analysis using the SCF density.

 **********************************************************************

 Alpha  occ. eigenvalues --   -1.36475  -1.17080  -1.10551  -0.89141  -0.80926
 Alpha  occ. eigenvalues --   -0.68409  -0.61838  -0.58400  -0.53128  -0.51040
 Alpha  occ. eigenvalues --   -0.49731  -0.46891  -0.45567  -0.43862  -0.42476
 Alpha  occ. eigenvalues --   -0.32499  -0.32393
 Alpha virt. eigenvalues --    0.02315   0.03378   0.10686   0.15321   0.15512
 Alpha virt. eigenvalues --    0.16104   0.16359   0.16856   0.16978   0.18787
 Alpha virt. eigenvalues --    0.18946   0.19149   0.20523   0.20546   0.20736
 Alpha virt. eigenvalues --    0.21908   0.22257
          Condensed to atoms (all electrons):
              1          2          3          4          5          6
     1  C    4.165116   0.000000   0.000000   0.000000   0.000000   0.000000
     2  C    0.000000   4.165134   0.000000   0.000000   0.000000   0.000000
     3  H    0.000000   0.000000   0.878539   0.000000   0.000000   0.000000
     4  H    0.000000   0.000000   0.000000   0.878540   0.000000   0.000000
     5  C    0.000000   0.000000   0.000000   0.000000   4.212148   0.000000
     6  H    0.000000   0.000000   0.000000   0.000000   0.000000   0.895377
     7  H    0.000000   0.000000   0.000000   0.000000   0.000000   0.000000
     8  C    0.000000   0.000000   0.000000   0.000000   0.000000   0.000000
     9  H    0.000000   0.000000   0.000000   0.000000   0.000000   0.000000
    10  H    0.000000   0.000000   0.000000   0.000000   0.000000   0.000000
    11  C    0.000000   0.000000   0.000000   0.000000   0.000000   0.000000
    12  H    0.000000   0.000000   0.000000   0.000000   0.000000   0.000000
    13  C    0.000000   0.000000   0.000000   0.000000   0.000000   0.000000
    14  H    0.000000   0.000000   0.000000   0.000000   0.000000   0.000000
    15  H    0.000000   0.000000   0.000000   0.000000   0.000000   0.000000
    16  H    0.000000   0.000000   0.000000   0.000000   0.000000   0.000000
              7          8          9         10         11         12
     1  C    0.000000   0.000000   0.000000   0.000000   0.000000   0.000000
     2  C    0.000000   0.000000   0.000000   0.000000   0.000000   0.000000
     3  H    0.000000   0.000000   0.000000   0.000000   0.000000   0.000000
     4  H    0.000000   0.000000   0.000000   0.000000   0.000000   0.000000
     5  C    0.000000   0.000000   0.000000   0.000000   0.000000   0.000000
     6  H    0.000000   0.000000   0.000000   0.000000   0.000000   0.000000
     7  H    0.891999   0.000000   0.000000   0.000000   0.000000   0.000000
     8  C    0.000000   4.212152   0.000000   0.000000   0.000000   0.000000
     9  H    0.000000   0.000000   0.895381   0.000000   0.000000   0.000000
    10  H    0.000000   0.000000   0.000000   0.891995   0.000000   0.000000
    11  C    0.000000   0.000000   0.000000   0.000000   4.169127   0.000000
    12  H    0.000000   0.000000   0.000000   0.000000   0.000000   0.897609
    13  C    0.000000   0.000000   0.000000   0.000000   0.000000   0.000000
    14  H    0.000000   0.000000   0.000000   0.000000   0.000000   0.000000
    15  H    0.000000   0.000000   0.000000   0.000000   0.000000   0.000000
    16  H    0.000000   0.000000   0.000000   0.000000   0.000000   0.000000
             13         14         15         16
     1  C    0.000000   0.000000   0.000000   0.000000
     2  C    0.000000   0.000000   0.000000   0.000000
     3  H    0.000000   0.000000   0.000000   0.000000
     4  H    0.000000   0.000000   0.000000   0.000000
     5  C    0.000000   0.000000   0.000000   0.000000
     6  H    0.000000   0.000000   0.000000   0.000000
     7  H    0.000000   0.000000   0.000000   0.000000
     8  C    0.000000   0.000000   0.000000   0.000000
     9  H    0.000000   0.000000   0.000000   0.000000
    10  H    0.000000   0.000000   0.000000   0.000000
    11  C    0.000000   0.000000   0.000000   0.000000
    12  H    0.000000   0.000000   0.000000   0.000000
    13  C    4.169144   0.000000   0.000000   0.000000
    14  H    0.000000   0.890071   0.000000   0.000000
    15  H    0.000000   0.000000   0.897601   0.000000
    16  H    0.000000   0.000000   0.000000   0.890067
 Mulliken atomic charges:
              1
     1  C   -0.165116
     2  C   -0.165134
     3  H    0.121461
     4  H    0.121460
     5  C   -0.212148
     6  H    0.104623
     7  H    0.108001
     8  C   -0.212152
     9  H    0.104619
    10  H    0.108005
    11  C   -0.169127
    12  H    0.102391
    13  C   -0.169144
    14  H    0.109929
    15  H    0.102399
    16  H    0.109933
 Sum of Mulliken atomic charges =   0.00000
 Mulliken charges with hydrogens summed into heavy atoms:
              1
     1  C   -0.043655
     2  C   -0.043674
     5  C    0.000477
     8  C    0.000472
    11  C    0.043197
    13  C    0.043184
 Sum of Mulliken charges with hydrogens summed into heavy atoms =   0.00000
 APT atomic charges:
              1
     1  C   -0.168925
     2  C   -0.168951
     3  H    0.101518
     4  H    0.101528
     5  C   -0.129078
     6  H    0.064626
     7  H    0.052421
     8  C   -0.129057
     9  H    0.064614
    10  H    0.052429
    11  C   -0.032810
    12  H    0.067342
    13  C   -0.032845
    14  H    0.044899
    15  H    0.067350
    16  H    0.044899
 Sum of APT charges=  -0.00004
 APT Atomic charges with hydrogens summed into heavy atoms:
              1
     1  C   -0.067407
     2  C   -0.067424
     3  H    0.000000
     4  H    0.000000
     5  C   -0.012030
     6  H    0.000000
     7  H    0.000000
     8  C   -0.012013
     9  H    0.000000
    10  H    0.000000
    11  C    0.079431
    12  H    0.000000
    13  C    0.079404
    14  H    0.000000
    15  H    0.000000
    16  H    0.000000
 Sum of APT charges=  -0.00004
 Charge=              0.0000 electrons
 Dipole moment (field-independent basis, Debye):
    X=              0.5460    Y=             -0.0001    Z=              0.1266  Tot=              0.5605
 N-N= 1.422000052586D+02 E-N=-2.092185274297D+02  KE=-5.255007074808D+01
  Exact polarizability:  66.761   0.002  74.364   8.391   0.000  41.028
 Approx polarizability:  55.346   0.002  63.273   7.299   0.000  28.364
 Calling FoFJK, ICntrl=    100127 FMM=F ISym2X=0 I1Cent= 0 IOpClX= 0 NMat=1 NMatS=1 NMatT=0.
 -------------------------------------------------------------------
 Center     Atomic                   Forces (Hartrees/Bohr)
 Number     Number              X              Y              Z
 -------------------------------------------------------------------
      1        6           0.000021740    0.000065699    0.000027686
      2        6          -0.000015361   -0.000019388   -0.000009140
      3        1           0.000003645   -0.000012081    0.000014163
      4        1           0.000006266    0.000017745    0.000002349
      5        6          -0.000003429   -0.000004991    0.000005567
      6        1           0.000003282   -0.000009216    0.000003933
      7        1           0.000001923   -0.000008899   -0.000004856
      8        6          -0.000009441    0.000009909    0.000003212
      9        1           0.000006452    0.000008077    0.000001470
     10        1           0.000000053    0.000007874   -0.000002793
     11        6           0.000018437    0.000010668   -0.000013643
     12        1          -0.000003540   -0.000003658    0.000011570
     13        6          -0.000018536   -0.000054781   -0.000047799
     14        1          -0.000009636    0.000008858   -0.000000728
     15        1          -0.000003801   -0.000008583    0.000001355
     16        1           0.000001947   -0.000007232    0.000007654
 -------------------------------------------------------------------
 Cartesian Forces:  Max     0.000065699 RMS     0.000017343
 IRC-IRC-IRC-IRC-IRC-IRC-IRC-IRC-IRC-IRC-IRC-IRC-IRC-IRC-IRC-IRC-IRC-IRC
          ******** Start new reaction path calculation ********
 Supplied step size of   0.1000 bohr.
    Integration on MW PES will use step size of   0.2495 sqrt(amu)*bohr.
 Point Number:   0          Path Number:   1
 Calculating another point on the path.
 IRC-IRC-IRC-IRC-IRC-IRC-IRC-IRC-IRC-IRC-IRC-IRC-IRC-IRC-IRC-IRC-IRC-IRC
                          Input orientation:                          
 ---------------------------------------------------------------------
 Center     Atomic      Atomic             Coordinates (Angstroms)
 Number     Number       Type             X           Y           Z
 ---------------------------------------------------------------------
      1          6           0       -1.230120    0.693862   -0.285065
      2          6           0       -1.230282   -0.693689   -0.284943
      3          1           0       -1.822356    1.225500   -1.046952
      4          1           0       -1.822794   -1.225377   -1.046575
      5          6           0        1.466992   -0.698507   -0.242134
      6          1           0        2.038507   -1.238353    0.528568
      7          1           0        1.338620   -1.238210   -1.192391
      8          6           0        1.467210    0.698196   -0.242006
      9          1           0        2.038726    1.237735    0.528908
     10          1           0        1.339118    1.238132   -1.192170
     11          6           0       -0.340846   -1.409604    0.511923
     12          1           0       -0.241837   -2.495416    0.371441
     13          6           0       -0.340623    1.409765    0.511846
     14          1           0       -0.076840    1.051525    1.519723
     15          1           0       -0.241460    2.495572    0.371388
     16          1           0       -0.077024   -1.051368    1.519775
 ---------------------------------------------------------------------
                    Distance matrix (angstroms):
                    1          2          3          4          5
     1  C    0.000000
     2  C    1.387551   0.000000
     3  H    1.101750   2.148138   0.000000
     4  H    2.148171   1.101747   2.450877   0.000000
     5  C    3.035613   2.697618   3.894785   3.427450   0.000000
     6  H    3.883217   3.412248   4.843460   4.170239   1.100929
     7  H    3.339846   2.778348   4.010336   3.164801   1.100340
     8  C    2.697677   3.035729   3.427424   3.895073   1.396703
     9  H    3.412287   3.883190   4.170304   4.843594   2.161115
    10  H    2.778499   3.340182   3.164833   4.010956   2.160901
    11  C    2.418795   1.392345   3.401285   2.158478   2.083876
    12  H    3.402822   2.157332   4.284284   2.474508   2.554496
    13  C    1.392404   2.418860   2.158550   3.401394   2.877632
    14  H    2.171459   2.762792   3.108844   3.849484   2.924067
    15  H    2.157438   3.402929   2.474672   4.284472   3.673875
    16  H    2.762771   2.171392   3.849467   3.108721   2.369139
                    6          7          8          9         10
     6  H    0.000000
     7  H    1.857833   0.000000
     8  C    2.161107   2.160888   0.000000
     9  H    2.476088   3.095695   1.100927   0.000000
    10  H    3.095653   2.476343   1.100341   1.857838   0.000000
    11  C    2.385566   2.398889   2.877551   3.559643   3.568855
    12  H    2.608614   2.554208   3.673733   4.377462   4.345536
    13  C    3.559925   3.568760   2.083959   2.385620   2.398887
    14  H    3.271180   3.821253   2.369097   2.343503   3.064983
    15  H    4.377802   4.345479   2.554676   2.608872   2.554231
    16  H    2.343699   3.065094   2.923953   3.270811   3.821245
                   11         12         13         14         15
    11  C    0.000000
    12  H    1.099329   0.000000
    13  C    2.819369   3.908952   0.000000
    14  H    2.672549   3.731831   1.101695   0.000000
    15  H    3.908968   4.990988   1.099336   1.852308   0.000000
    16  H    1.101681   1.852326   2.672560   2.102893   3.731838
                   16
    16  H    0.000000
 Symmetry turned off by external request.
 Stoichiometry    C6H10
 Framework group  C1[X(C6H10)]
 Deg. of freedom    42
 Full point group                 C1      NOp   1
 Rotational constants (GHZ):      4.3903506      3.8936489      2.4705886
 Standard basis: VSTO-6G (5D, 7F)
 Integral buffers will be    131072 words long.
 Regular integral format.
 Two-electron integral symmetry is turned off.
    34 basis functions,   204 primitive gaussians,    34 cartesian basis functions
    17 alpha electrons       17 beta electrons
       nuclear repulsion energy       142.3001277968 Hartrees.
 Do NDO integrals.
 One-electron integrals computed using PRISM.
 NBasis=    34 RedAO= F  NBF=    34
 NBsUse=    34 1.00D-04 NBFU=    34
 Initial guess read from the read-write file.
 B after Tr=     0.000000    0.000000    0.000000
         Rot=    1.000000    0.000000    0.000000    0.000000 Ang=   0.00 deg.
 Requested convergence on RMS density matrix=1.00D-08 within 128 cycles.
 Requested convergence on MAX density matrix=1.00D-06.
 Requested convergence on             energy=1.00D-06.
 No special actions if energy rises.
 Overlap will be assumed to be unity.
 Keep J ints in memory in canonical form, NReq=883444.
 SCF Done:  E(RAM1) =  0.110497658347     A.U. after   13 cycles
             Convg  =    0.3584D-08             -V/T =  1.0021
 Range of M.O.s used for correlation:     1    34
 NBasis=    34 NAE=    17 NBE=    17 NFC=     0 NFV=     0
 NROrb=     34 NOA=    17 NOB=    17 NVA=    17 NVB=    17
 Symmetrizing basis deriv contribution to polar:
 IMax=3 JMax=2 DiffMx= 0.00D+00
 G2DrvN: will do    17 centers at a time, making    1 passes doing MaxLOS=1.
 Calling FoFCou, ICntrl=  3107 FMM=F I1Cent=   0 AccDes= 0.00D+00.
 FoFDir/FoFCou used for L=0 through L=1.
 End of G2Drv Frequency-dependent properties file   721 does not exist.
 End of G2Drv Frequency-dependent properties file   722 does not exist.
          IDoAtm=1111111111111111
          Differentiating once with respect to electric field.
                with respect to dipole field.
          Differentiating once with respect to nuclear coordinates.
          Electric field/nuclear overlap derivatives assumed to be zero.
          Keep J ints in memory in canonical form, NReq=803419.
          There are    51 degrees of freedom in the 1st order CPHF.  IDoFFX=5.
 LinEq1:  Iter=  0 NonCon=    51 RMS=3.58D-01 Max=4.02D+00
 AX will form    51 AO Fock derivatives at one time.
 LinEq1:  Iter=  1 NonCon=    51 RMS=5.71D-02 Max=2.69D-01
 LinEq1:  Iter=  2 NonCon=    51 RMS=5.00D-03 Max=2.96D-02
 LinEq1:  Iter=  3 NonCon=    51 RMS=6.78D-04 Max=9.67D-03
 LinEq1:  Iter=  4 NonCon=    51 RMS=1.66D-04 Max=2.03D-03
 LinEq1:  Iter=  5 NonCon=    51 RMS=2.10D-05 Max=9.39D-05
 LinEq1:  Iter=  6 NonCon=    51 RMS=2.51D-06 Max=1.06D-05
 LinEq1:  Iter=  7 NonCon=    51 RMS=2.16D-07 Max=9.97D-07
 LinEq1:  Iter=  8 NonCon=    11 RMS=2.68D-08 Max=1.96D-07
 LinEq1:  Iter=  9 NonCon=     0 RMS=3.08D-09 Max=1.95D-08
 Linear equations converged to 1.000D-08 1.000D-07 after     9 iterations.
 Isotropic polarizability for W=    0.000000       61.38 Bohr**3.
 End of Minotr Frequency-dependent properties file   721 does not exist.
 End of Minotr Frequency-dependent properties file   722 does not exist.
 Calling FoFJK, ICntrl=    100127 FMM=F ISym2X=0 I1Cent= 0 IOpClX= 0 NMat=1 NMatS=1 NMatT=0.
 -------------------------------------------------------------------
 Center     Atomic                   Forces (Hartrees/Bohr)
 Number     Number              X              Y              Z
 -------------------------------------------------------------------
      1        6          -0.001693866   -0.004064201   -0.002131706
      2        6          -0.001729811    0.004109833   -0.002168069
      3        1          -0.000463327    0.000160221    0.000566211
      4        1          -0.000460504   -0.000154382    0.000554553
      5        6          -0.012852137   -0.006965762    0.005239454
      6        1           0.000738471    0.000382588   -0.000524811
      7        1           0.000874061    0.000375536   -0.000127480
      8        6          -0.012855429    0.006973719    0.005235053
      9        1           0.000741223   -0.000383514   -0.000526843
     10        1           0.000872775   -0.000377002   -0.000125530
     11        6           0.014343181    0.003658740   -0.003138335
     12        1           0.000201693    0.000190691   -0.000133388
     13        6           0.014304625   -0.003704921   -0.003170139
     14        1          -0.001116819    0.000441629    0.000293085
     15        1           0.000201447   -0.000203001   -0.000143443
     16        1          -0.001105584   -0.000440174    0.000301388
 -------------------------------------------------------------------
 Cartesian Forces:  Max     0.014343181 RMS     0.004556236
 IRC-IRC-IRC-IRC-IRC-IRC-IRC-IRC-IRC-IRC-IRC-IRC-IRC-IRC-IRC-IRC-IRC-IRC
 Pt  1 Step number   1 out of a maximum of  20
 CORRECTOR INTEGRATION CONVERGENCE:
   Recorrection delta-x convergence threshold:    0.010000
   Delta-x Convergence Met
 Point Number:   1          Path Number:   1
   CHANGE IN THE REACTION COORDINATE =    0.24948
   NET REACTION COORDINATE UP TO THIS POINT =    0.24948
  # OF POINTS ALONG THE PATH =   1
  # OF STEPS =   1

 Calculating another point on the path.
 IRC-IRC-IRC-IRC-IRC-IRC-IRC-IRC-IRC-IRC-IRC-IRC-IRC-IRC-IRC-IRC-IRC-IRC
                          Input orientation:                          
 ---------------------------------------------------------------------
 Center     Atomic      Atomic             Coordinates (Angstroms)
 Number     Number       Type             X           Y           Z
 ---------------------------------------------------------------------
      1          6           0       -1.232021    0.689080   -0.287480
      2          6           0       -1.232189   -0.688886   -0.287374
      3          1           0       -1.829445    1.228285   -1.039528
      4          1           0       -1.829831   -1.228091   -1.039245
      5          6           0        1.451975   -0.706146   -0.235975
      6          1           0        2.050343   -1.234378    0.523052
      7          1           0        1.350446   -1.234344   -1.196474
      8          6           0        1.452190    0.705840   -0.235851
      9          1           0        2.050579    1.233758    0.523375
     10          1           0        1.350929    1.234258   -1.196254
     11          6           0       -0.324308   -1.405414    0.507927
     12          1           0       -0.239258   -2.493214    0.369515
     13          6           0       -0.324100    1.405546    0.507836
     14          1           0       -0.091385    1.056467    1.527125
     15          1           0       -0.238860    2.493321    0.369366
     16          1           0       -0.091494   -1.056308    1.527184
 ---------------------------------------------------------------------
                    Distance matrix (angstroms):
                    1          2          3          4          5
     1  C    0.000000
     2  C    1.377966   0.000000
     3  H    1.101468   2.144293   0.000000
     4  H    2.144312   1.101466   2.456376   0.000000
     5  C    3.025416   2.684712   3.892998   3.418760   0.000000
     6  H    3.889802   3.424816   4.853773   4.182888   1.101451
     7  H    3.345888   2.791773   4.025031   3.184167   1.100845
     8  C    2.684760   3.025526   3.418768   3.893224   1.411987
     9  H    3.424853   3.889787   4.182975   4.853871   2.167526
    10  H    2.791903   3.346199   3.184239   4.025550   2.167375
    11  C    2.417338   1.403626   3.405352   2.166053   2.048791
    12  H    3.397678   2.161716   4.285283   2.472865   2.533870
    13  C    1.403628   2.417360   2.166060   3.405397   2.857786
    14  H    2.174584   2.764073   3.104526   3.850670   2.932113
    15  H    2.161735   3.397712   2.472904   4.285356   3.669053
    16  H    2.764089   2.174582   3.850694   3.104494   2.369311
                    6          7          8          9         10
     6  H    0.000000
     7  H    1.856508   0.000000
     8  C    2.167525   2.167363   0.000000
     9  H    2.468136   3.088623   1.101449   0.000000
    10  H    3.088585   2.468602   1.100842   1.856511   0.000000
    11  C    2.380850   2.395631   2.857717   3.550431   3.560692
    12  H    2.617349   2.562077   3.668980   4.376911   4.344465
    13  C    3.550692   3.560589   2.048869   2.380936   2.395618
    14  H    3.292891   3.839881   2.369314   2.372121   3.086855
    15  H    4.377191   4.344333   2.533974   2.617584   2.561998
    16  H    2.372225   3.086940   2.931965   3.292493   3.839843
                   11         12         13         14         15
    11  C    0.000000
    12  H    1.099864   0.000000
    13  C    2.810960   3.902136   0.000000
    14  H    2.674673   3.736598   1.102254   0.000000
    15  H    3.902132   4.986535   1.099861   1.851136   0.000000
    16  H    1.102253   1.851143   2.674678   2.112775   3.736593
                   16
    16  H    0.000000
 Symmetry turned off by external request.
 Stoichiometry    C6H10
 Framework group  C1[X(C6H10)]
 Deg. of freedom    42
 Full point group                 C1      NOp   1
 Rotational constants (GHZ):      4.4021846      3.9270280      2.4853956
 Standard basis: VSTO-6G (5D, 7F)
 Integral buffers will be    131072 words long.
 Regular integral format.
 Two-electron integral symmetry is turned off.
    34 basis functions,   204 primitive gaussians,    34 cartesian basis functions
    17 alpha electrons       17 beta electrons
       nuclear repulsion energy       142.3865649459 Hartrees.
 Do NDO integrals.
 One-electron integrals computed using PRISM.
 NBasis=    34 RedAO= F  NBF=    34
 NBsUse=    34 1.00D-04 NBFU=    34
 Initial guess read from the read-write file.
 B after Tr=     0.000000    0.000000    0.000000
         Rot=    1.000000    0.000000    0.000000    0.000000 Ang=   0.00 deg.
 Requested convergence on RMS density matrix=1.00D-08 within 128 cycles.
 Requested convergence on MAX density matrix=1.00D-06.
 Requested convergence on             energy=1.00D-06.
 No special actions if energy rises.
 Overlap will be assumed to be unity.
 Keep J ints in memory in canonical form, NReq=883444.
 SCF Done:  E(RAM1) =  0.106938697552     A.U. after   13 cycles
             Convg  =    0.2633D-08             -V/T =  1.0020
 Range of M.O.s used for correlation:     1    34
 NBasis=    34 NAE=    17 NBE=    17 NFC=     0 NFV=     0
 NROrb=     34 NOA=    17 NOB=    17 NVA=    17 NVB=    17
 Symmetrizing basis deriv contribution to polar:
 IMax=3 JMax=2 DiffMx= 0.00D+00
 G2DrvN: will do    17 centers at a time, making    1 passes doing MaxLOS=1.
 Calling FoFCou, ICntrl=  3107 FMM=F I1Cent=   0 AccDes= 0.00D+00.
 FoFDir/FoFCou used for L=0 through L=1.
 End of G2Drv Frequency-dependent properties file   721 does not exist.
 End of G2Drv Frequency-dependent properties file   722 does not exist.
          IDoAtm=1111111111111111
          Differentiating once with respect to electric field.
                with respect to dipole field.
          Differentiating once with respect to nuclear coordinates.
          Electric field/nuclear overlap derivatives assumed to be zero.
          Keep J ints in memory in canonical form, NReq=803419.
          There are    51 degrees of freedom in the 1st order CPHF.  IDoFFX=5.
 LinEq1:  Iter=  0 NonCon=    51 RMS=3.53D-01 Max=3.93D+00
 AX will form    51 AO Fock derivatives at one time.
 LinEq1:  Iter=  1 NonCon=    51 RMS=5.48D-02 Max=2.70D-01
 LinEq1:  Iter=  2 NonCon=    51 RMS=4.65D-03 Max=2.07D-02
 LinEq1:  Iter=  3 NonCon=    51 RMS=4.25D-04 Max=5.72D-03
 LinEq1:  Iter=  4 NonCon=    51 RMS=1.07D-04 Max=1.46D-03
 LinEq1:  Iter=  5 NonCon=    51 RMS=1.63D-05 Max=1.01D-04
 LinEq1:  Iter=  6 NonCon=    51 RMS=2.25D-06 Max=1.29D-05
 LinEq1:  Iter=  7 NonCon=    51 RMS=1.87D-07 Max=8.60D-07
 LinEq1:  Iter=  8 NonCon=     7 RMS=2.12D-08 Max=1.38D-07
 LinEq1:  Iter=  9 NonCon=     0 RMS=2.42D-09 Max=1.39D-08
 Linear equations converged to 1.000D-08 1.000D-07 after     9 iterations.
 Isotropic polarizability for W=    0.000000       61.07 Bohr**3.
 End of Minotr Frequency-dependent properties file   721 does not exist.
 End of Minotr Frequency-dependent properties file   722 does not exist.
 Calling FoFJK, ICntrl=    100127 FMM=F ISym2X=0 I1Cent= 0 IOpClX= 0 NMat=1 NMatS=1 NMatT=0.
 -------------------------------------------------------------------
 Center     Atomic                   Forces (Hartrees/Bohr)
 Number     Number              X              Y              Z
 -------------------------------------------------------------------
      1        6          -0.002908569   -0.007068350   -0.003964542
      2        6          -0.002903111    0.007075926   -0.003970210
      3        1          -0.001026182    0.000400627    0.001148947
      4        1          -0.001023361   -0.000397941    0.001144627
      5        6          -0.025958203   -0.012824330    0.010734555
      6        1           0.001510905    0.000708610   -0.000926766
      7        1           0.001627555    0.000686574   -0.000358328
      8        6          -0.025957545    0.012830471    0.010730357
      9        1           0.001510464   -0.000708428   -0.000927406
     10        1           0.001627485   -0.000687475   -0.000359040
     11        6           0.028406532    0.007532852   -0.007059177
     12        1           0.000416443    0.000379425   -0.000308855
     13        6           0.028403068   -0.007548305   -0.007059757
     14        1          -0.002073104    0.000781302    0.000743725
     15        1           0.000418089   -0.000380586   -0.000312352
     16        1          -0.002070466   -0.000780374    0.000744221
 -------------------------------------------------------------------
 Cartesian Forces:  Max     0.028406532 RMS     0.009029017
 IRC-IRC-IRC-IRC-IRC-IRC-IRC-IRC-IRC-IRC-IRC-IRC-IRC-IRC-IRC-IRC-IRC-IRC
 Pt  2 Step number   1 out of a maximum of  20
 CORRECTOR INTEGRATION CONVERGENCE:
   Recorrection delta-x convergence threshold:    0.010000
   Delta-x Convergence Met
 Point Number:   2          Path Number:   1
   CHANGE IN THE REACTION COORDINATE =    0.24941
   NET REACTION COORDINATE UP TO THIS POINT =    0.49889
  # OF POINTS ALONG THE PATH =   2
  # OF STEPS =   1

 Calculating another point on the path.
 IRC-IRC-IRC-IRC-IRC-IRC-IRC-IRC-IRC-IRC-IRC-IRC-IRC-IRC-IRC-IRC-IRC-IRC
                          Input orientation:                          
 ---------------------------------------------------------------------
 Center     Atomic      Atomic             Coordinates (Angstroms)
 Number     Number       Type             X           Y           Z
 ---------------------------------------------------------------------
      1          6           0       -1.233648    0.685035   -0.289774
      2          6           0       -1.233814   -0.684838   -0.289670
      3          1           0       -1.836966    1.231320   -1.031471
      4          1           0       -1.837334   -1.231111   -1.031209
      5          6           0        1.436696   -0.713467   -0.229621
      6          1           0        2.061223   -1.229878    0.517439
      7          1           0        1.361282   -1.229955   -1.199699
      8          6           0        1.436912    0.713164   -0.229499
      9          1           0        2.061456    1.229260    0.517761
     10          1           0        1.361767    1.229863   -1.199483
     11          6           0       -0.307691   -1.401030    0.503611
     12          1           0       -0.236243   -2.490750    0.367261
     13          6           0       -0.307484    1.401155    0.503520
     14          1           0       -0.105185    1.061428    1.533259
     15          1           0       -0.235835    2.490850    0.367094
     16          1           0       -0.105282   -1.061264    1.533317
 ---------------------------------------------------------------------
                    Distance matrix (angstroms):
                    1          2          3          4          5
     1  C    0.000000
     2  C    1.369873   0.000000
     3  H    1.101151   2.141429   0.000000
     4  H    2.141443   1.101150   2.462430   0.000000
     5  C    3.014990   2.671338   3.891274   3.410245   0.000000
     6  H    3.895467   3.435951   4.863383   4.194885   1.102186
     7  H    3.350943   2.803539   4.039179   3.203051   1.101590
     8  C    2.671388   3.015096   3.410266   3.891482   1.426631
     9  H    3.435987   3.895448   4.194975   4.863465   2.173268
    10  H    2.803674   3.351250   3.203142   4.039673   2.173196
    11  C    2.416303   1.414188   3.409460   2.173558   2.013270
    12  H    3.392952   2.165185   4.286324   2.471013   2.512713
    13  C    1.414186   2.416319   2.173558   3.409494   2.837478
    14  H    2.176821   2.765197   3.099317   3.851308   2.938604
    15  H    2.165196   3.392977   2.471036   4.286379   3.663478
    16  H    2.765218   2.176824   3.851338   3.099297   2.367827
                    6          7          8          9         10
     6  H    0.000000
     7  H    1.854314   0.000000
     8  C    2.173268   2.173182   0.000000
     9  H    2.459138   3.080203   1.102183   0.000000
    10  H    3.080161   2.459819   1.101587   1.854318   0.000000
    11  C    2.375129   2.390816   2.837411   3.539983   3.550946
    12  H    2.625015   2.568473   3.663418   4.374991   4.341807
    13  C    3.540240   3.550841   2.013346   2.375211   2.390807
    14  H    3.312899   3.856167   2.367840   2.398695   3.106155
    15  H    4.375260   4.341661   2.512802   2.625234   2.568382
    16  H    2.398787   3.106226   2.938448   3.312492   3.856124
                   11         12         13         14         15
    11  C    0.000000
    12  H    1.100539   0.000000
    13  C    2.802184   3.894941   0.000000
    14  H    2.676730   3.740949   1.103042   0.000000
    15  H    3.894936   4.981600   1.100537   1.849393   0.000000
    16  H    1.103043   1.849396   2.676728   2.122692   3.740940
                   16
    16  H    0.000000
 Symmetry turned off by external request.
 Stoichiometry    C6H10
 Framework group  C1[X(C6H10)]
 Deg. of freedom    42
 Full point group                 C1      NOp   1
 Rotational constants (GHZ):      4.4152000      3.9623376      2.5005600
 Standard basis: VSTO-6G (5D, 7F)
 Integral buffers will be    131072 words long.
 Regular integral format.
 Two-electron integral symmetry is turned off.
    34 basis functions,   204 primitive gaussians,    34 cartesian basis functions
    17 alpha electrons       17 beta electrons
       nuclear repulsion energy       142.4905685679 Hartrees.
 Do NDO integrals.
 One-electron integrals computed using PRISM.
 NBasis=    34 RedAO= F  NBF=    34
 NBsUse=    34 1.00D-04 NBFU=    34
 Initial guess read from the read-write file.
 B after Tr=     0.000000    0.000000    0.000000
         Rot=    1.000000    0.000000    0.000000    0.000000 Ang=   0.00 deg.
 Requested convergence on RMS density matrix=1.00D-08 within 128 cycles.
 Requested convergence on MAX density matrix=1.00D-06.
 Requested convergence on             energy=1.00D-06.
 No special actions if energy rises.
 Overlap will be assumed to be unity.
 Keep J ints in memory in canonical form, NReq=883444.
 SCF Done:  E(RAM1) =  0.101286686914     A.U. after   13 cycles
             Convg  =    0.2127D-08             -V/T =  1.0019
 Range of M.O.s used for correlation:     1    34
 NBasis=    34 NAE=    17 NBE=    17 NFC=     0 NFV=     0
 NROrb=     34 NOA=    17 NOB=    17 NVA=    17 NVB=    17
 Symmetrizing basis deriv contribution to polar:
 IMax=3 JMax=2 DiffMx= 0.00D+00
 G2DrvN: will do    17 centers at a time, making    1 passes doing MaxLOS=1.
 Calling FoFCou, ICntrl=  3107 FMM=F I1Cent=   0 AccDes= 0.00D+00.
 FoFDir/FoFCou used for L=0 through L=1.
 End of G2Drv Frequency-dependent properties file   721 does not exist.
 End of G2Drv Frequency-dependent properties file   722 does not exist.
          IDoAtm=1111111111111111
          Differentiating once with respect to electric field.
                with respect to dipole field.
          Differentiating once with respect to nuclear coordinates.
          Electric field/nuclear overlap derivatives assumed to be zero.
          Keep J ints in memory in canonical form, NReq=803419.
          There are    51 degrees of freedom in the 1st order CPHF.  IDoFFX=5.
 LinEq1:  Iter=  0 NonCon=    51 RMS=3.40D-01 Max=3.70D+00
 AX will form    51 AO Fock derivatives at one time.
 LinEq1:  Iter=  1 NonCon=    51 RMS=5.21D-02 Max=2.53D-01
 LinEq1:  Iter=  2 NonCon=    51 RMS=4.44D-03 Max=2.17D-02
 LinEq1:  Iter=  3 NonCon=    51 RMS=3.54D-04 Max=3.99D-03
 LinEq1:  Iter=  4 NonCon=    51 RMS=7.49D-05 Max=8.16D-04
 LinEq1:  Iter=  5 NonCon=    51 RMS=1.14D-05 Max=1.20D-04
 LinEq1:  Iter=  6 NonCon=    51 RMS=1.54D-06 Max=8.60D-06
 LinEq1:  Iter=  7 NonCon=    39 RMS=1.50D-07 Max=8.26D-07
 LinEq1:  Iter=  8 NonCon=     3 RMS=1.69D-08 Max=9.41D-08
 LinEq1:  Iter=  9 NonCon=     0 RMS=1.88D-09 Max=1.05D-08
 Linear equations converged to 1.000D-08 1.000D-07 after     9 iterations.
 Isotropic polarizability for W=    0.000000       60.02 Bohr**3.
 End of Minotr Frequency-dependent properties file   721 does not exist.
 End of Minotr Frequency-dependent properties file   722 does not exist.
 Calling FoFJK, ICntrl=    100127 FMM=F ISym2X=0 I1Cent= 0 IOpClX= 0 NMat=1 NMatS=1 NMatT=0.
 -------------------------------------------------------------------
 Center     Atomic                   Forces (Hartrees/Bohr)
 Number     Number              X              Y              Z
 -------------------------------------------------------------------
      1        6          -0.003326659   -0.008222474   -0.005145187
      2        6          -0.003318666    0.008226546   -0.005149637
      3        1          -0.001517379    0.000613418    0.001707778
      4        1          -0.001514592   -0.000611235    0.001704853
      5        6          -0.036694246   -0.016805922    0.015400903
      6        1           0.001940400    0.001015746   -0.001214360
      7        1           0.002026442    0.000985819   -0.000411540
      8        6          -0.036692674    0.016813883    0.015394735
      9        1           0.001939499   -0.001015176   -0.001214382
     10        1           0.002027008   -0.000987177   -0.000412330
     11        6           0.039569255    0.010925383   -0.010754221
     12        1           0.000663588    0.000549282   -0.000483432
     13        6           0.039567878   -0.010938730   -0.010751339
     14        1          -0.002668161    0.001036027    0.000906951
     15        1           0.000665061   -0.000550223   -0.000485636
     16        1          -0.002666754   -0.001035168    0.000906844
 -------------------------------------------------------------------
 Cartesian Forces:  Max     0.039569255 RMS     0.012581651
 IRC-IRC-IRC-IRC-IRC-IRC-IRC-IRC-IRC-IRC-IRC-IRC-IRC-IRC-IRC-IRC-IRC-IRC
 Pt  3 Step number   1 out of a maximum of  20
 CORRECTOR INTEGRATION CONVERGENCE:
   Recorrection delta-x convergence threshold:    0.010000
   Delta-x Convergence Met
 Point Number:   3          Path Number:   1
   CHANGE IN THE REACTION COORDINATE =    0.24941
   NET REACTION COORDINATE UP TO THIS POINT =    0.74830
  # OF POINTS ALONG THE PATH =   3
  # OF STEPS =   1

 Calculating another point on the path.
 IRC-IRC-IRC-IRC-IRC-IRC-IRC-IRC-IRC-IRC-IRC-IRC-IRC-IRC-IRC-IRC-IRC-IRC
                          Input orientation:                          
 ---------------------------------------------------------------------
 Center     Atomic      Atomic             Coordinates (Angstroms)
 Number     Number       Type             X           Y           Z
 ---------------------------------------------------------------------
      1          6           0       -1.234908    0.681786   -0.291869
      2          6           0       -1.235071   -0.681587   -0.291767
      3          1           0       -1.844826    1.234585   -1.022737
      4          1           0       -1.845182   -1.234366   -1.022486
      5          6           0        1.421101   -0.720299   -0.223035
      6          1           0        2.070745   -1.224957    0.511946
      7          1           0        1.370743   -1.225147   -1.201933
      8          6           0        1.421318    0.720000   -0.222916
      9          1           0        2.070973    1.224342    0.512268
     10          1           0        1.371231    1.225049   -1.201722
     11          6           0       -0.291015   -1.396365    0.498859
     12          1           0       -0.232611   -2.487984    0.364661
     13          6           0       -0.290809    1.396485    0.498769
     14          1           0       -0.117842    1.066272    1.537996
     15          1           0       -0.232198    2.488080    0.364485
     16          1           0       -0.117933   -1.066104    1.538053
 ---------------------------------------------------------------------
                    Distance matrix (angstroms):
                    1          2          3          4          5
     1  C    0.000000
     2  C    1.363373   0.000000
     3  H    1.100797   2.139587   0.000000
     4  H    2.139597   1.100796   2.468951   0.000000
     5  C    3.004159   2.657343   3.889393   3.401764   0.000000
     6  H    3.899889   3.445232   4.871991   4.205836   1.103139
     7  H    3.354702   2.813205   4.052440   3.220941   1.102564
     8  C    2.657396   3.004262   3.401795   3.889587   1.440300
     9  H    3.445265   3.899867   4.205927   4.872062   2.178218
    10  H    2.813348   3.355009   3.221048   4.052920   2.178232
    11  C    2.415553   1.423811   3.413426   2.180865   1.977255
    12  H    3.388668   2.167693   4.287380   2.469032   2.490956
    13  C    1.423807   2.415566   2.180862   3.413454   2.816454
    14  H    2.178090   2.766089   3.093244   3.851326   2.943028
    15  H    2.167701   3.388689   2.469049   4.287425   3.656812
    16  H    2.766111   2.178094   3.851360   3.093229   2.364242
                    6          7          8          9         10
     6  H    0.000000
     7  H    1.851320   0.000000
     8  C    2.178219   2.178217   0.000000
     9  H    2.449300   3.070636   1.103136   0.000000
    10  H    3.070588   2.450196   1.102562   1.851324   0.000000
    11  C    2.368008   2.383998   2.816389   3.528069   3.539328
    12  H    2.631042   2.572881   3.656760   4.371459   4.337335
    13  C    3.528324   3.539222   1.977331   2.368085   2.383996
    14  H    3.330529   3.869586   2.364261   2.422398   3.122275
    15  H    4.371720   4.337181   2.491036   2.631248   2.572787
    16  H    2.422486   3.122334   2.942868   3.330118   3.869542
                   11         12         13         14         15
    11  C    0.000000
    12  H    1.101387   0.000000
    13  C    2.792849   3.887219   0.000000
    14  H    2.678502   3.744680   1.104061   0.000000
    15  H    3.887213   4.976064   1.101384   1.847090   0.000000
    16  H    1.104062   1.847091   2.678496   2.132376   3.744668
                   16
    16  H    0.000000
 Symmetry turned off by external request.
 Stoichiometry    C6H10
 Framework group  C1[X(C6H10)]
 Deg. of freedom    42
 Full point group                 C1      NOp   1
 Rotational constants (GHZ):      4.4300715      4.0003004      2.5164192
 Standard basis: VSTO-6G (5D, 7F)
 Integral buffers will be    131072 words long.
 Regular integral format.
 Two-electron integral symmetry is turned off.
    34 basis functions,   204 primitive gaussians,    34 cartesian basis functions
    17 alpha electrons       17 beta electrons
       nuclear repulsion energy       142.6182069651 Hartrees.
 Do NDO integrals.
 One-electron integrals computed using PRISM.
 NBasis=    34 RedAO= F  NBF=    34
 NBsUse=    34 1.00D-04 NBFU=    34
 Initial guess read from the read-write file.
 B after Tr=     0.000000    0.000000    0.000000
         Rot=    1.000000    0.000000    0.000000    0.000000 Ang=   0.00 deg.
 Requested convergence on RMS density matrix=1.00D-08 within 128 cycles.
 Requested convergence on MAX density matrix=1.00D-06.
 Requested convergence on             energy=1.00D-06.
 No special actions if energy rises.
 Overlap will be assumed to be unity.
 Keep J ints in memory in canonical form, NReq=883444.
 SCF Done:  E(RAM1) =  0.940819395347E-01 A.U. after   12 cycles
             Convg  =    0.2883D-08             -V/T =  1.0018
 Range of M.O.s used for correlation:     1    34
 NBasis=    34 NAE=    17 NBE=    17 NFC=     0 NFV=     0
 NROrb=     34 NOA=    17 NOB=    17 NVA=    17 NVB=    17
 Symmetrizing basis deriv contribution to polar:
 IMax=3 JMax=2 DiffMx= 0.00D+00
 G2DrvN: will do    17 centers at a time, making    1 passes doing MaxLOS=1.
 Calling FoFCou, ICntrl=  3107 FMM=F I1Cent=   0 AccDes= 0.00D+00.
 FoFDir/FoFCou used for L=0 through L=1.
 End of G2Drv Frequency-dependent properties file   721 does not exist.
 End of G2Drv Frequency-dependent properties file   722 does not exist.
          IDoAtm=1111111111111111
          Differentiating once with respect to electric field.
                with respect to dipole field.
          Differentiating once with respect to nuclear coordinates.
          Electric field/nuclear overlap derivatives assumed to be zero.
          Keep J ints in memory in canonical form, NReq=803419.
          There are    51 degrees of freedom in the 1st order CPHF.  IDoFFX=5.
 LinEq1:  Iter=  0 NonCon=    51 RMS=3.22D-01 Max=3.45D+00
 AX will form    51 AO Fock derivatives at one time.
 LinEq1:  Iter=  1 NonCon=    51 RMS=4.95D-02 Max=2.35D-01
 LinEq1:  Iter=  2 NonCon=    51 RMS=4.31D-03 Max=2.25D-02
 LinEq1:  Iter=  3 NonCon=    51 RMS=3.49D-04 Max=3.80D-03
 LinEq1:  Iter=  4 NonCon=    51 RMS=7.01D-05 Max=8.59D-04
 LinEq1:  Iter=  5 NonCon=    51 RMS=9.90D-06 Max=9.54D-05
 LinEq1:  Iter=  6 NonCon=    51 RMS=1.24D-06 Max=8.11D-06
 LinEq1:  Iter=  7 NonCon=    25 RMS=1.35D-07 Max=8.19D-07
 LinEq1:  Iter=  8 NonCon=     3 RMS=1.51D-08 Max=7.37D-08
 LinEq1:  Iter=  9 NonCon=     0 RMS=1.66D-09 Max=9.06D-09
 Linear equations converged to 1.000D-08 1.000D-07 after     9 iterations.
 Isotropic polarizability for W=    0.000000       58.64 Bohr**3.
 End of Minotr Frequency-dependent properties file   721 does not exist.
 End of Minotr Frequency-dependent properties file   722 does not exist.
 Calling FoFJK, ICntrl=    100127 FMM=F ISym2X=0 I1Cent= 0 IOpClX= 0 NMat=1 NMatS=1 NMatT=0.
 -------------------------------------------------------------------
 Center     Atomic                   Forces (Hartrees/Bohr)
 Number     Number              X              Y              Z
 -------------------------------------------------------------------
      1        6          -0.002974445   -0.007907727   -0.005621145
      2        6          -0.002966310    0.007910748   -0.005625608
      3        1          -0.001885810    0.000789637    0.002193490
      4        1          -0.001883245   -0.000787771    0.002191110
      5        6          -0.044798794   -0.018722326    0.019085585
      6        1           0.002000589    0.001278423   -0.001368288
      7        1           0.002067404    0.001244439   -0.000299967
      8        6          -0.044796836    0.018731893    0.019078067
      9        1           0.001999395   -0.001277662   -0.001368138
     10        1           0.002068309   -0.001246032   -0.000300883
     11        6           0.047509501    0.013796677   -0.014133735
     12        1           0.000951383    0.000717180   -0.000663947
     13        6           0.047508273   -0.013810364   -0.014129232
     14        1          -0.002876505    0.001175435    0.000814134
     15        1           0.000952642   -0.000717996   -0.000665489
     16        1          -0.002875550   -0.001174552    0.000814048
 -------------------------------------------------------------------
 Cartesian Forces:  Max     0.047509501 RMS     0.015147300
 IRC-IRC-IRC-IRC-IRC-IRC-IRC-IRC-IRC-IRC-IRC-IRC-IRC-IRC-IRC-IRC-IRC-IRC
 Pt  4 Step number   1 out of a maximum of  20
 CORRECTOR INTEGRATION CONVERGENCE:
   Recorrection delta-x convergence threshold:    0.010000
   Delta-x Convergence Met
 Point Number:   4          Path Number:   1
   CHANGE IN THE REACTION COORDINATE =    0.24940
   NET REACTION COORDINATE UP TO THIS POINT =    0.99770
  # OF POINTS ALONG THE PATH =   4
  # OF STEPS =   1

 Calculating another point on the path.
 IRC-IRC-IRC-IRC-IRC-IRC-IRC-IRC-IRC-IRC-IRC-IRC-IRC-IRC-IRC-IRC-IRC-IRC
                          Input orientation:                          
 ---------------------------------------------------------------------
 Center     Atomic      Atomic             Coordinates (Angstroms)
 Number     Number       Type             X           Y           Z
 ---------------------------------------------------------------------
      1          6           0       -1.235784    0.679247   -0.293749
      2          6           0       -1.235943   -0.679048   -0.293648
      3          1           0       -1.852870    1.238044   -1.013373
      4          1           0       -1.853217   -1.237819   -1.013132
      5          6           0        1.405222   -0.726598   -0.216229
      6          1           0        2.078644   -1.219715    0.506754
      7          1           0        1.378581   -1.220010   -1.203144
      8          6           0        1.405439    0.726302   -0.216113
      9          1           0        2.078866    1.219103    0.507077
     10          1           0        1.379073    1.219905   -1.202936
     11          6           0       -0.274330   -1.391423    0.493659
     12          1           0       -0.228267   -2.484910    0.361684
     13          6           0       -0.274125    1.391538    0.493570
     14          1           0       -0.129072    1.070870    1.541299
     15          1           0       -0.227848    2.485003    0.361503
     16          1           0       -0.129160   -1.070698    1.541356
 ---------------------------------------------------------------------
                    Distance matrix (angstroms):
                    1          2          3          4          5
     1  C    0.000000
     2  C    1.358295   0.000000
     3  H    1.100413   2.138655   0.000000
     4  H    2.138662   1.100412   2.475863   0.000000
     5  C    2.992878   2.642728   3.887213   3.393203   0.000000
     6  H    3.902857   3.452456   4.879362   4.215437   1.104249
     7  H    3.356945   2.820560   4.064520   3.237428   1.103706
     8  C    2.642783   2.992979   3.393241   3.887396   1.452900
     9  H    3.452487   3.902832   4.215528   4.879423   2.182365
    10  H    2.820711   3.357252   3.237549   4.064988   2.182464
    11  C    2.414969   1.432491   3.417167   2.187897   1.940832
    12  H    3.384756   2.169335   4.288416   2.466945   2.468589
    13  C    1.432487   2.414981   2.187893   3.417192   2.794731
    14  H    2.178435   2.766660   3.086386   3.850692   2.945141
    15  H    2.169342   3.384774   2.466959   4.288455   3.648982
    16  H    2.766683   2.178440   3.850728   3.086374   2.358355
                    6          7          8          9         10
     6  H    0.000000
     7  H    1.847658   0.000000
     8  C    2.182366   2.182449   0.000000
     9  H    2.438818   3.060151   1.104246   0.000000
    10  H    3.060095   2.439915   1.103703   1.847662   0.000000
    11  C    2.359267   2.375003   2.794666   3.514621   3.525792
    12  H    2.635071   2.574999   3.648935   4.366201   4.330962
    13  C    3.514873   3.525686   1.940908   2.359339   2.375007
    14  H    3.345306   3.879835   2.358379   2.442659   3.134891
    15  H    4.366456   4.330803   2.468663   2.635266   2.574906
    16  H    2.442745   3.134941   2.944979   3.344892   3.879790
                   11         12         13         14         15
    11  C    0.000000
    12  H    1.102386   0.000000
    13  C    2.782961   3.878962   0.000000
    14  H    2.679839   3.747653   1.105262   0.000000
    15  H    3.878956   4.969913   1.102383   1.844301   0.000000
    16  H    1.105263   1.844300   2.679828   2.141568   3.747639
                   16
    16  H    0.000000
 Symmetry turned off by external request.
 Stoichiometry    C6H10
 Framework group  C1[X(C6H10)]
 Deg. of freedom    42
 Full point group                 C1      NOp   1
 Rotational constants (GHZ):      4.4470307      4.0411440      2.5330908
 Standard basis: VSTO-6G (5D, 7F)
 Integral buffers will be    131072 words long.
 Regular integral format.
 Two-electron integral symmetry is turned off.
    34 basis functions,   204 primitive gaussians,    34 cartesian basis functions
    17 alpha electrons       17 beta electrons
       nuclear repulsion energy       142.7717311605 Hartrees.
 Do NDO integrals.
 One-electron integrals computed using PRISM.
 NBasis=    34 RedAO= F  NBF=    34
 NBsUse=    34 1.00D-04 NBFU=    34
 Initial guess read from the read-write file.
 B after Tr=     0.000000    0.000000    0.000000
         Rot=    1.000000    0.000000    0.000000    0.000000 Ang=   0.00 deg.
 Requested convergence on RMS density matrix=1.00D-08 within 128 cycles.
 Requested convergence on MAX density matrix=1.00D-06.
 Requested convergence on             energy=1.00D-06.
 No special actions if energy rises.
 Overlap will be assumed to be unity.
 Keep J ints in memory in canonical form, NReq=883444.
 SCF Done:  E(RAM1) =  0.857894969505E-01 A.U. after   11 cycles
             Convg  =    0.9147D-08             -V/T =  1.0016
 Range of M.O.s used for correlation:     1    34
 NBasis=    34 NAE=    17 NBE=    17 NFC=     0 NFV=     0
 NROrb=     34 NOA=    17 NOB=    17 NVA=    17 NVB=    17
 Symmetrizing basis deriv contribution to polar:
 IMax=3 JMax=2 DiffMx= 0.00D+00
 G2DrvN: will do    17 centers at a time, making    1 passes doing MaxLOS=1.
 Calling FoFCou, ICntrl=  3107 FMM=F I1Cent=   0 AccDes= 0.00D+00.
 FoFDir/FoFCou used for L=0 through L=1.
 End of G2Drv Frequency-dependent properties file   721 does not exist.
 End of G2Drv Frequency-dependent properties file   722 does not exist.
          IDoAtm=1111111111111111
          Differentiating once with respect to electric field.
                with respect to dipole field.
          Differentiating once with respect to nuclear coordinates.
          Electric field/nuclear overlap derivatives assumed to be zero.
          Keep J ints in memory in canonical form, NReq=803419.
          There are    51 degrees of freedom in the 1st order CPHF.  IDoFFX=5.
 LinEq1:  Iter=  0 NonCon=    51 RMS=3.08D-01 Max=3.36D+00
 AX will form    51 AO Fock derivatives at one time.
 LinEq1:  Iter=  1 NonCon=    51 RMS=4.75D-02 Max=2.21D-01
 LinEq1:  Iter=  2 NonCon=    51 RMS=4.22D-03 Max=2.25D-02
 LinEq1:  Iter=  3 NonCon=    51 RMS=3.59D-04 Max=2.79D-03
 LinEq1:  Iter=  4 NonCon=    51 RMS=5.43D-05 Max=6.33D-04
 LinEq1:  Iter=  5 NonCon=    51 RMS=7.23D-06 Max=7.07D-05
 LinEq1:  Iter=  6 NonCon=    51 RMS=1.11D-06 Max=7.43D-06
 LinEq1:  Iter=  7 NonCon=    19 RMS=1.32D-07 Max=6.50D-07
 LinEq1:  Iter=  8 NonCon=     2 RMS=1.31D-08 Max=6.23D-08
 LinEq1:  Iter=  9 NonCon=     0 RMS=1.45D-09 Max=7.76D-09
 Linear equations converged to 1.000D-08 1.000D-07 after     9 iterations.
 Isotropic polarizability for W=    0.000000       57.17 Bohr**3.
 End of Minotr Frequency-dependent properties file   721 does not exist.
 End of Minotr Frequency-dependent properties file   722 does not exist.
 Calling FoFJK, ICntrl=    100127 FMM=F ISym2X=0 I1Cent= 0 IOpClX= 0 NMat=1 NMatS=1 NMatT=0.
 -------------------------------------------------------------------
 Center     Atomic                   Forces (Hartrees/Bohr)
 Number     Number              X              Y              Z
 -------------------------------------------------------------------
      1        6          -0.002137990   -0.006873548   -0.005608002
      2        6          -0.002130168    0.006875937   -0.005612533
      3        1          -0.002135429    0.000928447    0.002602493
      4        1          -0.002133072   -0.000926765    0.002600449
      5        6          -0.050806074   -0.019187554    0.021953552
      6        1           0.001799001    0.001480992   -0.001401609
      7        1           0.001854512    0.001447535   -0.000096611
      8        6          -0.050804244    0.019198411    0.021944992
      9        1           0.001797683   -0.001480054   -0.001401412
     10        1           0.001855557   -0.001449250   -0.000097604
     11        6           0.052958314    0.016186948   -0.017173411
     12        1           0.001257306    0.000872930   -0.000842587
     13        6           0.052957053   -0.016201184   -0.017167910
     14        1          -0.002795763    0.001218492    0.000571974
     15        1           0.001258384   -0.000873695   -0.000843707
     16        1          -0.002795069   -0.001217642    0.000571927
 -------------------------------------------------------------------
 Cartesian Forces:  Max     0.052958314 RMS     0.016973012
 IRC-IRC-IRC-IRC-IRC-IRC-IRC-IRC-IRC-IRC-IRC-IRC-IRC-IRC-IRC-IRC-IRC-IRC
 Pt  5 Step number   1 out of a maximum of  20
 CORRECTOR INTEGRATION CONVERGENCE:
   Recorrection delta-x convergence threshold:    0.010000
   Delta-x Convergence Met
 Point Number:   5          Path Number:   1
   CHANGE IN THE REACTION COORDINATE =    0.24940
   NET REACTION COORDINATE UP TO THIS POINT =    1.24710
  # OF POINTS ALONG THE PATH =   5
  # OF STEPS =   1

 Calculating another point on the path.
 IRC-IRC-IRC-IRC-IRC-IRC-IRC-IRC-IRC-IRC-IRC-IRC-IRC-IRC-IRC-IRC-IRC-IRC
                          Input orientation:                          
 ---------------------------------------------------------------------
 Center     Atomic      Atomic             Coordinates (Angstroms)
 Number     Number       Type             X           Y           Z
 ---------------------------------------------------------------------
      1          6           0       -1.236285    0.677296   -0.295414
      2          6           0       -1.236443   -0.677096   -0.295315
      3          1           0       -1.860954    1.241652   -1.003446
      4          1           0       -1.861292   -1.241421   -1.003212
      5          6           0        1.389109   -0.732362   -0.209227
      6          1           0        2.084801   -1.214258    0.502008
      7          1           0        1.384694   -1.214639   -1.203381
      8          6           0        1.389326    0.732070   -0.209114
      9          1           0        2.085018    1.213649    0.502331
     10          1           0        1.385190    1.214528   -1.203177
     11          6           0       -0.257685   -1.386233    0.488029
     12          1           0       -0.223189   -2.481553    0.358329
     13          6           0       -0.257480    1.386344    0.487942
     14          1           0       -0.138718    1.075134    1.543226
     15          1           0       -0.222767    2.481643    0.358145
     16          1           0       -0.138804   -1.074960    1.543282
 ---------------------------------------------------------------------
                    Distance matrix (angstroms):
                    1          2          3          4          5
     1  C    0.000000
     2  C    1.354392   0.000000
     3  H    1.100008   2.138471   0.000000
     4  H    2.138477   1.100008   2.483073   0.000000
     5  C    2.981151   2.627544   3.884640   3.384473   0.000000
     6  H    3.904289   3.457589   4.885373   4.223515   1.105471
     7  H    3.357582   2.825578   4.075239   3.252262   1.104967
     8  C    2.627601   2.981248   3.384518   3.884814   1.464432
     9  H    3.457619   3.904262   4.223606   4.885427   2.185764
    10  H    2.825736   3.357888   3.252396   4.075698   2.185940
    11  C    2.414455   1.440302   3.420636   2.194613   1.904112
    12  H    3.381135   2.170253   4.289401   2.464773   2.445668
    13  C    1.440297   2.414466   2.194608   3.420658   2.772402
    14  H    2.177964   2.766865   3.078858   3.849420   2.944892
    15  H    2.170259   3.381150   2.464785   4.289435   3.640038
    16  H    2.766888   2.177969   3.849457   3.078848   2.350145
                    6          7          8          9         10
     6  H    0.000000
     7  H    1.843503   0.000000
     8  C    2.185765   2.185924   0.000000
     9  H    2.427907   3.049015   1.105468   0.000000
    10  H    3.048953   2.429168   1.104964   1.843508   0.000000
    11  C    2.348832   2.363836   2.772339   3.499693   3.510438
    12  H    2.636948   2.574742   3.639995   4.359252   4.322754
    13  C    3.499944   3.510331   1.904188   2.348899   2.363847
    14  H    3.357006   3.886862   2.350172   2.459198   3.143956
    15  H    4.359500   4.322591   2.445738   2.637133   2.574652
    16  H    2.459283   3.143997   2.944729   3.356590   3.886818
                   11         12         13         14         15
    11  C    0.000000
    12  H    1.103512   0.000000
    13  C    2.772577   3.870220   0.000000
    14  H    2.680657   3.749819   1.106607   0.000000
    15  H    3.870213   4.963195   1.103509   1.841127   0.000000
    16  H    1.106609   1.841125   2.680642   2.150094   3.749803
                   16
    16  H    0.000000
 Symmetry turned off by external request.
 Stoichiometry    C6H10
 Framework group  C1[X(C6H10)]
 Deg. of freedom    42
 Full point group                 C1      NOp   1
 Rotational constants (GHZ):      4.4661179      4.0848769      2.5505972
 Standard basis: VSTO-6G (5D, 7F)
 Integral buffers will be    131072 words long.
 Regular integral format.
 Two-electron integral symmetry is turned off.
    34 basis functions,   204 primitive gaussians,    34 cartesian basis functions
    17 alpha electrons       17 beta electrons
       nuclear repulsion energy       142.9513085740 Hartrees.
 Do NDO integrals.
 One-electron integrals computed using PRISM.
 NBasis=    34 RedAO= F  NBF=    34
 NBsUse=    34 1.00D-04 NBFU=    34
 Initial guess read from the read-write file.
 B after Tr=     0.000000    0.000000    0.000000
         Rot=    1.000000    0.000000    0.000000    0.000000 Ang=   0.00 deg.
 Requested convergence on RMS density matrix=1.00D-08 within 128 cycles.
 Requested convergence on MAX density matrix=1.00D-06.
 Requested convergence on             energy=1.00D-06.
 No special actions if energy rises.
 Overlap will be assumed to be unity.
 Keep J ints in memory in canonical form, NReq=883444.
 SCF Done:  E(RAM1) =  0.767327935835E-01 A.U. after   11 cycles
             Convg  =    0.5400D-08             -V/T =  1.0015
 Range of M.O.s used for correlation:     1    34
 NBasis=    34 NAE=    17 NBE=    17 NFC=     0 NFV=     0
 NROrb=     34 NOA=    17 NOB=    17 NVA=    17 NVB=    17
 Symmetrizing basis deriv contribution to polar:
 IMax=3 JMax=2 DiffMx= 0.00D+00
 G2DrvN: will do    17 centers at a time, making    1 passes doing MaxLOS=1.
 Calling FoFCou, ICntrl=  3107 FMM=F I1Cent=   0 AccDes= 0.00D+00.
 FoFDir/FoFCou used for L=0 through L=1.
 End of G2Drv Frequency-dependent properties file   721 does not exist.
 End of G2Drv Frequency-dependent properties file   722 does not exist.
          IDoAtm=1111111111111111
          Differentiating once with respect to electric field.
                with respect to dipole field.
          Differentiating once with respect to nuclear coordinates.
          Electric field/nuclear overlap derivatives assumed to be zero.
          Keep J ints in memory in canonical form, NReq=803419.
          There are    51 degrees of freedom in the 1st order CPHF.  IDoFFX=5.
 LinEq1:  Iter=  0 NonCon=    51 RMS=2.99D-01 Max=3.30D+00
 AX will form    51 AO Fock derivatives at one time.
 LinEq1:  Iter=  1 NonCon=    51 RMS=4.58D-02 Max=2.11D-01
 LinEq1:  Iter=  2 NonCon=    51 RMS=4.13D-03 Max=2.23D-02
 LinEq1:  Iter=  3 NonCon=    51 RMS=3.66D-04 Max=1.93D-03
 LinEq1:  Iter=  4 NonCon=    51 RMS=5.75D-05 Max=4.74D-04
 LinEq1:  Iter=  5 NonCon=    51 RMS=7.31D-06 Max=5.13D-05
 LinEq1:  Iter=  6 NonCon=    51 RMS=1.06D-06 Max=6.58D-06
 LinEq1:  Iter=  7 NonCon=    15 RMS=1.25D-07 Max=6.39D-07
 LinEq1:  Iter=  8 NonCon=     1 RMS=1.20D-08 Max=4.41D-08
 LinEq1:  Iter=  9 NonCon=     0 RMS=1.24D-09 Max=4.75D-09
 Linear equations converged to 1.000D-08 1.000D-07 after     9 iterations.
 Isotropic polarizability for W=    0.000000       55.73 Bohr**3.
 End of Minotr Frequency-dependent properties file   721 does not exist.
 End of Minotr Frequency-dependent properties file   722 does not exist.
 Calling FoFJK, ICntrl=    100127 FMM=F ISym2X=0 I1Cent= 0 IOpClX= 0 NMat=1 NMatS=1 NMatT=0.
 -------------------------------------------------------------------
 Center     Atomic                   Forces (Hartrees/Bohr)
 Number     Number              X              Y              Z
 -------------------------------------------------------------------
      1        6          -0.001083109   -0.005664595   -0.005322676
      2        6          -0.001075738    0.005666529   -0.005327268
      3        1          -0.002287494    0.001034072    0.002943669
      4        1          -0.002285329   -0.001032509    0.002941856
      5        6          -0.055242106   -0.018822131    0.024178821
      6        1           0.001445494    0.001624742   -0.001343583
      7        1           0.001495992    0.001597512    0.000139730
      8        6          -0.055240842    0.018834083    0.024169555
      9        1           0.001444152   -0.001623646   -0.001343412
     10        1           0.001497039   -0.001599267    0.000138701
     11        6           0.056643152    0.018126812   -0.019844571
     12        1           0.001556367    0.001007944   -0.001011420
     13        6           0.056642010   -0.018141620   -0.019838511
     14        1          -0.002533699    0.001195685    0.000265689
     15        1           0.001557300   -0.001008697   -0.001012248
     16        1          -0.002533188   -0.001194912    0.000265669
 -------------------------------------------------------------------
 Cartesian Forces:  Max     0.056643152 RMS     0.018282196
 IRC-IRC-IRC-IRC-IRC-IRC-IRC-IRC-IRC-IRC-IRC-IRC-IRC-IRC-IRC-IRC-IRC-IRC
 Pt  6 Step number   1 out of a maximum of  20
 CORRECTOR INTEGRATION CONVERGENCE:
   Recorrection delta-x convergence threshold:    0.010000
   Delta-x Convergence Met
 Point Number:   6          Path Number:   1
   CHANGE IN THE REACTION COORDINATE =    0.24941
   NET REACTION COORDINATE UP TO THIS POINT =    1.49651
  # OF POINTS ALONG THE PATH =   6
  # OF STEPS =   1

 Calculating another point on the path.
 IRC-IRC-IRC-IRC-IRC-IRC-IRC-IRC-IRC-IRC-IRC-IRC-IRC-IRC-IRC-IRC-IRC-IRC
                          Input orientation:                          
 ---------------------------------------------------------------------
 Center     Atomic      Atomic             Coordinates (Angstroms)
 Number     Number       Type             X           Y           Z
 ---------------------------------------------------------------------
      1          6           0       -1.236442    0.675806   -0.296880
      2          6           0       -1.236598   -0.675606   -0.296782
      3          1           0       -1.868965    1.245368   -0.993018
      4          1           0       -1.869296   -1.245131   -0.992789
      5          6           0        1.372819   -0.737627   -0.202062
      6          1           0        2.089231   -1.208682    0.497804
      7          1           0        1.389110   -1.209116   -1.202748
      8          6           0        1.373036    0.737339   -0.201951
      9          1           0        2.089444    1.208077    0.498128
     10          1           0        1.389609    1.208999   -1.202548
     11          6           0       -0.241120   -1.380838    0.482009
     12          1           0       -0.217419   -2.477956    0.354614
     13          6           0       -0.240915    1.380944    0.481925
     14          1           0       -0.146749    1.079028    1.543905
     15          1           0       -0.216995    2.478043    0.354428
     16          1           0       -0.146833   -1.078851    1.543961
 ---------------------------------------------------------------------
                    Distance matrix (angstroms):
                    1          2          3          4          5
     1  C    0.000000
     2  C    1.351412   0.000000
     3  H    1.099589   2.138872   0.000000
     4  H    2.138877   1.099588   2.490499   0.000000
     5  C    2.969011   2.611871   3.881629   3.375518   0.000000
     6  H    3.904219   3.460733   4.890013   4.230028   1.106775
     7  H    3.356643   2.828382   4.084547   3.265362   1.106318
     8  C    2.611930   2.969107   3.375568   3.881795   1.474966
     9  H    3.460761   3.904190   4.230119   4.890060   2.188512
    10  H    2.828547   3.356949   3.265506   4.084999   2.188746
    11  C    2.413943   1.447358   3.423820   2.201001   1.867209
    12  H    3.377732   2.170601   4.290322   2.462529   2.422290
    13  C    1.447353   2.413952   2.200997   3.423840   2.749603
    14  H    2.176811   2.766701   3.070778   3.847558   2.942400
    15  H    2.170607   3.377746   2.462541   4.290352   3.630114
    16  H    2.766724   2.176816   3.847596   3.070770   2.339737
                    6          7          8          9         10
     6  H    0.000000
     7  H    1.839034   0.000000
     8  C    2.188513   2.188730   0.000000
     9  H    2.416759   3.037477   1.106772   0.000000
    10  H    3.037408   2.418115   1.106315   1.839040   0.000000
    11  C    2.336755   2.350647   2.749540   3.483427   3.493460
    12  H    2.636702   2.572211   3.630074   4.350754   4.312880
    13  C    3.483676   3.493352   1.867285   2.336818   2.350664
    14  H    3.365642   3.890830   2.339767   2.472016   3.149649
    15  H    4.350997   4.312715   2.422356   2.636877   2.572124
    16  H    2.472101   3.149682   2.942236   3.365225   3.890786
                   11         12         13         14         15
[...]
    14  H    3.483966   3.978304   2.168432   2.358836   3.058534
    15  H    4.234123   4.064030   2.163568   2.600108   2.346035
    16  H    2.360321   3.059162   3.016051   3.478612   3.977902
                   11         12         13         14         15
    11  C    0.000000
    12  H    1.121790   0.000000
    13  C    2.819465   3.896558   0.000000
    14  H    3.072500   4.193167   1.125141   0.000000
    15  H    3.896355   4.938508   1.121800   1.807188   0.000000
    16  H    1.125120   1.807223   3.071569   2.898238   4.192287
                   16
    16  H    0.000000
 Symmetry turned off by external request.
 Stoichiometry    C6H10
 Framework group  C1[X(C6H10)]
 Deg. of freedom    42
 Full point group                 C1      NOp   1
 Rotational constants (GHZ):      4.6778912      4.6605255      2.6080317
 Standard basis: VSTO-6G (5D, 7F)
 Integral buffers will be    131072 words long.
 Regular integral format.
 Two-electron integral symmetry is turned off.
    34 basis functions,   204 primitive gaussians,    34 cartesian basis functions
    17 alpha electrons       17 beta electrons
       nuclear repulsion energy       145.1897311229 Hartrees.
 Do NDO integrals.
 One-electron integrals computed using PRISM.
 NBasis=    34 RedAO= F  NBF=    34
 NBsUse=    34 1.00D-04 NBFU=    34
 Initial guess read from the read-write file.
 B after Tr=     0.000000    0.000000    0.000000
         Rot=    1.000000    0.000000    0.000000    0.000000 Ang=   0.00 deg.
 Requested convergence on RMS density matrix=1.00D-08 within 128 cycles.
 Requested convergence on MAX density matrix=1.00D-06.
 Requested convergence on             energy=1.00D-06.
 No special actions if energy rises.
 Overlap will be assumed to be unity.
 Keep J ints in memory in canonical form, NReq=883444.
 SCF Done:  E(RAM1) = -0.109961693267E-01 A.U. after    8 cycles
             Convg  =    0.6467D-08             -V/T =  0.9998
 Range of M.O.s used for correlation:     1    34
 NBasis=    34 NAE=    17 NBE=    17 NFC=     0 NFV=     0
 NROrb=     34 NOA=    17 NOB=    17 NVA=    17 NVB=    17
 Symmetrizing basis deriv contribution to polar:
 IMax=3 JMax=2 DiffMx= 0.00D+00
 G2DrvN: will do    17 centers at a time, making    1 passes doing MaxLOS=1.
 Calling FoFCou, ICntrl=  3107 FMM=F I1Cent=   0 AccDes= 0.00D+00.
 FoFDir/FoFCou used for L=0 through L=1.
 End of G2Drv Frequency-dependent properties file   721 does not exist.
 End of G2Drv Frequency-dependent properties file   722 does not exist.
          IDoAtm=1111111111111111
          Differentiating once with respect to electric field.
                with respect to dipole field.
          Differentiating once with respect to nuclear coordinates.
          Electric field/nuclear overlap derivatives assumed to be zero.
          Keep J ints in memory in canonical form, NReq=803419.
          There are    51 degrees of freedom in the 1st order CPHF.  IDoFFX=5.
 LinEq1:  Iter=  0 NonCon=    51 RMS=2.74D-01 Max=3.30D+00
 AX will form    51 AO Fock derivatives at one time.
 LinEq1:  Iter=  1 NonCon=    51 RMS=4.04D-02 Max=1.83D-01
 LinEq1:  Iter=  2 NonCon=    51 RMS=3.76D-03 Max=1.70D-02
 LinEq1:  Iter=  3 NonCon=    51 RMS=3.39D-04 Max=1.26D-03
 LinEq1:  Iter=  4 NonCon=    51 RMS=4.79D-05 Max=3.23D-04
 LinEq1:  Iter=  5 NonCon=    51 RMS=4.80D-06 Max=2.40D-05
 LinEq1:  Iter=  6 NonCon=    41 RMS=5.79D-07 Max=2.75D-06
 LinEq1:  Iter=  7 NonCon=     3 RMS=6.69D-08 Max=2.28D-07
 LinEq1:  Iter=  8 NonCon=     0 RMS=7.34D-09 Max=3.70D-08
 Linear equations converged to 1.000D-08 1.000D-07 after     8 iterations.
 Isotropic polarizability for W=    0.000000       48.16 Bohr**3.
 End of Minotr Frequency-dependent properties file   721 does not exist.
 End of Minotr Frequency-dependent properties file   722 does not exist.
 Calling FoFJK, ICntrl=    100127 FMM=F ISym2X=0 I1Cent= 0 IOpClX= 0 NMat=1 NMatS=1 NMatT=0.
 -------------------------------------------------------------------
 Center     Atomic                   Forces (Hartrees/Bohr)
 Number     Number              X              Y              Z
 -------------------------------------------------------------------
      1        6           0.000000886   -0.000000806   -0.000000366
      2        6           0.000000125   -0.000000253    0.000000595
      3        1          -0.000000604    0.000000485   -0.000000436
      4        1          -0.000000057   -0.000000121   -0.000000043
      5        6          -0.000000267    0.000000052   -0.000002204
      6        1          -0.000000155   -0.000000019   -0.000000795
      7        1          -0.000000515    0.000000365    0.000000084
      8        6           0.000000721    0.000000118    0.000001743
      9        1          -0.000000637   -0.000000451   -0.000000002
     10        1           0.000000159   -0.000000052    0.000000997
     11        6           0.000000255    0.000000408    0.000001149
     12        1          -0.000000017    0.000000116    0.000000316
     13        6           0.000000008    0.000000181   -0.000000459
     14        1          -0.000000078    0.000000119   -0.000000483
     15        1           0.000000027   -0.000000380   -0.000000024
     16        1           0.000000148    0.000000239   -0.000000071
 -------------------------------------------------------------------
 Cartesian Forces:  Max     0.000002204 RMS     0.000000585
 IRC-IRC-IRC-IRC-IRC-IRC-IRC-IRC-IRC-IRC-IRC-IRC-IRC-IRC-IRC-IRC-IRC-IRC
 Pt 27 Step number   1 out of a maximum of  20
 CORRECTOR INTEGRATION CONVERGENCE:
   Recorrection delta-x convergence threshold:    0.010000
   Delta-x Convergence Met
 Point Number:  27          Path Number:   1
   CHANGE IN THE REACTION COORDINATE =    0.01800
   NET REACTION COORDINATE UP TO THIS POINT =    6.32620
  # OF POINTS ALONG THE PATH =  27
  # OF STEPS =   1

 PES minimum detected on this side of the pathway.
    Magnitude of the gradient =      0.0000101
 Calculation of REVERSE path complete.
 Reaction path calculation complete.
 
 Energies reported relative to the TS energy of           0.111655
 --------------------------------------------------------------------------
    Summary of reaction path following
 --------------------------------------------------------------------------
                        Energy   Rx Coord
   1                   -0.12265  -6.32620
   2                   -0.12265  -6.30821
   3                   -0.12265  -6.22122
   4                   -0.12260  -5.97140
   5                   -0.12248  -5.72190
   6                   -0.12228  -5.47243
   7                   -0.12199  -5.22300
   8                   -0.12159  -4.97354
   9                   -0.12107  -4.72408
  10                   -0.12039  -4.47472
  11                   -0.11953  -4.22789
  12                   -0.11805  -3.98927
  13                   -0.11475  -3.74120
  14                   -0.10940  -3.49195
  15                   -0.10232  -3.24254
  16                   -0.09392  -2.99311
  17                   -0.08461  -2.74366
  18                   -0.07475  -2.49422
  19                   -0.06462  -2.24478
  20                   -0.05448  -1.99535
  21                   -0.04452  -1.74593
  22                   -0.03492  -1.49651
  23                   -0.02587  -1.24710
  24                   -0.01757  -0.99770
  25                   -0.01037  -0.74830
  26                   -0.00472  -0.49889
  27                   -0.00116  -0.24948
  28                    0.00000   0.00000
 --------------------------------------------------------------------------
 
 Total number of points:                   27
 Total number of gradient calculations:    29
 Total number of Hessian calculations:     29
 IRC-IRC-IRC-IRC-IRC-IRC-IRC-IRC-IRC-IRC-IRC-IRC-IRC-IRC-IRC-IRC-IRC-IRC
                          Input orientation:                          
 ---------------------------------------------------------------------
 Center     Atomic      Atomic             Coordinates (Angstroms)
 Number     Number       Type             X           Y           Z
 ---------------------------------------------------------------------
      1          6           0       -1.250910    0.668891   -0.243519
      2          6           0       -1.251114   -0.668919   -0.242999
      3          1           0       -2.094863    1.262637   -0.619788
      4          1           0       -2.095216   -1.262748   -0.618779
      5          6           0        1.235647   -0.759349   -0.076037
      6          1           0        2.024930   -1.131495    0.629736
      7          1           0        1.527184   -1.115190   -1.100647
      8          6           0        1.236209    0.759073   -0.074403
      9          1           0        2.023751    1.129111    0.634434
     10          1           0        1.531109    1.116772   -1.097404
     11          6           0       -0.085014   -1.409610    0.297077
     12          1           0       -0.089827   -2.469372   -0.070747
     13          6           0       -0.084897    1.409854    0.296333
     14          1           0       -0.178270    1.450044    1.416872
     15          1           0       -0.089199    2.469136   -0.072908
     16          1           0       -0.177311   -1.448194    1.417741
 ---------------------------------------------------------------------
                    Distance matrix (angstroms):
                    1          2          3          4          5
     1  C    0.000000
     2  C    1.337809   0.000000
     3  H    1.098349   2.141213   0.000000
     4  H    2.141239   1.098341   2.525386   0.000000
     5  C    2.872435   2.494000   3.934005   3.412130   0.000000
     6  H    3.838632   3.421711   4.926041   4.307160   1.122309
     7  H    3.411073   2.941710   4.359417   3.657288   1.123140
     8  C    2.494493   2.873041   3.412780   3.934781   1.518423
     9  H    3.421405   3.837648   4.307423   4.925183   2.166138
    10  H    2.944375   3.414595   3.660201   4.363649   2.156459
    11  C    2.443711   1.483272   3.467138   2.213882   1.518618
    12  H    3.350620   2.149392   4.271944   2.403718   2.163583
    13  C    1.483258   2.443816   2.213801   3.467221   2.566698
    14  H    2.125478   2.897614   2.802933   3.895869   3.018171
    15  H    2.149317   3.350577   2.403624   4.271890   3.489748
    16  H    2.897318   2.125648   3.895785   2.803599   2.168486
                    6          7          8          9         10
     6  H    0.000000
     7  H    1.800624   0.000000
     8  C    2.166135   2.156550   0.000000
     9  H    2.260611   2.879926   1.122319   0.000000
    10  H    2.877773   2.231967   1.123140   1.800587   0.000000
    11  C    2.154036   2.153950   2.566480   3.317500   3.307421
    12  H    2.598613   2.347174   3.490164   4.232443   4.067171
    13  C    3.319787   3.305481   1.518645   2.153956   2.154037
    14  H    3.483966   3.978304   2.168432   2.358836   3.058534
    15  H    4.234123   4.064030   2.163568   2.600108   2.346035
    16  H    2.360321   3.059162   3.016051   3.478612   3.977902
                   11         12         13         14         15
    11  C    0.000000
    12  H    1.121790   0.000000
    13  C    2.819465   3.896558   0.000000
    14  H    3.072500   4.193167   1.125141   0.000000
    15  H    3.896355   4.938508   1.121800   1.807188   0.000000
    16  H    1.125120   1.807223   3.071569   2.898238   4.192287
                   16
    16  H    0.000000
 Symmetry turned off by external request.
 Stoichiometry    C6H10
 Framework group  C1[X(C6H10)]
 Deg. of freedom    42
 Full point group                 C1      NOp   1
 Rotational constants (GHZ):      4.6778912      4.6605255      2.6080317

 **********************************************************************

            Population analysis using the SCF density.

 **********************************************************************

 Alpha  occ. eigenvalues --   -1.42113  -1.15810  -1.15420  -0.88321  -0.83653
 Alpha  occ. eigenvalues --   -0.64855  -0.62432  -0.60062  -0.53230  -0.50163
 Alpha  occ. eigenvalues --   -0.50146  -0.47880  -0.47294  -0.42286  -0.42033
 Alpha  occ. eigenvalues --   -0.39664  -0.35150
 Alpha virt. eigenvalues --    0.04864   0.13672   0.14325   0.14437   0.15821
 Alpha virt. eigenvalues --    0.15986   0.16473   0.16615   0.17325   0.17801
 Alpha virt. eigenvalues --    0.18071   0.18462   0.18971   0.19434   0.19520
 Alpha virt. eigenvalues --    0.21310   0.22245
          Condensed to atoms (all electrons):
              1          2          3          4          5          6
     1  C    4.167134   0.000000   0.000000   0.000000   0.000000   0.000000
     2  C    0.000000   4.167156   0.000000   0.000000   0.000000   0.000000
     3  H    0.000000   0.000000   0.876134   0.000000   0.000000   0.000000
     4  H    0.000000   0.000000   0.000000   0.876121   0.000000   0.000000
     5  C    0.000000   0.000000   0.000000   0.000000   4.149824   0.000000
     6  H    0.000000   0.000000   0.000000   0.000000   0.000000   0.924620
     7  H    0.000000   0.000000   0.000000   0.000000   0.000000   0.000000
     8  C    0.000000   0.000000   0.000000   0.000000   0.000000   0.000000
     9  H    0.000000   0.000000   0.000000   0.000000   0.000000   0.000000
    10  H    0.000000   0.000000   0.000000   0.000000   0.000000   0.000000
    11  C    0.000000   0.000000   0.000000   0.000000   0.000000   0.000000
    12  H    0.000000   0.000000   0.000000   0.000000   0.000000   0.000000
    13  C    0.000000   0.000000   0.000000   0.000000   0.000000   0.000000
    14  H    0.000000   0.000000   0.000000   0.000000   0.000000   0.000000
    15  H    0.000000   0.000000   0.000000   0.000000   0.000000   0.000000
    16  H    0.000000   0.000000   0.000000   0.000000   0.000000   0.000000
              7          8          9         10         11         12
     1  C    0.000000   0.000000   0.000000   0.000000   0.000000   0.000000
     2  C    0.000000   0.000000   0.000000   0.000000   0.000000   0.000000
     3  H    0.000000   0.000000   0.000000   0.000000   0.000000   0.000000
     4  H    0.000000   0.000000   0.000000   0.000000   0.000000   0.000000
     5  C    0.000000   0.000000   0.000000   0.000000   0.000000   0.000000
     6  H    0.000000   0.000000   0.000000   0.000000   0.000000   0.000000
     7  H    0.922318   0.000000   0.000000   0.000000   0.000000   0.000000
     8  C    0.000000   4.149819   0.000000   0.000000   0.000000   0.000000
     9  H    0.000000   0.000000   0.924644   0.000000   0.000000   0.000000
    10  H    0.000000   0.000000   0.000000   0.922334   0.000000   0.000000
    11  C    0.000000   0.000000   0.000000   0.000000   4.129237   0.000000
    12  H    0.000000   0.000000   0.000000   0.000000   0.000000   0.917536
    13  C    0.000000   0.000000   0.000000   0.000000   0.000000   0.000000
    14  H    0.000000   0.000000   0.000000   0.000000   0.000000   0.000000
    15  H    0.000000   0.000000   0.000000   0.000000   0.000000   0.000000
    16  H    0.000000   0.000000   0.000000   0.000000   0.000000   0.000000
             13         14         15         16
     1  C    0.000000   0.000000   0.000000   0.000000
     2  C    0.000000   0.000000   0.000000   0.000000
     3  H    0.000000   0.000000   0.000000   0.000000
     4  H    0.000000   0.000000   0.000000   0.000000
     5  C    0.000000   0.000000   0.000000   0.000000
     6  H    0.000000   0.000000   0.000000   0.000000
     7  H    0.000000   0.000000   0.000000   0.000000
     8  C    0.000000   0.000000   0.000000   0.000000
     9  H    0.000000   0.000000   0.000000   0.000000
    10  H    0.000000   0.000000   0.000000   0.000000
    11  C    0.000000   0.000000   0.000000   0.000000
    12  H    0.000000   0.000000   0.000000   0.000000
    13  C    4.129227   0.000000   0.000000   0.000000
    14  H    0.000000   0.913185   0.000000   0.000000
    15  H    0.000000   0.000000   0.917542   0.000000
    16  H    0.000000   0.000000   0.000000   0.913168
 Mulliken atomic charges:
              1
     1  C   -0.167134
     2  C   -0.167156
     3  H    0.123866
     4  H    0.123879
     5  C   -0.149824
     6  H    0.075380
     7  H    0.077682
     8  C   -0.149819
     9  H    0.075356
    10  H    0.077666
    11  C   -0.129237
    12  H    0.082464
    13  C   -0.129227
    14  H    0.086815
    15  H    0.082458
    16  H    0.086832
 Sum of Mulliken atomic charges =   0.00000
 Mulliken charges with hydrogens summed into heavy atoms:
              1
     1  C   -0.043267
     2  C   -0.043277
     5  C    0.003237
     8  C    0.003203
    11  C    0.040059
    13  C    0.040046
 Sum of Mulliken charges with hydrogens summed into heavy atoms =   0.00000
 APT atomic charges:
              1
     1  C   -0.128674
     2  C   -0.128770
     3  H    0.097032
     4  H    0.097054
     5  C   -0.023160
     6  H    0.010975
     7  H    0.014303
     8  C   -0.023138
     9  H    0.010931
    10  H    0.014296
    11  C   -0.015313
    12  H    0.024723
    13  C   -0.015347
    14  H    0.020177
    15  H    0.024714
    16  H    0.020200
 Sum of APT charges=   0.00000
 APT Atomic charges with hydrogens summed into heavy atoms:
              1
     1  C   -0.031643
     2  C   -0.031716
     3  H    0.000000
     4  H    0.000000
     5  C    0.002118
     6  H    0.000000
     7  H    0.000000
     8  C    0.002089
     9  H    0.000000
    10  H    0.000000
    11  C    0.029610
    12  H    0.000000
    13  C    0.029544
    14  H    0.000000
    15  H    0.000000
    16  H    0.000000
 Sum of APT charges=   0.00000
 Charge=              0.0000 electrons
 Dipole moment (field-independent basis, Debye):
    X=              0.2034    Y=              0.0003    Z=              0.1335  Tot=              0.2433
 N-N= 1.451897311229D+02 E-N=-2.150545315761D+02  KE=-5.253667322281D+01
  Exact polarizability:  43.714   0.002  63.525   4.309  -0.008  37.233
 Approx polarizability:  26.970   0.002  43.802   2.867  -0.008  24.552
 -------------------------------------------------------------------
 Center     Atomic                   Forces (Hartrees/Bohr)
 Number     Number              X              Y              Z
 -------------------------------------------------------------------
      1        6           0.000000886   -0.000000806   -0.000000366
      2        6           0.000000125   -0.000000253    0.000000595
      3        1          -0.000000604    0.000000485   -0.000000436
      4        1          -0.000000057   -0.000000121   -0.000000043
      5        6          -0.000000267    0.000000052   -0.000002204
      6        1          -0.000000155   -0.000000019   -0.000000795
      7        1          -0.000000515    0.000000365    0.000000084
      8        6           0.000000721    0.000000118    0.000001743
      9        1          -0.000000637   -0.000000451   -0.000000002
     10        1           0.000000159   -0.000000052    0.000000997
     11        6           0.000000255    0.000000408    0.000001149
     12        1          -0.000000017    0.000000116    0.000000316
     13        6           0.000000008    0.000000181   -0.000000459
     14        1          -0.000000078    0.000000119   -0.000000483
     15        1           0.000000027   -0.000000380   -0.000000024
     16        1           0.000000148    0.000000239   -0.000000071
 -------------------------------------------------------------------
 Cartesian Forces:  Max     0.000002204 RMS     0.000000585

 This type of calculation cannot be archived.


 WORK FAITHFULLY FOR EIGHT HOURS A DAY AND DON'T WORRY.
 IN TIME YOU MAY BECOME BOSS AND WORK TWELVE HOURS A DAY
 AND HAVE ALL THE WORRY.
 Job cpu time:  0 days  0 hours  0 minutes 59.4 seconds.
 File lengths (MBytes):  RWF=     13 Int=      0 D2E=      0 Chk=      4 Scr=      1
 Normal termination of Gaussian 09 at Tue Nov  3 22:06:36 2009.
