 Entering Gaussian System, Link 0=g03
 Initial command:
 /apps/gaussian/g09/g09/l1.exe /home/scan-user-1/run/19432/Gau-10230.inp -scrdir=/home/scan-user-1/run/19432/
 Entering Link 1 = /apps/gaussian/g09/g09/l1.exe PID=     10231.
  
 Copyright (c) 1988,1990,1992,1993,1995,1998,2003,2009, Gaussian, Inc.
                  All Rights Reserved.
  
 This is part of the Gaussian(R) 09 program.  It is based on
 the Gaussian(R) 03 system (copyright 2003, Gaussian, Inc.),
 the Gaussian(R) 98 system (copyright 1998, Gaussian, Inc.),
 the Gaussian(R) 94 system (copyright 1995, Gaussian, Inc.),
 the Gaussian 92(TM) system (copyright 1992, Gaussian, Inc.),
 the Gaussian 90(TM) system (copyright 1990, Gaussian, Inc.),
 the Gaussian 88(TM) system (copyright 1988, Gaussian, Inc.),
 the Gaussian 86(TM) system (copyright 1986, Carnegie Mellon
 University), and the Gaussian 82(TM) system (copyright 1983,
 Carnegie Mellon University). Gaussian is a federally registered
 trademark of Gaussian, Inc.
  
 This software contains proprietary and confidential information,
 including trade secrets, belonging to Gaussian, Inc.
  
 This software is provided under written license and may be
 used, copied, transmitted, or stored only in accord with that
 written license.
  
 The following legend is applicable only to US Government
 contracts under FAR:
  
                    RESTRICTED RIGHTS LEGEND
  
 Use, reproduction and disclosure by the US Government is
 subject to restrictions as set forth in subparagraphs (a)
 and (c) of the Commercial Computer Software - Restricted
 Rights clause in FAR 52.227-19.
  
 Gaussian, Inc.
 340 Quinnipiac St., Bldg. 40, Wallingford CT 06492
  
  
 ---------------------------------------------------------------
 Warning -- This program may not be used in any manner that
 competes with the business of Gaussian, Inc. or will provide
 assistance to any competitor of Gaussian, Inc.  The licensee
 of this program is prohibited from giving any competitor of
 Gaussian, Inc. access to this program.  By using this program,
 the user acknowledges that Gaussian, Inc. is engaged in the
 business of creating and licensing software in the field of
 computational chemistry and represents and warrants to the
 licensee that it is not a competitor of Gaussian, Inc. and that
 it will not use this program in any manner prohibited above.
 ---------------------------------------------------------------
  

 Cite this work as:
 Gaussian 09, Revision A.02,
 M. J. Frisch, G. W. Trucks, H. B. Schlegel, G. E. Scuseria, 
 M. A. Robb, J. R. Cheeseman, G. Scalmani, V. Barone, B. Mennucci, 
 G. A. Petersson, H. Nakatsuji, M. Caricato, X. Li, H. P. Hratchian, 
 A. F. Izmaylov, J. Bloino, G. Zheng, J. L. Sonnenberg, M. Hada, 
 M. Ehara, K. Toyota, R. Fukuda, J. Hasegawa, M. Ishida, T. Nakajima, 
 Y. Honda, O. Kitao, H. Nakai, T. Vreven, J. A. Montgomery, Jr., 
 J. E. Peralta, F. Ogliaro, M. Bearpark, J. J. Heyd, E. Brothers, 
 K. N. Kudin, V. N. Staroverov, R. Kobayashi, J. Normand, 
 K. Raghavachari, A. Rendell, J. C. Burant, S. S. Iyengar, J. Tomasi, 
 M. Cossi, N. Rega, J. M. Millam, M. Klene, J. E. Knox, J. B. Cross, 
 V. Bakken, C. Adamo, J. Jaramillo, R. Gomperts, R. E. Stratmann, 
 O. Yazyev, A. J. Austin, R. Cammi, C. Pomelli, J. W. Ochterski, 
 R. L. Martin, K. Morokuma, V. G. Zakrzewski, G. A. Voth, 
 P. Salvador, J. J. Dannenberg, S. Dapprich, A. D. Daniels, 
 O. Farkas, J. B. Foresman, J. V. Ortiz, J. Cioslowski, 
 and D. J. Fox, Gaussian, Inc., Wallingford CT, 2009.
 
 ******************************************
 Gaussian 09:  EM64L-G09RevA.02 11-Jun-2009
                 6-Nov-2009 
 ******************************************
 %nprocshared=2
 Will use up to    2 processors via shared memory.
 %mem=3600MB
 %NoSave
 %Chk=chk.chk
 %rwf=/tmp/pbs.3101468.cx1/rwf
 -------------------------------------
 # freq rb3lyp/6-31g geom=connectivity
 -------------------------------------
 1/10=4,30=1,38=1,57=2/1,3;
 2/12=2,17=6,18=5,40=1/2;
 3/5=1,6=6,11=2,16=1,25=1,30=1,71=2,74=-5,116=1/1,2,3;
 4//1;
 5/5=2,38=5,98=1/2;
 8/6=4,10=90,11=11/1;
 11/6=1,8=1,9=11,15=111,16=1/1,2,10;
 10/6=1/2;
 6/7=2,8=2,9=2,10=2,18=1,28=1/1;
 7/8=1,10=1,25=1/1,2,3,16;
 1/10=4,30=1/3;
 99//99;
 ----------
 [No Title]
 ----------
 Symbolic Z-matrix:
 Charge =  0 Multiplicity = 1
 C                     0.56351  -0.21394   0.49109 
 C                    -0.56351   0.21392  -0.49108 
 C                    -1.88409  -0.44303  -0.18097 
 C                    -3.00816   0.20298   0.15077 
 C                     3.00816  -0.20296  -0.15078 
 C                     1.88409   0.44303   0.18098 
 H                     0.24493   0.04782   1.5112 
 H                     0.6755   -1.3065    0.4657 
 H                    -0.67548   1.30648  -0.46571 
 H                    -0.24493  -0.04785  -1.5112 
 H                    -1.89044  -1.53368  -0.22817 
 H                    -3.93159  -0.3245    0.37068 
 H                    -3.04708   1.28841   0.2112 
 H                     3.93158   0.32454  -0.37069 
 H                     3.04709  -1.28839  -0.21124 
 H                     1.89042   1.53368   0.22821 
 

 GradGradGradGradGradGradGradGradGradGradGradGradGradGradGradGradGradGrad
 Berny optimization.
 Initialization pass.
 Trust Radius=3.00D-01 FncErr=1.00D-07 GrdErr=1.00D-07
 Number of steps in this run=   2 maximum allowed number of steps=   2.
 GradGradGradGradGradGradGradGradGradGradGradGradGradGradGradGradGradGrad

                          Input orientation:                          
 ---------------------------------------------------------------------
 Center     Atomic      Atomic             Coordinates (Angstroms)
 Number     Number       Type             X           Y           Z
 ---------------------------------------------------------------------
      1          6           0        0.563515   -0.213942    0.491088
      2          6           0       -0.563512    0.213920   -0.491084
      3          6           0       -1.884089   -0.443031   -0.180971
      4          6           0       -3.008159    0.202984    0.150771
      5          6           0        3.008159   -0.202963   -0.150784
      6          6           0        1.884085    0.443032    0.180983
      7          1           0        0.244930    0.047817    1.511202
      8          1           0        0.675496   -1.306498    0.465702
      9          1           0       -0.675479    1.306479   -0.465711
     10          1           0       -0.244929   -0.047854   -1.511195
     11          1           0       -1.890439   -1.533682   -0.228167
     12          1           0       -3.931587   -0.324500    0.370677
     13          1           0       -3.047081    1.288413    0.211199
     14          1           0        3.931579    0.324537   -0.370686
     15          1           0        3.047093   -1.288390   -0.211240
     16          1           0        1.890421    1.533681    0.228207
 ---------------------------------------------------------------------
                    Distance matrix (angstroms):
                    1          2          3          4          5
     1  C    0.000000
     2  C    1.554965   0.000000
     3  C    2.548512   1.507210   0.000000
     4  C    3.611994   2.527528   1.338253   0.000000
     5  C    2.527530   3.611984   4.898228   6.037533   0.000000
     6  C    1.507211   2.548509   3.887835   4.898223   1.338252
     7  H    1.100294   2.165714   2.763531   3.529509   3.234274
     8  H    1.098573   2.182259   2.777632   3.993374   2.653142
     9  H    2.182258   1.098574   2.145367   2.653139   3.993342
    10  H    2.165712   1.100294   2.147675   3.234268   3.529499
    11  H    2.877660   2.209971   1.091690   2.099738   5.076717
    12  H    4.498073   3.518019   2.123820   1.085964   6.960371
    13  H    3.920690   2.795685   2.122321   1.087806   6.246692
    14  H    3.518021   4.498063   5.869170   6.960363   1.085964
    15  H    2.795686   3.920678   5.003210   6.246705   1.087806
    16  H    2.209971   2.877661   4.280391   5.076695   2.099739
                    6          7          8          9         10
     6  C    0.000000
     7  H    2.147675   0.000000
     8  H    2.145369   1.764265   0.000000
     9  H    2.777611   2.517849   3.085500   0.000000
    10  H    2.763537   3.063332   2.517835   1.764264   0.000000
    11  H    4.280401   3.175900   2.667787   3.098236   2.561552
    12  H    5.869168   4.345424   4.711535   3.736559   4.148424
    13  H    5.003197   3.750522   4.544878   2.466380   3.550254
    14  H    2.123820   4.148429   3.736562   4.711499   4.345418
    15  H    2.122321   3.550264   2.466384   4.544848   3.750497
    16  H    1.091690   2.561544   3.098236   2.667768   3.175924
                   11         12         13         14         15
    11  H    0.000000
    12  H    2.446839   0.000000
    13  H    3.081409   1.846421   0.000000
    14  H    6.113033   7.924661   7.068900   0.000000
    15  H    4.943650   7.068924   6.630032   1.846421   0.000000
    16  H    4.889978   6.113011   4.943619   2.446841   3.081410
                   16
    16  H    0.000000
 Stoichiometry    C6H10
 Framework group  C1[X(C6H10)]
 Deg. of freedom    42
 Full point group                 C1      NOp   1
 Largest Abelian subgroup         C1      NOp   1
 Largest concise Abelian subgroup C1      NOp   1
                         Standard orientation:                         
 ---------------------------------------------------------------------
 Center     Atomic      Atomic             Coordinates (Angstroms)
 Number     Number       Type             X           Y           Z
 ---------------------------------------------------------------------
      1          6           0        0.563515   -0.213942    0.491088
      2          6           0       -0.563512    0.213920   -0.491084
      3          6           0       -1.884089   -0.443031   -0.180971
      4          6           0       -3.008159    0.202984    0.150771
      5          6           0        3.008159   -0.202963   -0.150784
      6          6           0        1.884085    0.443032    0.180983
      7          1           0        0.244930    0.047817    1.511202
      8          1           0        0.675496   -1.306498    0.465701
      9          1           0       -0.675479    1.306479   -0.465711
     10          1           0       -0.244929   -0.047854   -1.511195
     11          1           0       -1.890439   -1.533682   -0.228167
     12          1           0       -3.931587   -0.324500    0.370677
     13          1           0       -3.047081    1.288413    0.211199
     14          1           0        3.931579    0.324537   -0.370686
     15          1           0        3.047093   -1.288390   -0.211240
     16          1           0        1.890421    1.533681    0.228207
 ---------------------------------------------------------------------
 Rotational constants (GHZ):     16.2193264      1.3273480      1.3070319
 Standard basis: 6-31G (6D, 7F)
 There are    74 symmetry adapted basis functions of A   symmetry.
 Integral buffers will be    131072 words long.
 Raffenetti 2 integral format.
 Two-electron integral symmetry is turned on.
    74 basis functions,   172 primitive gaussians,    74 cartesian basis functions
    23 alpha electrons       23 beta electrons
       nuclear repulsion energy       210.9974159348 Hartrees.
 NAtoms=   16 NActive=   16 NUniq=   16 SFac= 7.50D-01 NAtFMM=   80 NAOKFM=F Big=F
 One-electron integrals computed using PRISM.
 NBasis=    74 RedAO= T  NBF=    74
 NBsUse=    74 1.00D-06 NBFU=    74
 Harris functional with IExCor=  402 diagonalized for initial guess.
 ExpMin= 1.61D-01 ExpMax= 3.05D+03 ExpMxC= 4.57D+02 IAcc=1 IRadAn=         1 AccDes= 0.00D+00
 HarFok:  IExCor=  402 AccDes= 0.00D+00 IRadAn=         1 IDoV= 1
 ScaDFX=  1.000000  1.000000  1.000000  1.000000
 FoFCou: FMM=F IPFlag=           0 FMFlag=      100000 FMFlg1=           0
         NFxFlg=           0 DoJE=T BraDBF=F KetDBF=T FulRan=T
         Omega=  0.000000  0.000000  1.000000  0.000000  0.000000 ICntrl=     500 IOpCl=  0
         NMat0=    1 NMatS0=    1 NMatT0=    0 NMatD0=    1 NMtDS0=    0 NMtDT0=    0
         I1Cent=           4 NGrid=           0.
 Petite list used in FoFCou.
 Initial guess orbital symmetries:
       Occupied  (A) (A) (A) (A) (A) (A) (A) (A) (A) (A) (A) (A)
                 (A) (A) (A) (A) (A) (A) (A) (A) (A) (A) (A)
       Virtual   (A) (A) (A) (A) (A) (A) (A) (A) (A) (A) (A) (A)
                 (A) (A) (A) (A) (A) (A) (A) (A) (A) (A) (A) (A)
                 (A) (A) (A) (A) (A) (A) (A) (A) (A) (A) (A) (A)
                 (A) (A) (A) (A) (A) (A) (A) (A) (A) (A) (A) (A)
                 (A) (A) (A)
 The electronic state of the initial guess is 1-A.
 Requested convergence on RMS density matrix=1.00D-08 within 128 cycles.
 Requested convergence on MAX density matrix=1.00D-06.
 Requested convergence on             energy=1.00D-06.
 No special actions if energy rises.
 Keep R1 ints in memory in canonical form, NReq=4914746.
 Integral accuracy reduced to 1.0D-05 until final iterations.
 Initial convergence to 1.0D-05 achieved.  Increase integral accuracy.
 SCF Done:  E(RB3LYP) =  -234.559704244     A.U. after   13 cycles
             Convg  =    0.2234D-08             -V/T =  2.0061
 Range of M.O.s used for correlation:     1    74
 NBasis=    74 NAE=    23 NBE=    23 NFC=     0 NFV=     0
 NROrb=     74 NOA=    23 NOB=    23 NVA=    51 NVB=    51
 Symmetrizing basis deriv contribution to polar:
 IMax=3 JMax=2 DiffMx= 0.00D+00
 G2DrvN: will do    17 centers at a time, making    1 passes doing MaxLOS=1.
 Calling FoFCou, ICntrl=  3107 FMM=F I1Cent=   0 AccDes= 0.00D+00.
 FoFDir/FoFCou used for L=0 through L=1.
 End of G2Drv Frequency-dependent properties file   721 does not exist.
 End of G2Drv Frequency-dependent properties file   722 does not exist.
          IDoAtm=1111111111111111
          Differentiating once with respect to electric field.
                with respect to dipole field.
          Differentiating once with respect to nuclear coordinates.
          Keep R1 ints in memory in canonical form, NReq=4656140.
          There are    51 degrees of freedom in the 1st order CPHF.  IDoFFX=5.
     48 vectors produced by pass  0 Test12= 2.30D-15 1.96D-09 XBig12= 7.69D+01 5.80D+00.
 AX will form    48 AO Fock derivatives at one time.
     48 vectors produced by pass  1 Test12= 2.30D-15 1.96D-09 XBig12= 6.53D+00 5.58D-01.
     48 vectors produced by pass  2 Test12= 2.30D-15 1.96D-09 XBig12= 4.26D-02 4.12D-02.
     48 vectors produced by pass  3 Test12= 2.30D-15 1.96D-09 XBig12= 4.03D-05 1.19D-03.
     48 vectors produced by pass  4 Test12= 2.30D-15 1.96D-09 XBig12= 2.17D-08 3.07D-05.
     17 vectors produced by pass  5 Test12= 2.30D-15 1.96D-09 XBig12= 8.46D-12 4.86D-07.
      2 vectors produced by pass  6 Test12= 2.30D-15 1.96D-09 XBig12= 3.60D-15 8.84D-09.
 Inverted reduced A of dimension   259 with in-core refinement.
 Isotropic polarizability for W=    0.000000       62.37 Bohr**3.
 End of Minotr Frequency-dependent properties file   721 does not exist.
 End of Minotr Frequency-dependent properties file   722 does not exist.

 **********************************************************************

            Population analysis using the SCF density.

 **********************************************************************

 Orbital symmetries:
       Occupied  (A) (A) (A) (A) (A) (A) (A) (A) (A) (A) (A) (A)
                 (A) (A) (A) (A) (A) (A) (A) (A) (A) (A) (A)
       Virtual   (A) (A) (A) (A) (A) (A) (A) (A) (A) (A) (A) (A)
                 (A) (A) (A) (A) (A) (A) (A) (A) (A) (A) (A) (A)
                 (A) (A) (A) (A) (A) (A) (A) (A) (A) (A) (A) (A)
                 (A) (A) (A) (A) (A) (A) (A) (A) (A) (A) (A) (A)
                 (A) (A) (A)
 The electronic state is 1-A.
 Alpha  occ. eigenvalues --  -10.18546 -10.18544 -10.18323 -10.18312 -10.17255
 Alpha  occ. eigenvalues --  -10.17255  -0.81137  -0.77188  -0.71270  -0.63348
 Alpha  occ. eigenvalues --   -0.55829  -0.54957  -0.47721  -0.46111  -0.44232
 Alpha  occ. eigenvalues --   -0.40362  -0.40282  -0.38155  -0.35142  -0.33861
 Alpha  occ. eigenvalues --   -0.33001  -0.26066  -0.24745
 Alpha virt. eigenvalues --    0.01852   0.02598   0.10949   0.11310   0.12772
 Alpha virt. eigenvalues --    0.14644   0.15077   0.15754   0.18696   0.18724
 Alpha virt. eigenvalues --    0.19158   0.20511   0.24130   0.29709   0.31282
 Alpha virt. eigenvalues --    0.37512   0.37802   0.51111   0.53619   0.54641
 Alpha virt. eigenvalues --    0.55112   0.56903   0.59163   0.62538   0.62969
 Alpha virt. eigenvalues --    0.66085   0.67255   0.70883   0.71129   0.71901
 Alpha virt. eigenvalues --    0.76221   0.79260   0.81432   0.85461   0.87026
 Alpha virt. eigenvalues --    0.90300   0.90666   0.94140   0.95226   0.96389
 Alpha virt. eigenvalues --    0.96972   0.99071   1.00335   1.03512   1.14082
 Alpha virt. eigenvalues --    1.22045   1.23467   1.36522   1.37193   1.41496
 Alpha virt. eigenvalues --    1.61963
          Condensed to atoms (all electrons):
              1          2          3          4          5          6
     1  C    5.139056   0.303390  -0.043402  -0.001164  -0.038249   0.346908
     2  C    0.303390   5.139057   0.346907  -0.038249  -0.001165  -0.043403
     3  C   -0.043402   0.346907   4.860356   0.648055  -0.000072   0.004858
     4  C   -0.001164  -0.038249   0.648055   4.999691   0.000000  -0.000072
     5  C   -0.038249  -0.001165  -0.000072   0.000000   4.999690   0.648055
     6  C    0.346908  -0.043403   0.004858  -0.000072   0.648055   4.860355
     7  H    0.366598  -0.046760   0.000637   0.001683   0.000858  -0.036529
     8  H    0.374512  -0.041865  -0.001584   0.000086  -0.005181  -0.044669
     9  H   -0.041865   0.374513  -0.044669  -0.005181   0.000086  -0.001584
    10  H   -0.046760   0.366597  -0.036529   0.000857   0.001684   0.000636
    11  H   -0.002136  -0.053845   0.370675  -0.045465   0.000001   0.000060
    12  H   -0.000107   0.004762  -0.026332   0.365962   0.000000   0.000002
    13  H    0.000190  -0.011376  -0.040191   0.374876   0.000000  -0.000004
    14  H    0.004762  -0.000107   0.000002   0.000000   0.365962  -0.026332
    15  H   -0.011376   0.000190  -0.000004   0.000000   0.374876  -0.040191
    16  H   -0.053845  -0.002136   0.000060   0.000001  -0.045465   0.370675
              7          8          9         10         11         12
     1  C    0.366598   0.374512  -0.041865  -0.046760  -0.002136  -0.000107
     2  C   -0.046760  -0.041865   0.374513   0.366597  -0.053845   0.004762
     3  C    0.000637  -0.001584  -0.044669  -0.036529   0.370675  -0.026332
     4  C    0.001683   0.000086  -0.005181   0.000857  -0.045465   0.365962
     5  C    0.000858  -0.005181   0.000086   0.001684   0.000001   0.000000
     6  C   -0.036529  -0.044669  -0.001584   0.000636   0.000060   0.000002
     7  H    0.606984  -0.036573  -0.004792   0.006210  -0.000237  -0.000053
     8  H   -0.036573   0.608877   0.005279  -0.004793   0.003889   0.000008
     9  H   -0.004792   0.005279   0.608877  -0.036573   0.005020   0.000114
    10  H    0.006210  -0.004793  -0.036573   0.606985  -0.002140  -0.000208
    11  H   -0.000237   0.003889   0.005020  -0.002140   0.608985  -0.007376
    12  H   -0.000053   0.000008   0.000114  -0.000208  -0.007376   0.581265
    13  H    0.000071   0.000016   0.006152   0.000182   0.005558  -0.041573
    14  H   -0.000208   0.000114   0.000008  -0.000053   0.000000   0.000000
    15  H    0.000182   0.006152   0.000016   0.000071  -0.000001   0.000000
    16  H   -0.002140   0.005020   0.003890  -0.000237   0.000004   0.000000
             13         14         15         16
     1  C    0.000190   0.004762  -0.011376  -0.053845
     2  C   -0.011376  -0.000107   0.000190  -0.002136
     3  C   -0.040191   0.000002  -0.000004   0.000060
     4  C    0.374876   0.000000   0.000000   0.000001
     5  C    0.000000   0.365962   0.374876  -0.045465
     6  C   -0.000004  -0.026332  -0.040191   0.370675
     7  H    0.000071  -0.000208   0.000182  -0.002140
     8  H    0.000016   0.000114   0.006152   0.005020
     9  H    0.006152   0.000008   0.000016   0.003890
    10  H    0.000182  -0.000053   0.000071  -0.000237
    11  H    0.005558   0.000000  -0.000001   0.000004
    12  H   -0.041573   0.000000   0.000000   0.000000
    13  H    0.585067   0.000000   0.000000  -0.000001
    14  H    0.000000   0.581264  -0.041573  -0.007376
    15  H    0.000000  -0.041573   0.585067   0.005558
    16  H   -0.000001  -0.007376   0.005558   0.608985
 Mulliken atomic charges:
              1
     1  C   -0.296511
     2  C   -0.296511
     3  C   -0.038765
     4  C   -0.301079
     5  C   -0.301079
     6  C   -0.038766
     7  H    0.144071
     8  H    0.130710
     9  H    0.130710
    10  H    0.144071
    11  H    0.117006
    12  H    0.123536
    13  H    0.121033
    14  H    0.123536
    15  H    0.121033
    16  H    0.117007
 Sum of Mulliken atomic charges =   0.00000
 Mulliken charges with hydrogens summed into heavy atoms:
              1
     1  C   -0.021730
     2  C   -0.021730
     3  C    0.078241
     4  C   -0.056511
     5  C   -0.056510
     6  C    0.078241
 Sum of Mulliken charges with hydrogens summed into heavy atoms =   0.00000
 APT atomic charges:
              1
     1  C    0.085202
     2  C    0.085202
     3  C    0.064212
     4  C   -0.121390
     5  C   -0.121390
     6  C    0.064211
     7  H   -0.034395
     8  H   -0.032696
     9  H   -0.032696
    10  H   -0.034396
    11  H   -0.006307
    12  H    0.019637
    13  H    0.025737
    14  H    0.019637
    15  H    0.025737
    16  H   -0.006307
 Sum of APT charges=   0.00000
 APT Atomic charges with hydrogens summed into heavy atoms:
              1
     1  C    0.018111
     2  C    0.018111
     3  C    0.057905
     4  C   -0.076016
     5  C   -0.076015
     6  C    0.057905
     7  H    0.000000
     8  H    0.000000
     9  H    0.000000
    10  H    0.000000
    11  H    0.000000
    12  H    0.000000
    13  H    0.000000
    14  H    0.000000
    15  H    0.000000
    16  H    0.000000
 Sum of APT charges=   0.00000
 Electronic spatial extent (au):  <R**2>=            931.1710
 Charge=              0.0000 electrons
 Dipole moment (field-independent basis, Debye):
    X=              0.0000    Y=              0.0000    Z=              0.0000  Tot=              0.0000
 Quadrupole moment (field-independent basis, Debye-Ang):
   XX=            -38.5769   YY=            -35.9992   ZZ=            -40.7612
   XY=              0.1847   XZ=             -1.1444   YZ=              0.4138
 Traceless Quadrupole moment (field-independent basis, Debye-Ang):
   XX=             -0.1311   YY=              2.4466   ZZ=             -2.3154
   XY=              0.1847   XZ=             -1.1444   YZ=              0.4138
 Octapole moment (field-independent basis, Debye-Ang**2):
  XXX=             -0.0001  YYY=              0.0000  ZZZ=              0.0000  XYY=              0.0000
  XXY=              0.0000  XXZ=             -0.0001  XZZ=              0.0001  YZZ=              0.0000
  YYZ=              0.0000  XYZ=              0.0001
 Hexadecapole moment (field-independent basis, Debye-Ang**3):
 XXXX=          -1048.5183 YYYY=           -100.9602 ZZZZ=            -84.2791 XXXY=              7.5769
 XXXZ=            -27.8968 YYYX=             -1.1469 YYYZ=              1.0133 ZZZX=              0.2652
 ZZZY=              0.8130 XXYY=           -188.7638 XXZZ=           -218.0696 YYZZ=            -33.5362
 XXYZ=              0.3869 YYXZ=             -0.4924 ZZXY=              0.0233
 N-N= 2.109974159348D+02 E-N=-9.647343406751D+02  KE= 2.331489030192D+02
  Exact polarizability:  92.209  -8.316  58.268 -10.562   2.842  36.646
 Approx polarizability: 115.980 -19.810  84.804 -18.513   7.275  49.459
 Calling FoFJK, ICntrl=    100127 FMM=F ISym2X=0 I1Cent= 0 IOpClX= 0 NMat=1 NMatS=1 NMatT=0.
 Full mass-weighted force constant matrix:
 Low frequencies ---   -9.3771   -0.0003    0.0008    0.0009    3.6273   13.1954
 Low frequencies ---   71.8974   79.9178  116.8562
 Diagonal vibrational polarizability:
        1.6054687       1.0315076       4.6462983
 Harmonic frequencies (cm**-1), IR intensities (KM/Mole), Raman scattering
 activities (A**4/AMU), depolarization ratios for plane and unpolarized
 incident light, reduced masses (AMU), force constants (mDyne/A),
 and normal coordinates:
                     1                      2                      3
                     A                      A                      A
 Frequencies --    71.8974                79.9178               116.8502
 Red. masses --     2.7288                 2.6323                 2.4454
 Frc consts  --     0.0083                 0.0099                 0.0197
 IR Inten    --     0.0222                 0.1085                 0.0000
  Atom  AN      X      Y      Z        X      Y      Z        X      Y      Z
     1   6     0.03   0.00   0.13    -0.01   0.18   0.06    -0.06   0.08   0.11
     2   6     0.03   0.00   0.13    -0.01   0.18   0.06     0.06  -0.08  -0.11
     3   6     0.03   0.00   0.10     0.05   0.00  -0.06     0.03  -0.03  -0.13
     4   6    -0.06   0.01  -0.22    -0.04  -0.18   0.00     0.12   0.01   0.10
     5   6    -0.06   0.01  -0.22    -0.04  -0.18   0.00    -0.12  -0.01  -0.10
     6   6     0.03   0.00   0.10     0.05   0.00  -0.06    -0.03   0.03   0.13
     7   1     0.05  -0.01   0.14     0.05   0.30   0.04    -0.18   0.25   0.02
     8   1     0.03   0.00   0.12    -0.12   0.17   0.15    -0.06   0.08   0.30
     9   1     0.03   0.00   0.12    -0.12   0.17   0.15     0.06  -0.08  -0.30
    10   1     0.05  -0.01   0.14     0.05   0.30   0.04     0.18  -0.25  -0.02
    11   1     0.09  -0.01   0.31     0.18   0.01  -0.19    -0.06  -0.02  -0.29
    12   1    -0.07   0.01  -0.26     0.02  -0.32  -0.10     0.10   0.06   0.12
    13   1    -0.12   0.02  -0.44    -0.17  -0.19   0.13     0.23   0.01   0.27
    14   1    -0.07   0.01  -0.26     0.02  -0.32  -0.10    -0.10  -0.06  -0.12
    15   1    -0.12   0.02  -0.44    -0.17  -0.19   0.13    -0.23  -0.01  -0.27
    16   1     0.09  -0.01   0.31     0.18   0.01  -0.19     0.06   0.02   0.29
                     4                      5                      6
                     A                      A                      A
 Frequencies --   224.3223               354.9075               402.5719
 Red. masses --     1.7810                 2.5505                 1.9797
 Frc consts  --     0.0528                 0.1893                 0.1890
 IR Inten    --     0.1766                 0.0000                 0.0000
  Atom  AN      X      Y      Z        X      Y      Z        X      Y      Z
     1   6    -0.02   0.05  -0.13    -0.07  -0.08   0.00    -0.06  -0.04   0.08
     2   6    -0.02   0.05  -0.13     0.07   0.08   0.00     0.06   0.04  -0.08
     3   6     0.04   0.01   0.10     0.17   0.00   0.04     0.03   0.15  -0.01
     4   6    -0.01  -0.05   0.03     0.17   0.00  -0.02    -0.08  -0.05   0.03
     5   6    -0.01  -0.05   0.03    -0.17   0.00   0.02     0.08   0.05  -0.03
     6   6     0.04   0.01   0.10    -0.17   0.00  -0.04    -0.03  -0.15   0.01
     7   1    -0.10  -0.04  -0.13    -0.11  -0.22   0.02    -0.09   0.17   0.01
     8   1    -0.03   0.05  -0.20    -0.06  -0.08  -0.16    -0.23  -0.06   0.23
     9   1    -0.03   0.05  -0.20     0.06   0.08   0.16     0.23   0.06  -0.23
    10   1    -0.10  -0.04  -0.13     0.11   0.22  -0.02     0.09  -0.17  -0.01
    11   1     0.17   0.00   0.41     0.30  -0.01   0.28     0.12   0.14   0.10
    12   1     0.08  -0.12   0.26     0.21   0.00   0.18     0.08  -0.30   0.13
    13   1    -0.17  -0.04  -0.27     0.12   0.01  -0.27    -0.38  -0.06  -0.02
    14   1     0.08  -0.12   0.26    -0.21   0.00  -0.18    -0.08   0.30  -0.13
    15   1    -0.17  -0.04  -0.27    -0.12  -0.01   0.27     0.38   0.06   0.02
    16   1     0.17   0.00   0.41    -0.30   0.01  -0.28    -0.12  -0.14  -0.10
                     7                      8                      9
                     A                      A                      A
 Frequencies --   471.3753               632.8203               679.9976
 Red. masses --     1.9499                 1.5447                 1.4720
 Frc consts  --     0.2553                 0.3645                 0.4010
 IR Inten    --     2.6656                 0.0000                25.0377
  Atom  AN      X      Y      Z        X      Y      Z        X      Y      Z
     1   6     0.10  -0.06  -0.01    -0.03   0.01  -0.04     0.03  -0.03   0.05
     2   6     0.10  -0.06  -0.01     0.03  -0.01   0.04     0.03  -0.03   0.05
     3   6     0.00   0.13   0.00     0.08   0.04   0.11    -0.04   0.02  -0.12
     4   6    -0.10  -0.03   0.02     0.03  -0.01  -0.03    -0.01   0.01   0.02
     5   6    -0.10  -0.03   0.02    -0.03   0.01   0.03    -0.01   0.01   0.02
     6   6     0.00   0.13   0.00    -0.08  -0.04  -0.11    -0.04   0.02  -0.12
     7   1     0.06  -0.28   0.03     0.08   0.19  -0.05     0.17   0.12   0.05
     8   1     0.29  -0.04  -0.19    -0.11   0.00   0.11     0.06  -0.03   0.19
     9   1     0.29  -0.04  -0.19     0.11   0.00  -0.11     0.06  -0.03   0.19
    10   1     0.06  -0.28   0.03    -0.08  -0.19   0.05     0.17   0.12   0.05
    11   1    -0.03   0.13  -0.09     0.03   0.05  -0.22     0.01   0.01   0.20
    12   1    -0.01  -0.25  -0.12    -0.05  -0.06  -0.50     0.13  -0.06   0.48
    13   1    -0.33  -0.05   0.18     0.05  -0.03   0.31    -0.14   0.02  -0.28
    14   1    -0.01  -0.25  -0.12     0.05   0.06   0.50     0.13  -0.06   0.48
    15   1    -0.33  -0.05   0.18    -0.05   0.03  -0.31    -0.14   0.02  -0.28
    16   1    -0.03   0.13  -0.09    -0.03  -0.05   0.22     0.01   0.01   0.20
                    10                     11                     12
                     A                      A                      A
 Frequencies --   806.6441               946.8756               956.1466
 Red. masses --     1.2214                 2.3222                 1.5482
 Frc consts  --     0.4683                 1.2267                 0.8339
 IR Inten    --     4.9987                 0.4900                 0.0000
  Atom  AN      X      Y      Z        X      Y      Z        X      Y      Z
     1   6     0.04  -0.05  -0.06     0.16   0.08  -0.04     0.01   0.11  -0.07
     2   6     0.04  -0.05  -0.06     0.16   0.08  -0.04    -0.01  -0.11   0.07
     3   6     0.00   0.01   0.04    -0.07  -0.08   0.02     0.02   0.03  -0.03
     4   6    -0.02   0.01   0.00    -0.11  -0.04   0.03     0.05   0.05  -0.03
     5   6    -0.02   0.01   0.00    -0.11  -0.04   0.03    -0.05  -0.05   0.03
     6   6     0.00   0.01   0.04    -0.07  -0.08   0.02    -0.02  -0.03   0.03
     7   1    -0.16   0.41  -0.23     0.19   0.07  -0.04     0.00  -0.07  -0.02
     8   1     0.05  -0.06   0.45     0.17   0.08  -0.06     0.18   0.13  -0.18
     9   1     0.05  -0.06   0.45     0.17   0.08  -0.06    -0.18  -0.13   0.18
    10   1    -0.16   0.41  -0.23     0.19   0.07  -0.04     0.00   0.07   0.02
    11   1    -0.09   0.01   0.00     0.04  -0.08  -0.01    -0.22   0.03   0.06
    12   1    -0.01  -0.05  -0.11    -0.34   0.38   0.10     0.29  -0.34   0.05
    13   1    -0.10   0.01   0.05     0.29  -0.01  -0.05    -0.35   0.02   0.11
    14   1    -0.01  -0.05  -0.11    -0.34   0.38   0.10    -0.29   0.34  -0.05
    15   1    -0.10   0.01   0.05     0.29  -0.01  -0.05     0.35  -0.02  -0.11
    16   1    -0.09   0.01   0.00     0.04  -0.08  -0.01     0.22  -0.03  -0.06
                    13                     14                     15
                     A                      A                      A
 Frequencies --   975.1373               977.2068              1016.4783
 Red. masses --     1.3189                 1.3377                 1.8250
 Frc consts  --     0.7389                 0.7527                 1.1110
 IR Inten    --     0.0000               103.5890                 0.0000
  Atom  AN      X      Y      Z        X      Y      Z        X      Y      Z
     1   6     0.01  -0.01  -0.02     0.00   0.00   0.00     0.16  -0.03  -0.05
     2   6    -0.01   0.01   0.02     0.00   0.00   0.00    -0.16   0.03   0.05
     3   6     0.01   0.00   0.02    -0.01   0.00  -0.03     0.03   0.04  -0.04
     4   6    -0.03   0.00  -0.11     0.03  -0.01   0.11     0.06  -0.01   0.00
     5   6     0.03   0.00   0.11     0.03  -0.01   0.11    -0.06   0.01   0.00
     6   6    -0.01   0.00  -0.02    -0.01   0.00  -0.03    -0.03  -0.04   0.04
     7   1     0.06   0.06  -0.02     0.02  -0.01   0.01     0.36   0.28  -0.06
     8   1    -0.04  -0.02   0.05     0.00   0.00  -0.01     0.04  -0.05   0.21
     9   1     0.04   0.02  -0.05     0.00   0.00  -0.01    -0.04   0.05  -0.21
    10   1    -0.06  -0.06   0.02     0.02  -0.01   0.01    -0.36  -0.28   0.06
    11   1     0.06   0.00   0.01    -0.01   0.00  -0.04     0.12   0.06  -0.27
    12   1     0.10   0.02   0.47    -0.12   0.03  -0.44     0.12  -0.05   0.12
    13   1     0.18  -0.03   0.46    -0.13   0.02  -0.51    -0.01   0.00  -0.28
    14   1    -0.10  -0.02  -0.47    -0.12   0.03  -0.44    -0.12   0.05  -0.12
    15   1    -0.18   0.03  -0.46    -0.13   0.02  -0.51     0.01   0.00   0.28
    16   1    -0.06   0.00  -0.01    -0.01   0.00  -0.04    -0.12  -0.06   0.27
                    16                     17                     18
                     A                      A                      A
 Frequencies --  1035.6829              1047.1260              1056.7245
 Red. masses --     2.3762                 1.1056                 1.4080
 Frc consts  --     1.5017                 0.7142                 0.9264
 IR Inten    --     0.0000                19.7103                 0.0000
  Atom  AN      X      Y      Z        X      Y      Z        X      Y      Z
     1   6     0.14  -0.05   0.20    -0.01   0.00   0.00     0.02   0.00  -0.08
     2   6    -0.14   0.05  -0.20    -0.01   0.00   0.00    -0.02   0.00   0.08
     3   6     0.02   0.00   0.02     0.02   0.01   0.06    -0.02   0.02  -0.10
     4   6     0.03   0.03  -0.02     0.00  -0.01  -0.02     0.01  -0.01   0.02
     5   6    -0.03  -0.03   0.02     0.00  -0.01  -0.02    -0.01   0.01  -0.02
     6   6    -0.02   0.00  -0.02     0.02   0.01   0.06     0.02  -0.02   0.10
     7   1     0.08  -0.20   0.21    -0.10  -0.04  -0.01     0.07   0.12  -0.08
     8   1     0.33  -0.03   0.04     0.06   0.01   0.03    -0.04   0.00   0.08
     9   1    -0.33   0.03  -0.04     0.06   0.01   0.03     0.04   0.00  -0.08
    10   1    -0.08   0.20  -0.21    -0.10  -0.04  -0.01    -0.07  -0.12   0.08
    11   1     0.00   0.00   0.24    -0.08   0.03  -0.55     0.22  -0.01   0.55
    12   1     0.05  -0.12  -0.26     0.05   0.02   0.27    -0.06   0.02  -0.21
    13   1    -0.06   0.00   0.30    -0.02   0.01  -0.30     0.10  -0.02   0.20
    14   1    -0.05   0.12   0.26     0.05   0.02   0.27     0.06  -0.02   0.21
    15   1     0.06   0.00  -0.30    -0.02   0.01  -0.30    -0.10   0.02  -0.20
    16   1     0.00   0.00  -0.24    -0.08   0.03  -0.55    -0.22   0.01  -0.55
                    19                     20                     21
                     A                      A                      A
 Frequencies --  1088.1386              1221.3180              1264.6484
 Red. masses --     1.3316                 2.1165                 1.4091
 Frc consts  --     0.9289                 1.8600                 1.3278
 IR Inten    --     9.9140                 0.0000                 1.2339
  Atom  AN      X      Y      Z        X      Y      Z        X      Y      Z
     1   6     0.06   0.03  -0.02     0.02   0.15   0.03    -0.03  -0.06  -0.03
     2   6     0.06   0.03  -0.02    -0.02  -0.15  -0.03    -0.03  -0.06  -0.03
     3   6    -0.02  -0.07   0.03     0.06   0.13  -0.01     0.05   0.08   0.02
     4   6     0.01   0.05  -0.01    -0.05  -0.06   0.01    -0.04  -0.03   0.01
     5   6     0.01   0.05  -0.01     0.05   0.06  -0.01    -0.04  -0.03   0.01
     6   6    -0.02  -0.07   0.03    -0.06  -0.13   0.01     0.05   0.08   0.02
     7   1     0.29   0.06   0.05     0.05  -0.16   0.11     0.47   0.12   0.08
     8   1    -0.29   0.00  -0.12     0.22   0.17  -0.25    -0.39  -0.10   0.03
     9   1    -0.29   0.00  -0.12    -0.22  -0.17   0.25    -0.39  -0.10   0.03
    10   1     0.29   0.06   0.05    -0.05   0.16  -0.11     0.47   0.12   0.08
    11   1    -0.38  -0.07  -0.05     0.28   0.13  -0.07     0.07   0.08  -0.07
    12   1     0.14  -0.19  -0.01    -0.19   0.22   0.06    -0.13   0.14   0.01
    13   1    -0.30   0.04   0.03     0.27  -0.03  -0.07     0.14  -0.02  -0.02
    14   1     0.14  -0.19  -0.01     0.19  -0.22  -0.06    -0.13   0.14   0.01
    15   1    -0.30   0.04   0.03    -0.27   0.03   0.07     0.14  -0.02  -0.02
    16   1    -0.38  -0.07  -0.05    -0.28  -0.13   0.07     0.07   0.08  -0.07
                    22                     23                     24
                     A                      A                      A
 Frequencies --  1321.8069              1333.2512              1358.4279
 Red. masses --     1.2773                 1.1040                 1.2571
 Frc consts  --     1.3149                 1.1563                 1.3667
 IR Inten    --     1.3069                 0.0000                 0.0000
  Atom  AN      X      Y      Z        X      Y      Z        X      Y      Z
     1   6     0.08  -0.01   0.04    -0.03   0.03   0.04    -0.02   0.03   0.01
     2   6     0.08  -0.01   0.04     0.03  -0.03  -0.04     0.02  -0.03  -0.01
     3   6     0.02   0.04  -0.03    -0.02   0.00  -0.01    -0.01  -0.06   0.00
     4   6    -0.01  -0.03   0.00     0.02  -0.02  -0.01    -0.02   0.07   0.01
     5   6    -0.01  -0.03   0.00    -0.02   0.02   0.01     0.02  -0.07  -0.01
     6   6     0.02   0.04  -0.03     0.02   0.00   0.01     0.01   0.06   0.00
     7   1    -0.43  -0.03  -0.11     0.48  -0.04   0.21     0.14  -0.02   0.08
     8   1    -0.47  -0.06  -0.13    -0.38  -0.01  -0.17    -0.08   0.02  -0.08
     9   1    -0.47  -0.06  -0.13     0.38   0.01   0.17     0.08  -0.02   0.08
    10   1    -0.43  -0.03  -0.11    -0.48   0.04  -0.21    -0.14   0.02  -0.08
    11   1    -0.16   0.03   0.07    -0.16   0.00   0.07     0.58  -0.07  -0.15
    12   1    -0.05   0.07   0.06     0.05  -0.06  -0.01     0.01   0.01   0.00
    13   1     0.07  -0.02  -0.05     0.08  -0.02  -0.02    -0.28   0.06   0.08
    14   1    -0.05   0.07   0.06    -0.05   0.06   0.01    -0.01  -0.01   0.00
    15   1     0.07  -0.02  -0.05    -0.08   0.02   0.02     0.28  -0.06  -0.08
    16   1    -0.16   0.03   0.07     0.16   0.00  -0.07    -0.58   0.07   0.15
                    25                     26                     27
                     A                      A                      A
 Frequencies --  1361.2546              1390.2243              1493.8232
 Red. masses --     1.2240                 1.3273                 1.1765
 Frc consts  --     1.3363                 1.5115                 1.5469
 IR Inten    --     1.4737                 0.0000                 0.0000
  Atom  AN      X      Y      Z        X      Y      Z        X      Y      Z
     1   6     0.02  -0.02   0.01    -0.11  -0.03  -0.02    -0.02   0.01  -0.01
     2   6     0.02  -0.02   0.01     0.11   0.03   0.02     0.02  -0.01   0.01
     3   6     0.01  -0.05  -0.01     0.01   0.00  -0.01    -0.08   0.01   0.02
     4   6    -0.03   0.07   0.01    -0.01   0.00   0.00    -0.01   0.02   0.00
     5   6    -0.03   0.07   0.01     0.01   0.00   0.00     0.01  -0.02   0.00
     6   6     0.01  -0.05  -0.01    -0.01   0.00   0.01     0.08  -0.01  -0.02
     7   1    -0.07  -0.01  -0.03     0.39  -0.02   0.14    -0.04  -0.14   0.03
     8   1    -0.20  -0.05  -0.02     0.49   0.02   0.25     0.07   0.00   0.14
     9   1    -0.20  -0.05  -0.02    -0.49  -0.02  -0.25    -0.07   0.00  -0.14
    10   1    -0.07  -0.01  -0.03    -0.39   0.02  -0.14     0.04   0.14  -0.03
    11   1     0.56  -0.06  -0.15    -0.05   0.00   0.00     0.18   0.02  -0.06
    12   1    -0.03   0.05   0.02    -0.04   0.07   0.04     0.23  -0.42  -0.08
    13   1    -0.29   0.06   0.08    -0.06   0.00  -0.01     0.41   0.03  -0.11
    14   1    -0.03   0.05   0.02     0.04  -0.07  -0.04    -0.23   0.42   0.08
    15   1    -0.29   0.06   0.08     0.06   0.00   0.01    -0.41  -0.03   0.11
    16   1     0.56  -0.06  -0.15     0.05   0.00   0.00    -0.18  -0.02   0.06
                    28                     29                     30
                     A                      A                      A
 Frequencies --  1497.4971              1528.3231              1541.1843
 Red. masses --     1.1824                 1.1005                 1.1014
 Frc consts  --     1.5623                 1.5145                 1.5414
 IR Inten    --     2.4402                 0.0000                 8.5318
  Atom  AN      X      Y      Z        X      Y      Z        X      Y      Z
     1   6    -0.03   0.01   0.00    -0.03  -0.04   0.04     0.02   0.04  -0.05
     2   6    -0.03   0.01   0.00     0.03   0.04  -0.04     0.02   0.04  -0.05
     3   6     0.07  -0.01  -0.02    -0.02   0.00   0.00    -0.01   0.00   0.00
     4   6     0.02  -0.02  -0.01    -0.01   0.01   0.00     0.00   0.00   0.00
     5   6     0.02  -0.02  -0.01     0.01  -0.01   0.00     0.00   0.00   0.00
     6   6     0.07  -0.01  -0.02     0.02   0.00   0.00    -0.01   0.00   0.00
     7   1    -0.02  -0.09   0.03     0.02   0.47  -0.10     0.01  -0.48   0.10
     8   1     0.08   0.01   0.07     0.20   0.01  -0.45    -0.15  -0.01   0.47
     9   1     0.08   0.01   0.07    -0.20  -0.01   0.45    -0.15  -0.01   0.47
    10   1    -0.02  -0.09   0.03    -0.02  -0.47   0.10     0.01  -0.48   0.10
    11   1    -0.20  -0.02   0.06     0.03   0.00   0.01     0.01   0.00   0.02
    12   1    -0.23   0.43   0.08     0.05  -0.09  -0.02     0.03  -0.05  -0.02
    13   1    -0.41  -0.03   0.11     0.09   0.01  -0.02     0.06   0.00  -0.01
    14   1    -0.23   0.43   0.08    -0.05   0.09   0.02     0.03  -0.05  -0.02
    15   1    -0.41  -0.03   0.11    -0.09  -0.01   0.02     0.06   0.00  -0.01
    16   1    -0.20  -0.02   0.06    -0.03   0.00  -0.01     0.01   0.00   0.02
                    31                     32                     33
                     A                      A                      A
 Frequencies --  1724.6315              1728.1127              3017.4201
 Red. masses --     4.3764                 4.4513                 1.0600
 Frc consts  --     7.6693                 7.8321                 5.6861
 IR Inten    --     0.0000                19.4920                 0.0000
  Atom  AN      X      Y      Z        X      Y      Z        X      Y      Z
     1   6     0.03  -0.01  -0.01     0.05  -0.01  -0.01     0.01   0.01  -0.04
     2   6    -0.03   0.01   0.01     0.05  -0.01  -0.01    -0.01  -0.01   0.04
     3   6     0.26  -0.10  -0.08    -0.27   0.10   0.08     0.00   0.00   0.00
     4   6    -0.22   0.12   0.07     0.22  -0.12  -0.06     0.00   0.00   0.00
     5   6     0.22  -0.12  -0.07     0.22  -0.12  -0.06     0.00   0.00   0.00
     6   6    -0.26   0.10   0.08    -0.27   0.10   0.08     0.00   0.00   0.00
     7   1     0.11   0.04   0.01     0.08   0.04  -0.01    -0.18   0.16   0.57
     8   1    -0.10  -0.01   0.02    -0.13  -0.02   0.00     0.04  -0.33  -0.03
     9   1     0.10   0.01  -0.02    -0.13  -0.02   0.00    -0.04   0.33   0.03
    10   1    -0.11  -0.04  -0.01     0.08   0.04  -0.01     0.18  -0.16  -0.57
    11   1    -0.24  -0.14   0.06     0.25   0.14  -0.06     0.00   0.01   0.00
    12   1    -0.02  -0.33   0.00     0.03   0.32   0.00     0.00   0.00   0.00
    13   1     0.31   0.18  -0.08    -0.31  -0.18   0.07     0.00  -0.01   0.00
    14   1     0.02   0.33   0.00     0.03   0.32   0.00     0.00   0.00   0.00
    15   1    -0.31  -0.18   0.08    -0.31  -0.18   0.07     0.00   0.01   0.00
    16   1     0.24   0.14  -0.06     0.25   0.14  -0.06     0.00  -0.01   0.00
                    34                     35                     36
                     A                      A                      A
 Frequencies --  3027.6049              3057.8398              3080.5661
 Red. masses --     1.0599                 1.0966                 1.1015
 Frc consts  --     5.7240                 6.0411                 6.1586
 IR Inten    --    59.2146                 0.0000                36.5445
  Atom  AN      X      Y      Z        X      Y      Z        X      Y      Z
     1   6     0.01   0.02  -0.04     0.01  -0.06  -0.03     0.01  -0.05  -0.03
     2   6     0.01   0.02  -0.04    -0.01   0.06   0.03     0.01  -0.05  -0.03
     3   6     0.00   0.00   0.00     0.00   0.00   0.00     0.00   0.01   0.00
     4   6     0.00   0.00   0.00     0.00   0.00   0.00     0.00   0.00   0.00
     5   6     0.00   0.00   0.00     0.00   0.00   0.00     0.00   0.00   0.00
     6   6     0.00   0.00   0.00     0.00   0.00   0.00     0.00   0.01   0.00
     7   1    -0.17   0.15   0.54    -0.10   0.07   0.30    -0.11   0.08   0.36
     8   1     0.04  -0.39  -0.03    -0.06   0.62   0.02    -0.06   0.57   0.01
     9   1     0.04  -0.39  -0.03     0.06  -0.62  -0.02    -0.06   0.57   0.01
    10   1    -0.17   0.15   0.54     0.10  -0.07  -0.30    -0.11   0.08   0.36
    11   1     0.00   0.01   0.00     0.00   0.06   0.00     0.00  -0.13  -0.01
    12   1     0.00   0.00   0.00     0.00   0.00   0.00     0.01   0.01   0.00
    13   1     0.00   0.01   0.00     0.00   0.01   0.00     0.00  -0.01   0.00
    14   1     0.00   0.00   0.00     0.00   0.00   0.00     0.01   0.01   0.00
    15   1     0.00   0.01   0.00     0.00  -0.01   0.00     0.00  -0.01   0.00
    16   1     0.00   0.01   0.00     0.00  -0.06   0.00     0.00  -0.13  -0.01
                    37                     38                     39
                     A                      A                      A
 Frequencies --  3138.0796              3139.3886              3158.8497
 Red. masses --     1.0824                 1.0823                 1.0690
 Frc consts  --     6.2802                 6.2848                 6.2849
 IR Inten    --     0.0000                59.9650                13.7220
  Atom  AN      X      Y      Z        X      Y      Z        X      Y      Z
     1   6     0.00   0.00   0.00     0.00  -0.01   0.00     0.00   0.00   0.00
     2   6     0.00   0.00   0.00     0.00  -0.01   0.00     0.00   0.00   0.00
     3   6     0.00  -0.06   0.00     0.00  -0.06   0.00     0.01  -0.02   0.00
     4   6     0.01   0.00   0.00     0.01   0.00   0.00    -0.04   0.03   0.01
     5   6    -0.01   0.00   0.00     0.01   0.00   0.00    -0.04   0.03   0.01
     6   6     0.00   0.06   0.00     0.00  -0.06   0.00     0.01  -0.02   0.00
     7   1     0.01  -0.01  -0.03    -0.02   0.01   0.06    -0.01   0.00   0.01
     8   1     0.00  -0.05   0.00    -0.01   0.11   0.00     0.00   0.01   0.00
     9   1     0.00   0.05   0.00    -0.01   0.11   0.00     0.00   0.01   0.00
    10   1    -0.01   0.01   0.03    -0.02   0.01   0.06    -0.01   0.00   0.01
    11   1     0.00   0.67   0.03     0.00   0.66   0.03     0.00   0.19   0.01
    12   1    -0.16  -0.09   0.04    -0.16  -0.09   0.04     0.33   0.20  -0.08
    13   1     0.00   0.11   0.01     0.00   0.11   0.01     0.01  -0.55  -0.03
    14   1     0.16   0.09  -0.04    -0.16  -0.09   0.04     0.33   0.20  -0.08
    15   1     0.00  -0.11  -0.01     0.00   0.11   0.01     0.01  -0.55  -0.03
    16   1     0.00  -0.67  -0.03     0.00   0.66   0.03     0.00   0.19   0.01
                    40                     41                     42
                     A                      A                      A
 Frequencies --  3159.0632              3243.7108              3243.7558
 Red. masses --     1.0691                 1.1140                 1.1140
 Frc consts  --     6.2860                 6.9057                 6.9060
 IR Inten    --     0.0000                 0.0027                56.4100
  Atom  AN      X      Y      Z        X      Y      Z        X      Y      Z
     1   6     0.00   0.00   0.00     0.00   0.00   0.00     0.00   0.00   0.00
     2   6     0.00   0.00   0.00     0.00   0.00   0.00     0.00   0.00   0.00
     3   6     0.01  -0.02   0.00     0.00  -0.01   0.00     0.00   0.01   0.00
     4   6    -0.04   0.03   0.01    -0.04  -0.06   0.01     0.04   0.06  -0.01
     5   6     0.04  -0.03  -0.01     0.04   0.06  -0.01     0.04   0.06  -0.01
     6   6    -0.01   0.02   0.00     0.00   0.01   0.00     0.00   0.01   0.00
     7   1     0.01   0.00  -0.01     0.00   0.00   0.00     0.00   0.00  -0.01
     8   1     0.00   0.00   0.00     0.00  -0.01   0.00     0.00  -0.01   0.00
     9   1     0.00   0.00   0.00     0.00   0.01   0.00     0.00  -0.01   0.00
    10   1    -0.01   0.00   0.01     0.00   0.00   0.00     0.00   0.00  -0.01
    11   1     0.00   0.19   0.01     0.00   0.08   0.00     0.00  -0.09   0.00
    12   1     0.33   0.20  -0.08     0.47   0.26  -0.11    -0.48  -0.27   0.11
    13   1     0.01  -0.55  -0.03    -0.02   0.42   0.03     0.02  -0.43  -0.03
    14   1    -0.33  -0.20   0.08    -0.48  -0.27   0.11    -0.47  -0.26   0.11
    15   1    -0.01   0.55   0.03     0.02  -0.43  -0.03     0.02  -0.42  -0.03
    16   1     0.00  -0.19  -0.01     0.00  -0.08   0.00     0.00  -0.08   0.00

 -------------------
 - Thermochemistry -
 -------------------
 Temperature   298.150 Kelvin.  Pressure   1.00000 Atm.
 Atom     1 has atomic number  6 and mass  12.00000
 Atom     2 has atomic number  6 and mass  12.00000
 Atom     3 has atomic number  6 and mass  12.00000
 Atom     4 has atomic number  6 and mass  12.00000
 Atom     5 has atomic number  6 and mass  12.00000
 Atom     6 has atomic number  6 and mass  12.00000
 Atom     7 has atomic number  1 and mass   1.00783
 Atom     8 has atomic number  1 and mass   1.00783
 Atom     9 has atomic number  1 and mass   1.00783
 Atom    10 has atomic number  1 and mass   1.00783
 Atom    11 has atomic number  1 and mass   1.00783
 Atom    12 has atomic number  1 and mass   1.00783
 Atom    13 has atomic number  1 and mass   1.00783
 Atom    14 has atomic number  1 and mass   1.00783
 Atom    15 has atomic number  1 and mass   1.00783
 Atom    16 has atomic number  1 and mass   1.00783
 Molecular mass:    82.07825 amu.
 Principal axes and moments of inertia in atomic units:
                           1         2         3
     Eigenvalues --   111.271031359.659421380.79355
           X            0.99998  -0.00359  -0.00546
           Y            0.00353   0.99994  -0.01037
           Z            0.00550   0.01035   0.99993
 This molecule is an asymmetric top.
 Rotational symmetry number  1.
 Rotational temperatures (Kelvin)      0.77840     0.06370     0.06273
 Rotational constants (GHZ):          16.21933     1.32735     1.30703
 Zero-point vibrational energy     376653.8 (Joules/Mol)
                                   90.02242 (Kcal/Mol)
 Warning -- explicit consideration of   7 degrees of freedom as
           vibrations may cause significant error
 Vibrational temperatures:    103.44   114.98   168.12   322.75   510.63
          (Kelvin)            579.21   678.20   910.49   978.36  1160.58
                             1362.34  1375.68  1403.00  1405.98  1462.48
                             1490.11  1506.58  1520.39  1565.59  1757.20
                             1819.54  1901.78  1918.25  1954.47  1958.54
                             2000.22  2149.28  2154.56  2198.91  2217.42
                             2481.36  2486.37  4341.39  4356.04  4399.54
                             4432.24  4514.99  4516.87  4544.87  4545.18
                             4666.97  4667.04
 
 Zero-point correction=                           0.143460 (Hartree/Particle)
 Thermal correction to Energy=                    0.150750
 Thermal correction to Enthalpy=                  0.151694
 Thermal correction to Gibbs Free Energy=         0.111855
 Sum of electronic and zero-point Energies=           -234.416244
 Sum of electronic and thermal Energies=              -234.408954
 Sum of electronic and thermal Enthalpies=            -234.408010
 Sum of electronic and thermal Free Energies=         -234.447849
 
                     E (Thermal)             CV                S
                      KCal/Mol        Cal/Mol-Kelvin    Cal/Mol-Kelvin
 Total                   94.597             25.090             83.849
 Electronic               0.000              0.000              0.000
 Translational            0.889              2.981             39.129
 Rotational               0.889              2.981             26.838
 Vibrational             92.820             19.128             17.882
 Vibration     1          0.598              1.967              4.101
 Vibration     2          0.600              1.963              3.893
 Vibration     3          0.608              1.935              3.152
 Vibration     4          0.649              1.804              1.924
 Vibration     5          0.731              1.565              1.144
 Vibration     6          0.768              1.465              0.953
 Vibration     7          0.828              1.314              0.734
                       Q            Log10(Q)             Ln(Q)
 Total Bot       0.355057D-51        -51.449701       -118.467315
 Total V=0       0.344442D+15         14.537116         33.472946
 Vib (Bot)       0.742479D-64        -64.129316       -147.663206
 Vib (Bot)    1  0.286783D+01          0.457553          1.053554
 Vib (Bot)    2  0.257698D+01          0.411110          0.946616
 Vib (Bot)    3  0.175015D+01          0.243074          0.559699
 Vib (Bot)    4  0.880173D+00         -0.055432         -0.127637
 Vib (Bot)    5  0.518189D+00         -0.285512         -0.657415
 Vib (Bot)    6  0.441909D+00         -0.354667         -0.816651
 Vib (Bot)    7  0.357419D+00         -0.446822         -1.028845
 Vib (V=0)       0.720280D+02          1.857502          4.277055
 Vib (V=0)    1  0.341109D+01          0.532893          1.227031
 Vib (V=0)    2  0.312503D+01          0.494855          1.139445
 Vib (V=0)    3  0.232017D+01          0.365519          0.841639
 Vib (V=0)    4  0.151228D+01          0.179631          0.413616
 Vib (V=0)    5  0.122008D+01          0.086389          0.198919
 Vib (V=0)    6  0.116730D+01          0.067181          0.154690
 Vib (V=0)    7  0.111461D+01          0.047124          0.108507
 Electronic      0.100000D+01          0.000000          0.000000
 Translational   0.292279D+08          7.465797         17.190634
 Rotational      0.163613D+06          5.213817         12.005257
 ***** Axes restored to original set *****
 -------------------------------------------------------------------
 Center     Atomic                   Forces (Hartrees/Bohr)
 Number     Number              X              Y              Z
 -------------------------------------------------------------------
      1        6          -0.000104548   -0.000080395    0.000097536
      2        6           0.000105340    0.000080822   -0.000098021
      3        6          -0.000112828   -0.000034635    0.000062827
      4        6           0.000049595   -0.000007407    0.000000347
      5        6          -0.000049250    0.000007219   -0.000000360
      6        6           0.000111838    0.000034414   -0.000062439
      7        1           0.000002978    0.000004011   -0.000021613
      8        1           0.000008067    0.000025005   -0.000020439
      9        1          -0.000008152   -0.000025121    0.000020531
     10        1          -0.000003187   -0.000003926    0.000021795
     11        1           0.000029389    0.000009252   -0.000024773
     12        1          -0.000019822    0.000011537   -0.000010111
     13        1          -0.000014053    0.000002581   -0.000004617
     14        1           0.000019806   -0.000011515    0.000010151
     15        1           0.000014008   -0.000002552    0.000004567
     16        1          -0.000029183   -0.000009289    0.000024618
 -------------------------------------------------------------------
 Cartesian Forces:  Max     0.000112828 RMS     0.000046241

 GradGradGradGradGradGradGradGradGradGradGradGradGradGradGradGradGradGrad
 Berny optimization.
 Search for a local minimum.
 Step number   1 out of a maximum of    2
 All quantities printed in internal units (Hartrees-Bohrs-Radians)
 Second derivative matrix not updated -- analytic derivatives used.
     Eigenvalues ---    0.00051   0.00066   0.00124   0.00369   0.01178
     Eigenvalues ---    0.01303   0.01503   0.02926   0.03046   0.03588
     Eigenvalues ---    0.04771   0.05038   0.06269   0.06386   0.06901
     Eigenvalues ---    0.07829   0.08479   0.09133   0.09166   0.12013
     Eigenvalues ---    0.13596   0.14660   0.15805   0.17911   0.18011
     Eigenvalues ---    0.21117   0.22415   0.24476   0.31157   0.43145
     Eigenvalues ---    0.51049   0.57994   0.58251   0.68763   0.74397
     Eigenvalues ---    0.81419   0.82300   0.83819   0.95226   0.96618
     Eigenvalues ---    1.48429   1.48453
 Angle between quadratic step and forces=  65.74 degrees.
 Linear search not attempted -- first point.
 TrRot=  0.000000  0.000000 -0.000001  0.000000  0.000013  0.000000
 Variable       Old X    -DE/DX   Delta X   Delta X   Delta X     New X
                                 (Linear)    (Quad)   (Total)
    X1        1.06489  -0.00010   0.00000  -0.00009  -0.00008   1.06481
    Y1       -0.40429  -0.00008   0.00000  -0.00014  -0.00014  -0.40443
    Z1        0.92802   0.00010   0.00000   0.00002   0.00001   0.92803
    X2       -1.06488   0.00011   0.00000   0.00008   0.00007  -1.06481
    Y2        0.40425   0.00008   0.00000   0.00018   0.00018   0.40443
    Z2       -0.92801  -0.00010   0.00000  -0.00003  -0.00002  -0.92803
    X3       -3.56041  -0.00011   0.00000  -0.00012  -0.00012  -3.56053
    Y3       -0.83721  -0.00003   0.00000  -0.00006  -0.00006  -0.83727
    Z3       -0.34199   0.00006   0.00000   0.00032   0.00037  -0.34162
    X4       -5.68460   0.00005   0.00000  -0.00011  -0.00011  -5.68470
    Y4        0.38358  -0.00001   0.00000  -0.00005  -0.00005   0.38353
    Z4        0.28492   0.00000   0.00000   0.00008   0.00016   0.28507
    X5        5.68460  -0.00005   0.00000   0.00011   0.00011   5.68471
    Y5       -0.38354   0.00001   0.00000   0.00001   0.00001  -0.38353
    Z5       -0.28494   0.00000   0.00000  -0.00006  -0.00013  -0.28507
    X6        3.56041   0.00011   0.00000   0.00013   0.00013   3.56054
    Y6        0.83721   0.00003   0.00000   0.00006   0.00006   0.83727
    Z6        0.34201  -0.00006   0.00000  -0.00034  -0.00039   0.34162
    X7        0.46285   0.00000   0.00000   0.00012   0.00016   0.46301
    Y7        0.09036   0.00000   0.00000  -0.00002  -0.00002   0.09034
    Z7        2.85576  -0.00002   0.00000  -0.00004  -0.00005   2.85571
    X8        1.27650   0.00001   0.00000   0.00008   0.00009   1.27660
    Y8       -2.46892   0.00003   0.00000  -0.00002  -0.00002  -2.46894
    Z8        0.88005  -0.00002   0.00000  -0.00040  -0.00042   0.87963
    X9       -1.27647  -0.00001   0.00000  -0.00011  -0.00012  -1.27660
    Y9        2.46889  -0.00003   0.00000   0.00006   0.00006   2.46895
    Z9       -0.88007   0.00002   0.00000   0.00042   0.00044  -0.87963
   X10       -0.46285   0.00000   0.00000  -0.00012  -0.00016  -0.46301
   Y10       -0.09043   0.00000   0.00000   0.00009   0.00009  -0.09034
   Z10       -2.85575   0.00002   0.00000   0.00003   0.00003  -2.85571
   X11       -3.57241   0.00003   0.00000   0.00046   0.00046  -3.57195
   Y11       -2.89824   0.00001   0.00000  -0.00002  -0.00002  -2.89826
   Z11       -0.43117  -0.00002   0.00000  -0.00005  -0.00001  -0.43118
   X12       -7.42962  -0.00002   0.00000  -0.00040  -0.00039  -7.43001
   Y12       -0.61322   0.00001   0.00000   0.00025   0.00025  -0.61297
   Z12        0.70048  -0.00001   0.00000  -0.00024  -0.00014   0.70034
   X13       -5.75815  -0.00001   0.00000  -0.00027  -0.00027  -5.75842
   Y13        2.43475   0.00000   0.00000  -0.00002  -0.00002   2.43472
   Z13        0.39911   0.00000   0.00000  -0.00033  -0.00025   0.39886
   X14        7.42961   0.00002   0.00000   0.00041   0.00040   7.43001
   Y14        0.61329  -0.00001   0.00000  -0.00032  -0.00031   0.61297
   Z14       -0.70050   0.00001   0.00000   0.00026   0.00016  -0.70034
   X15        5.75817   0.00001   0.00000   0.00025   0.00024   5.75842
   Y15       -2.43470   0.00000   0.00000  -0.00003  -0.00002  -2.43472
   Z15       -0.39918   0.00000   0.00000   0.00040   0.00032  -0.39886
   X16        3.57238  -0.00003   0.00000  -0.00043  -0.00042   3.57195
   Y16        2.89824  -0.00001   0.00000   0.00002   0.00003   2.89826
   Z16        0.43125   0.00002   0.00000  -0.00002  -0.00007   0.43118
         Item               Value     Threshold  Converged?
 Maximum Force            0.000113     0.000450     YES
 RMS     Force            0.000046     0.000300     YES
 Maximum Displacement     0.000458     0.001800     YES
 RMS     Displacement     0.000211     0.001200     YES
 Predicted change in Energy=-9.482064D-08
 Optimization completed.
    -- Stationary point found.
 GradGradGradGradGradGradGradGradGradGradGradGradGradGradGradGradGradGrad

 1\1\GINC-CX1-14-33-1\Freq\RB3LYP\6-31G\C6H10\SCAN-USER-1\06-Nov-2009\0
 \\# freq rb3lyp/6-31g geom=connectivity\\[No Title]\\0,1\C,0.56351495,
 -0.21394203,0.49108827\C,-0.56351166,0.21392042,-0.49108403\C,-1.88408
 945,-0.44303146,-0.180971\C,-3.00815895,0.20298403,0.15077058\C,3.0081
 5901,-0.20296294,-0.15078445\C,1.88408543,0.44303156,0.18098263\H,0.24
 492977,0.04781739,1.51120201\H,0.67549613,-1.30649839,0.4657015\H,-0.6
 7547927,1.30647874,-0.4657108\H,-0.24492921,-0.04785364,-1.51119546\H,
 -1.89043857,-1.53368189,-0.22816742\H,-3.93158672,-0.3245003,0.3706772
 2\H,-3.04708093,1.28841278,0.21119936\H,3.93157911,0.32453689,-0.37068
 629\H,3.04709304,-1.28838984,-0.21123956\H,1.89042066,1.53368088,0.228
 20748\\Version=EM64L-G09RevA.02\State=1-A\HF=-234.5597042\RMSD=2.234e-
 09\RMSF=4.624e-05\ZeroPoint=0.1434599\Thermal=0.1507502\Dipole=0.00000
 08,-0.0000018,0.0000005\DipoleDeriv=-0.0238118,-0.0130744,0.0070656,-0
 .0684962,0.1125141,0.0188593,0.0554851,0.0251116,0.1669037,-0.0238075,
 -0.0130737,0.0070652,-0.0684953,0.1125119,0.0188606,0.0554896,0.025113
 1,0.1669023,0.1931403,-0.011726,-0.1001561,0.160106,0.1502131,0.016827
 6,-0.1868414,0.017303,-0.1507187,-0.1480346,0.0664084,-0.0731381,0.038
 575,0.1064509,-0.0055117,-0.053052,0.0058417,-0.322587,-0.1480367,0.06
 64081,-0.073139,0.0385734,0.1064521,-0.0055029,-0.0530525,0.0058507,-0
 .3225856,0.193139,-0.0117235,-0.100158,0.1601103,0.1502126,0.016834,-0
 .1868384,0.0173087,-0.1507178,-0.0196009,0.0135319,0.0722468,-0.019209
 1,0.0520344,-0.0496657,0.0483816,-0.0290451,-0.1356187,0.0172413,0.021
 7606,-0.0135483,-0.0068702,-0.1612872,0.0263913,-0.0089471,-0.0156853,
 0.0459571,0.0172425,0.0217585,-0.0135481,-0.0068727,-0.1612874,0.02639
 32,-0.0089467,-0.0156825,0.0459575,-0.0196037,0.0135348,0.0722467,-0.0
 192079,0.0520342,-0.0496687,0.0483806,-0.0290475,-0.1356178,0.0161573,
 0.014689,0.027088,-0.0328362,-0.1460622,-0.0084499,0.0448147,-0.006038
 8,0.1109848,-0.09427,-0.0614239,0.0560632,-0.0795029,0.007842,0.014338
 6,0.0782431,0.0077756,0.1453398,0.0591769,-0.030168,0.0243796,0.008232
 7,-0.1217036,-0.0127901,0.0219125,-0.0052643,0.1397389,-0.0942674,-0.0
 614262,0.0560634,-0.0795057,0.00784,0.0143364,0.0782429,0.0077734,0.14
 53395,0.0591775,-0.0301665,0.0243799,0.0082341,-0.1217034,-0.0127961,0
 .0219135,-0.0052699,0.139738,0.0161577,0.0146907,0.0270891,-0.0328351,
 -0.1460615,-0.0084559,0.0448146,-0.0060446,0.1109841\Polar=92.2091345,
 -8.3160597,58.2679954,-10.5621498,2.8416824,36.6463911\PG=C01 [X(C6H10
 )]\NImag=0\\0.45603919,-0.00462280,0.58252990,-0.05451376,0.03016869,0
 .51003547,-0.10181804,0.01504477,-0.03549378,0.45604196,0.01504468,-0.
 09126952,0.01616247,-0.00462071,0.58253018,-0.03549372,0.01616267,-0.1
 0872690,-0.05451297,0.03016749,0.51003291,-0.03437645,-0.00915093,0.00
 085936,-0.17294155,-0.05440564,0.02744366,0.72295153,0.00783246,0.0069
 9428,-0.00369418,-0.04739422,-0.12148581,0.01100120,-0.13252963,0.6815
 3985,-0.01806024,-0.01120707,0.00612359,0.02686032,0.01263080,-0.08383
 121,-0.15298635,0.05873068,0.20270730,0.00021012,-0.00206388,0.0031011
 7,-0.03067983,0.01430750,0.01074355,-0.42750423,0.18635636,0.10766531,
 0.77393765,-0.00290922,-0.00145528,0.00075706,-0.01306554,0.01101490,0
 .00354494,0.18502388,-0.22478737,-0.05755167,-0.08165389,0.69233789,-0
 .00102562,0.00095544,-0.00164779,0.01024055,-0.00364935,0.00508747,0.1
 0804737,-0.05790398,-0.08418227,-0.17941506,0.04916201,0.16261929,-0.0
 3067953,0.01430678,0.01074407,0.00021017,-0.00206385,0.00310116,-0.000
 13081,0.00087763,-0.00103208,-0.00029971,-0.00025751,0.00002127,0.7739
 3719,-0.01306615,0.01101490,0.00354530,-0.00290918,-0.00145536,0.00075
 714,-0.00055914,0.00082970,-0.00069609,-0.00025751,-0.00022905,0.00006
 143,-0.08164893,0.69233353,0.01024042,-0.00364919,0.00508732,-0.001025
 71,0.00095541,-0.00164778,0.00003153,-0.00027161,0.00056755,0.00002126
 ,0.00006143,0.00007776,-0.17942310,0.04917373,0.16262476,-0.17293837,-
 0.05440584,0.02744266,-0.03437678,-0.00915123,0.00085913,-0.00236586,0
 .00146544,-0.00242366,-0.00013083,-0.00055915,0.00003154,-0.42750748,0
 .18501899,0.10805586,0.72295158,-0.04739464,-0.12148694,0.01100066,0.0
 0783222,0.00699438,-0.00369416,0.00146544,-0.00205652,0.00265701,0.000
 87766,0.00082969,-0.00027163,0.18635154,-0.22478061,-0.05790797,-0.132
 52693,0.68153358,0.02685926,0.01263014,-0.08383102,-0.01806007,-0.0112
 0717,0.00612348,-0.00242360,0.00265693,-0.00263869,-0.00103206,-0.0006
 9606,0.00056755,0.10767378,-0.05755566,-0.08418690,-0.15299416,0.05874
 291,0.20271263,-0.06513226,0.01769321,0.07090535,0.00292160,-0.0051448
 4,-0.02624733,0.00217065,-0.00046991,-0.00069805,0.00002140,0.00039904
 ,0.00048972,-0.00194515,-0.00333989,0.00020131,-0.01467273,0.00839715,
 0.02965457,0.08024571,0.01577894,-0.06861982,-0.05719397,-0.00000008,0
 .00248901,0.01093511,-0.00053546,-0.00003821,-0.00037405,-0.00010053,-
 0.00003822,-0.00002088,-0.00117202,-0.00067880,0.00013398,-0.00553113,
 0.00470929,0.01510317,-0.01921742,0.06930383,0.06804362,-0.05839345,-0
 .25845574,0.00321682,-0.00587862,-0.02400560,0.00192873,0.00002131,0.0
 0080788,-0.00065113,0.00013552,0.00072438,0.00000465,0.00148914,-0.000
 12267,0.00337972,-0.00276646,-0.00437684,-0.07329997,0.06248260,0.2873
 3663,-0.05188100,0.02773587,0.00238280,-0.00498814,0.02529406,-0.00024
 965,0.00145861,0.00161714,0.00043241,-0.00020711,-0.00026509,0.0000917
 5,0.00159338,-0.00114687,-0.00067270,-0.00020202,-0.03343524,-0.000653
 74,-0.00086016,0.00996663,0.00036904,0.06179293,0.02496874,-0.29792866
 ,-0.00985163,0.00132529,-0.00965698,-0.00041454,-0.00074033,0.00022913
 ,-0.00013906,0.00022832,0.00041724,-0.00008336,0.00163407,0.00168941,-
 0.00034098,0.00164604,-0.01790133,-0.00138870,0.00061808,-0.00909411,0
 .00036120,-0.02791597,0.32854530,0.00276480,-0.01066607,-0.05174130,-0
 .00513377,0.02338915,-0.00063671,0.00110659,0.00011035,0.00045130,-0.0
 0007646,-0.00003984,-0.00000806,-0.00069478,0.00051498,-0.00047387,0.0
 0016497,0.00803629,0.00037383,0.00341428,-0.03184117,-0.00115272,-0.00
 012259,0.00905449,0.05306328,-0.00498803,0.02529406,-0.00024984,-0.051
 88037,0.02773265,0.00238222,-0.00020244,-0.03343547,-0.00065329,0.0015
 9337,-0.00114692,-0.00067264,-0.00020710,-0.00026510,0.00009175,0.0014
 5855,0.00161721,0.00043245,0.00095922,-0.00073327,0.00041893,-0.003200
 00,0.00083637,-0.00344128,0.06179263,0.00132531,-0.00965705,-0.0004144
 8,0.02496561,-0.29792896,-0.00984858,0.00164580,-0.01790093,-0.0013884
 0,0.00163409,0.00168942,-0.00034098,0.00022832,0.00041725,-0.00008336,
 -0.00074044,0.00022917,-0.00013911,-0.00027360,0.00061501,0.00034309,0
 .00083634,0.00095659,0.00133506,-0.02791259,0.32854568,-0.00513354,0.0
 2338912,-0.00063677,0.00276418,-0.01066299,-0.05174109,0.00016516,0.00
 803667,0.00037374,-0.00069483,0.00051494,-0.00047389,-0.00007645,-0.00
 003986,-0.00000808,0.00110660,0.00011042,0.00045136,0.00097138,0.00018
 792,0.00085841,-0.00344122,0.00133503,-0.00221572,-0.00012214,0.009051
 12,0.05306296,0.00292144,-0.00514505,-0.02624726,-0.06513178,0.0176937
 8,0.07090421,-0.01467276,0.00839773,0.02965463,-0.00194514,-0.00333985
 ,0.00020135,0.00002140,0.00039903,0.00048975,0.00217064,-0.00046986,-0
 .00069809,-0.00350724,0.00139913,-0.00352792,0.00095928,-0.00027361,0.
 00097137,-0.00086002,0.00061804,0.00341392,0.08024524,0.00000007,0.002
 48908,0.01093525,0.01577937,-0.06862127,-0.05719660,-0.00553081,0.0047
 0943,0.01510267,-0.00117197,-0.00067870,0.00013399,-0.00010054,-0.0000
 3819,-0.00002086,-0.00053543,-0.00003828,-0.00037404,0.00139918,0.0004
 7132,0.00164992,-0.00073329,0.00061505,0.00018795,0.00996649,-0.009094
 67,-0.03184115,-0.01921833,0.06930558,0.00321669,-0.00587885,-0.024005
 81,0.06804240,-0.05839606,-0.25845344,0.00337981,-0.00276655,-0.004377
 00,0.00000466,0.00148913,-0.00012268,-0.00065113,0.00013551,0.00072439
 ,0.00192870,0.00002134,0.00080782,-0.00352795,0.00164988,-0.00161294,0
 .00041897,0.00034310,0.00085847,0.00036896,0.00036126,-0.00115240,-0.0
 7329864,0.06248548,0.28733437,0.00193877,-0.00076083,0.00051657,-0.000
 54899,-0.02908236,-0.00111888,-0.05619060,-0.00540776,0.00330990,0.001
 21598,0.03181446,0.00302165,0.00000844,0.00007624,-0.00000897,-0.00009
 431,0.00012123,0.00006180,-0.00006941,0.00001018,-0.00011745,-0.000395
 09,0.00080551,-0.00020312,-0.00445185,-0.00223236,0.00130864,0.0008826
 4,0.00065189,0.00031190,0.05981549,0.00052779,0.00010416,0.00013529,0.
 00241992,-0.01299604,-0.00117901,-0.00033673,-0.32350168,-0.01300742,-
 0.00341037,-0.01462469,-0.00016319,-0.00008519,-0.00004931,0.00001990,
 -0.00017595,0.00046276,-0.00020542,-0.00004824,-0.00007916,-0.00001622
 ,-0.00077710,0.00053417,-0.00035037,-0.00228094,0.00014541,0.00073983,
 -0.00025907,0.00045347,0.00051029,0.00168819,0.34766851,0.00053796,-0.
 00019551,0.00034730,0.00079020,0.00757129,0.00293866,0.00346981,-0.011
 56596,-0.04430661,0.00155437,-0.00968603,0.00604541,0.00003413,0.00001
 986,-0.00002579,0.00003910,-0.00003622,-0.00008103,-0.00010064,-0.0001
 0659,-0.00016224,-0.00007834,-0.00001777,0.00013733,0.00162835,0.00074
 613,0.00130142,-0.00087211,-0.00033453,0.00039903,-0.00882725,0.014206
 94,0.02985356,0.00011227,-0.00012580,0.00033071,0.00016143,0.00339744,
 0.00386997,-0.01967575,-0.01791278,0.00534958,-0.25859696,-0.11712158,
 0.05346983,-0.00004505,-0.00005198,-0.00003972,-0.00004766,0.00014405,
 -0.00019161,0.00000991,-0.00001275,-0.00010956,-0.00008255,0.00005974,
 -0.00001427,0.00042408,0.00019217,-0.00017371,-0.00142865,-0.00034764,
 0.00023486,0.00053270,0.00049000,-0.00226445,0.27578567,0.00014484,0.0
 0036971,-0.00001944,0.00135579,-0.00147044,-0.00102120,0.01879748,0.00
 993003,-0.00468427,-0.12296686,-0.12934727,0.02819211,0.00002335,0.000
 02295,0.00000040,0.00006740,-0.00007574,0.00008947,0.00000610,-0.00004
 511,0.00006257,-0.00006875,0.00001044,-0.00004326,0.00025466,0.0005164
 5,-0.00008081,0.00028186,0.00037014,-0.00016488,-0.00015210,0.00143814
 ,0.00049254,0.12762548,0.12917133,0.00220862,0.00115668,-0.00105893,0.
 00306737,-0.00153976,0.01300328,0.00756045,0.00486362,0.00229749,0.053
 04128,0.02668868,-0.04909570,0.00020226,0.00016026,-0.00011567,0.00029
 937,-0.00056447,0.00054729,-0.00003183,0.00008552,-0.00019348,0.000017
 00,-0.00010686,-0.00000654,-0.00014778,0.00001112,-0.00008049,-0.00212
 013,-0.00067797,0.00011225,-0.00229418,0.00033448,-0.00734660,-0.06064
 051,-0.02886646,0.03910301,-0.00033575,-0.00011568,0.00009116,0.001315
 03,0.00200090,-0.00261981,0.00170057,0.03030545,0.00274908,-0.05757686
 ,0.00307526,0.00554338,-0.00000122,-0.00001814,0.00000361,-0.00007892,
 0.00003226,-0.00003777,-0.00004297,0.00000897,-0.00002695,0.00010021,-
 0.00015243,0.00005411,-0.00006062,-0.00099956,0.00007528,0.00044744,-0
 .00016540,-0.00017529,-0.00276575,0.00205082,0.00409418,0.00284111,-0.
 02537458,-0.00121539,0.05448768,0.00010716,0.00027168,-0.00016175,-0.0
 0151301,0.00111044,0.00083141,-0.00308147,-0.01480046,-0.00004110,0.00
 827003,-0.33511094,-0.01609423,0.00001287,0.00000874,0.00000230,0.0000
 4611,-0.00004849,0.00008390,0.00004173,-0.00004462,0.00006024,-0.00018
 641,0.00004252,-0.00007363,0.00110509,0.00087945,-0.00027294,-0.000083
 42,0.00022592,0.00010374,0.00221127,0.00033071,-0.00109608,0.00366224,
 -0.01090199,-0.00156330,-0.01061084,0.35800990,-0.00095876,-0.00024347
 ,0.00062119,-0.00254338,-0.00026035,-0.00805259,0.00126906,-0.00891900
 ,0.00582690,0.00557993,-0.01450041,-0.03948062,-0.00007839,-0.00005983
 ,0.00003064,-0.00019003,0.00030120,-0.00028623,-0.00008868,-0.00003334
 ,0.00001914,-0.00012292,0.00015416,-0.00008850,0.00014860,0.00033758,0
 .00021830,0.00135007,0.00000429,-0.00017550,0.00404235,-0.00108280,0.0
 1090800,0.00011144,0.00605730,0.00287280,-0.00853978,0.01824400,0.0275
 3682,0.00016146,0.00339736,0.00387019,0.00011230,-0.00012580,0.0003306
 9,-0.00004766,0.00014405,-0.00019161,-0.00004504,-0.00005198,-0.000039
 72,-0.25859333,-0.11712403,0.05346845,-0.01967569,-0.01791320,0.005349
 38,-0.00142868,-0.00034767,0.00023486,0.00042407,0.00019217,-0.0001737
 0,-0.00008255,0.00005975,-0.00001427,0.00000991,-0.00001275,-0.0001095
 6,0.00002293,-0.00000367,0.00002845,-0.00001739,-0.00000062,0.00003960
 ,0.00000392,0.00000570,-0.00000060,0.27578175,0.00135573,-0.00147031,-
 0.00102151,0.00014478,0.00036967,-0.00001941,0.00006739,-0.00007572,0.
 00008946,0.00002335,0.00002295,0.00000041,-0.12296927,-0.12935120,0.02
 819179,0.01879692,0.00993005,-0.00468417,0.00028190,0.00037017,-0.0001
 6488,0.00025467,0.00051645,-0.00008081,-0.00006875,0.00001045,-0.00004
 326,0.00000610,-0.00004511,0.00006257,0.00000459,0.00001524,-0.0000026
 8,-0.00000062,-0.00000501,-0.00001790,0.00000133,0.00000112,0.00000650
 ,0.12762829,0.12917552,0.00306749,-0.00154005,0.01300314,0.00220864,0.
 00115672,-0.00105895,0.00029937,-0.00056447,0.00054731,0.00020226,0.00
 016026,-0.00011567,0.05303979,0.02668829,-0.04909532,0.00756103,0.0048
 6405,0.00229743,-0.00212009,-0.00067798,0.00011224,-0.00014778,0.00001
 111,-0.00008049,0.00001699,-0.00010685,-0.00000654,-0.00003183,0.00008
 552,-0.00019347,0.00000402,0.00005295,0.00000810,0.00003960,-0.0000179
 0,-0.00011491,0.00000986,-0.00001659,0.00006809,-0.06063910,-0.0288660
 3,0.03910265,0.00131498,0.00200093,-0.00261986,-0.00033576,-0.00011569
 ,0.00009117,-0.00007892,0.00003227,-0.00003778,-0.00000123,-0.00001814
 ,0.00000360,-0.05757689,0.00307822,0.00554380,0.00170031,0.03030553,0.
 00274986,0.00044746,-0.00016540,-0.00017529,-0.00006060,-0.00099955,0.
 00007526,0.00010021,-0.00015243,0.00005412,-0.00004299,0.00000897,-0.0
 0002696,-0.00003900,-0.00003128,0.00000063,0.00000392,0.00000133,0.000
 00986,0.00000513,-0.00000709,-0.00000630,0.00284134,-0.02537436,-0.001
 21599,0.05448775,-0.00151292,0.00111044,0.00083161,0.00010717,0.000271
 67,-0.00016176,0.00004611,-0.00004849,0.00008391,0.00001287,0.00000874
 ,0.00000230,0.00827296,-0.33510994,-0.01610132,-0.00308131,-0.01479992
 ,-0.00004154,-0.00008345,0.00022592,0.00010375,0.00110508,0.00087945,-
 0.00027295,-0.00018641,0.00004251,-0.00007362,0.00004174,-0.00004462,0
 .00006024,0.00002003,0.00002031,-0.00000994,0.00000570,0.00000112,-0.0
 0001660,-0.00000708,0.00000572,0.00000396,0.00366237,-0.01090236,-0.00
 156368,-0.01061397,0.35800863,-0.00254350,-0.00026021,-0.00805251,-0.0
 0095876,-0.00024350,0.00062120,-0.00019003,0.00030120,-0.00028624,-0.0
 0007839,-0.00005983,0.00003064,0.00558043,-0.01450741,-0.03948144,0.00
 126917,-0.00891977,0.00582660,0.00135006,0.00000432,-0.00017549,0.0001
 4863,0.00033763,0.00021830,-0.00012292,0.00015417,-0.00008850,-0.00008
 868,-0.00003334,0.00001914,0.00002739,-0.00000980,0.00000617,-0.000000
 60,0.00000650,0.00006809,-0.00000630,0.00000396,-0.00002461,0.00011147
 ,0.00605718,0.00287293,-0.00854048,0.01825193,0.02753784,-0.00054879,-
 0.02908216,-0.00111952,0.00193875,-0.00076090,0.00051661,-0.00009432,0
 .00012124,0.00006181,0.00000844,0.00007624,-0.00000897,0.00121569,0.03
 181445,0.00302247,-0.05619044,-0.00540443,0.00331000,0.00088266,0.0006
 5189,0.00031190,-0.00445179,-0.00223243,0.00130857,-0.00039506,0.00080
 555,-0.00020314,-0.00006940,0.00001019,-0.00011743,0.00013804,0.000231
 81,-0.00003438,0.00002293,0.00000459,0.00000402,-0.00003900,0.00002004
 ,0.00002738,0.00053266,-0.00015206,-0.00229426,-0.00276572,0.00221112,
 0.00404254,0.05981536,0.00242001,-0.01299657,-0.00117938,0.00052780,0.
 00010412,0.00013530,-0.00017595,0.00046277,-0.00020542,-0.00008519,-0.
 00004932,0.00001990,-0.00341024,-0.01462403,-0.00016363,-0.00033348,-0
 .32350109,-0.01301467,-0.00025903,0.00045350,0.00051029,-0.00228105,0.
 00014532,0.00073982,-0.00077708,0.00053421,-0.00035040,-0.00004823,-0.
 00007916,-0.00001619,0.00023182,0.00007801,0.00001454,-0.00000368,0.00
 001524,0.00005295,-0.00003128,0.00002031,-0.00000980,0.00049005,0.0014
 3812,0.00033468,0.00205066,0.00033082,-0.00108305,0.00168487,0.3476677
 4,0.00079029,0.00757112,0.00293878,0.00053796,-0.00019553,0.00034728,0
 .00003908,-0.00003620,-0.00008103,0.00003413,0.00001985,-0.00002580,0.
 00155441,-0.00968678,0.00604511,0.00347001,-0.01157322,-0.04430728,-0.
 00087212,-0.00033451,0.00039905,0.00162834,0.00074618,0.00130142,-0.00
 007837,-0.00001776,0.00013731,-0.00010065,-0.00010659,-0.00016224,-0.0
 0003437,0.00001454,-0.00002269,0.00002845,-0.00000267,0.00000810,0.000
 00063,-0.00000994,0.00000617,-0.00226452,0.00049273,-0.00734655,0.0040
 9436,-0.00109629,0.01090788,-0.00882762,0.01421506,0.02985447\\0.00010
 455,0.00008040,-0.00009754,-0.00010534,-0.00008082,0.00009802,0.000112
 83,0.00003464,-0.00006283,-0.00004960,0.00000741,-0.00000035,0.0000492
 5,-0.00000722,0.00000036,-0.00011184,-0.00003441,0.00006244,-0.0000029
 8,-0.00000401,0.00002161,-0.00000807,-0.00002501,0.00002044,0.00000815
 ,0.00002512,-0.00002053,0.00000319,0.00000393,-0.00002180,-0.00002939,
 -0.00000925,0.00002477,0.00001982,-0.00001154,0.00001011,0.00001405,-0
 .00000258,0.00000462,-0.00001981,0.00001152,-0.00001015,-0.00001401,0.
 00000255,-0.00000457,0.00002918,0.00000929,-0.00002462\\\@


 OPTIMIST - A PESSIMIST WHO LACKS EXPERIENCE
 Job cpu time:  0 days  0 hours  2 minutes 20.5 seconds.
 File lengths (MBytes):  RWF=     17 Int=      0 D2E=      0 Chk=      1 Scr=      1
 Normal termination of Gaussian 09 at Fri Nov  6 14:20:28 2009.
