 Entering Gaussian System, Link 0=g03
 Initial command:
 /apps/gaussian/g09/g09/l1.exe /home/scan-user-1/run/26232/Gau-20301.inp -scrdir=/home/scan-user-1/run/26232/
 Entering Link 1 = /apps/gaussian/g09/g09/l1.exe PID=     20302.
  
 Copyright (c) 1988,1990,1992,1993,1995,1998,2003,2009, Gaussian, Inc.
                  All Rights Reserved.
  
 This is part of the Gaussian(R) 09 program.  It is based on
 the Gaussian(R) 03 system (copyright 2003, Gaussian, Inc.),
 the Gaussian(R) 98 system (copyright 1998, Gaussian, Inc.),
 the Gaussian(R) 94 system (copyright 1995, Gaussian, Inc.),
 the Gaussian 92(TM) system (copyright 1992, Gaussian, Inc.),
 the Gaussian 90(TM) system (copyright 1990, Gaussian, Inc.),
 the Gaussian 88(TM) system (copyright 1988, Gaussian, Inc.),
 the Gaussian 86(TM) system (copyright 1986, Carnegie Mellon
 University), and the Gaussian 82(TM) system (copyright 1983,
 Carnegie Mellon University). Gaussian is a federally registered
 trademark of Gaussian, Inc.
  
 This software contains proprietary and confidential information,
 including trade secrets, belonging to Gaussian, Inc.
  
 This software is provided under written license and may be
 used, copied, transmitted, or stored only in accord with that
 written license.
  
 The following legend is applicable only to US Government
 contracts under FAR:
  
                    RESTRICTED RIGHTS LEGEND
  
 Use, reproduction and disclosure by the US Government is
 subject to restrictions as set forth in subparagraphs (a)
 and (c) of the Commercial Computer Software - Restricted
 Rights clause in FAR 52.227-19.
  
 Gaussian, Inc.
 340 Quinnipiac St., Bldg. 40, Wallingford CT 06492
  
  
 ---------------------------------------------------------------
 Warning -- This program may not be used in any manner that
 competes with the business of Gaussian, Inc. or will provide
 assistance to any competitor of Gaussian, Inc.  The licensee
 of this program is prohibited from giving any competitor of
 Gaussian, Inc. access to this program.  By using this program,
 the user acknowledges that Gaussian, Inc. is engaged in the
 business of creating and licensing software in the field of
 computational chemistry and represents and warrants to the
 licensee that it is not a competitor of Gaussian, Inc. and that
 it will not use this program in any manner prohibited above.
 ---------------------------------------------------------------
  

 Cite this work as:
 Gaussian 09, Revision A.02,
 M. J. Frisch, G. W. Trucks, H. B. Schlegel, G. E. Scuseria, 
 M. A. Robb, J. R. Cheeseman, G. Scalmani, V. Barone, B. Mennucci, 
 G. A. Petersson, H. Nakatsuji, M. Caricato, X. Li, H. P. Hratchian, 
 A. F. Izmaylov, J. Bloino, G. Zheng, J. L. Sonnenberg, M. Hada, 
 M. Ehara, K. Toyota, R. Fukuda, J. Hasegawa, M. Ishida, T. Nakajima, 
 Y. Honda, O. Kitao, H. Nakai, T. Vreven, J. A. Montgomery, Jr., 
 J. E. Peralta, F. Ogliaro, M. Bearpark, J. J. Heyd, E. Brothers, 
 K. N. Kudin, V. N. Staroverov, R. Kobayashi, J. Normand, 
 K. Raghavachari, A. Rendell, J. C. Burant, S. S. Iyengar, J. Tomasi, 
 M. Cossi, N. Rega, J. M. Millam, M. Klene, J. E. Knox, J. B. Cross, 
 V. Bakken, C. Adamo, J. Jaramillo, R. Gomperts, R. E. Stratmann, 
 O. Yazyev, A. J. Austin, R. Cammi, C. Pomelli, J. W. Ochterski, 
 R. L. Martin, K. Morokuma, V. G. Zakrzewski, G. A. Voth, 
 P. Salvador, J. J. Dannenberg, S. Dapprich, A. D. Daniels, 
 O. Farkas, J. B. Foresman, J. V. Ortiz, J. Cioslowski, 
 and D. J. Fox, Gaussian, Inc., Wallingford CT, 2009.
 
 ******************************************
 Gaussian 09:  EM64L-G09RevA.02 11-Jun-2009
                15-Mar-2010 
 ******************************************
 %nprocshared=4
 Will use up to    4 processors via shared memory.
 %mem=7000MB
 %NoSave
 %Chk=chk.chk
 %rwf=/tmp/pbs.3646715.cx1/rwf
 ------------------------------------------------
 # b3lyp/lanl2dz pop=(nbo,full) geom=connectivity
 ------------------------------------------------
 1/38=1,57=2/1;
 2/12=2,17=6,18=5,40=1/2;
 3/5=6,6=3,11=2,16=1,25=1,30=1,74=-5/1,2,3;
 4//1;
 5/5=2,38=5/2;
 6/7=3,28=1/1,7;
 99/5=1,9=1/99;
 -------------------------
 terminal me trans lanl2dz
 -------------------------
 Symbolic Z-matrix:
 Charge =  0 Multiplicity = 1
 Mg                   -1.60158   0.32095  -1.06471 
 Br                   -0.07112  -1.82995  -0.50361 
 Br                    0.07604   1.87155   0.41414 
 C                     4.19527   2.23731  -0.84318 
 O                    -3.15926   0.03191   0.20841 
 Mg                    1.63802  -0.28717   0.93782 
 O                     3.18     -0.00776  -0.3864 
 C                     2.16475  -0.77095   2.91004 
 C                     3.27242   1.12508  -1.34667 
 C                     4.04156  -2.27935   0.07915 
 C                     4.40612  -0.84744  -0.31058 
 C                    -4.54081   0.11843  -0.33431 
 C                    -2.21684   0.87383  -2.99311 
 C                    -5.08625  -1.26109  -0.71254 
 C                    -3.05664  -0.32283   1.64908 
 C                    -3.26059   0.89848   2.54791 
 H                     4.1888    3.06611  -1.56307 
 H                     5.23135   1.89629  -0.73124 
 H                     3.84302   2.62305   0.11998 
 H                     1.56476  -0.19486   3.63473 
 H                     2.00683  -1.83934   3.13861 
 H                     3.22462  -0.54327   3.12502 
 H                     2.24834   1.48912  -1.45429 
 H                     3.60911   0.71101  -2.30628 
 H                     4.94989  -2.89596   0.06612 
 H                     3.61964  -2.32873   1.08868 
 H                     3.32316  -2.70693  -0.62868 
 H                     4.87302  -0.82311  -1.30393 
 H                     5.08715  -0.39106   0.41787 
 H                    -5.1669    0.61996   0.41329 
 H                    -4.45563   0.76227  -1.21376 
 H                    -2.70584   1.86403  -3.00894 
 H                    -2.92133   0.14929  -3.43886 
 H                    -1.35462   0.93606  -3.67861 
 H                    -6.09528  -1.15371  -1.13241 
 H                    -4.44871  -1.73309  -1.46795 
 H                    -5.15082  -1.92952   0.15408 
 H                    -2.05472  -0.74388   1.76622 
 H                    -3.78682  -1.11536   1.85348 
 H                    -3.14305   0.60013   3.59832 
 H                    -4.26165   1.33163   2.43189 
 H                    -2.51385   1.66662   2.32297 
 
                          Input orientation:                          
 ---------------------------------------------------------------------
 Center     Atomic      Atomic             Coordinates (Angstroms)
 Number     Number       Type             X           Y           Z
 ---------------------------------------------------------------------
      1         12           0       -1.601580    0.320947   -1.064712
      2         35           0       -0.071117   -1.829948   -0.503609
      3         35           0        0.076041    1.871547    0.414143
      4          6           0        4.195269    2.237310   -0.843184
      5          8           0       -3.159261    0.031906    0.208409
      6         12           0        1.638024   -0.287167    0.937819
      7          8           0        3.179997   -0.007764   -0.386404
      8          6           0        2.164755   -0.770953    2.910044
      9          6           0        3.272423    1.125075   -1.346665
     10          6           0        4.041558   -2.279349    0.079148
     11          6           0        4.406116   -0.847442   -0.310581
     12          6           0       -4.540812    0.118429   -0.334307
     13          6           0       -2.216835    0.873827   -2.993112
     14          6           0       -5.086246   -1.261086   -0.712541
     15          6           0       -3.056641   -0.322827    1.649076
     16          6           0       -3.260591    0.898482    2.547914
     17          1           0        4.188801    3.066110   -1.563074
     18          1           0        5.231352    1.896285   -0.731235
     19          1           0        3.843015    2.623054    0.119983
     20          1           0        1.564759   -0.194860    3.634731
     21          1           0        2.006834   -1.839339    3.138609
     22          1           0        3.224623   -0.543273    3.125023
     23          1           0        2.248343    1.489115   -1.454294
     24          1           0        3.609109    0.711010   -2.306275
     25          1           0        4.949886   -2.895955    0.066124
     26          1           0        3.619642   -2.328728    1.088676
     27          1           0        3.323157   -2.706934   -0.628677
     28          1           0        4.873015   -0.823112   -1.303929
     29          1           0        5.087154   -0.391060    0.417874
     30          1           0       -5.166896    0.619960    0.413285
     31          1           0       -4.455629    0.762266   -1.213755
     32          1           0       -2.705842    1.864030   -3.008937
     33          1           0       -2.921325    0.149293   -3.438860
     34          1           0       -1.354620    0.936061   -3.678607
     35          1           0       -6.095284   -1.153714   -1.132405
     36          1           0       -4.448713   -1.733090   -1.467949
     37          1           0       -5.150821   -1.929522    0.154079
     38          1           0       -2.054717   -0.743877    1.766223
     39          1           0       -3.786818   -1.115357    1.853481
     40          1           0       -3.143047    0.600134    3.598315
     41          1           0       -4.261654    1.331625    2.431886
     42          1           0       -2.513848    1.666622    2.322968
 ---------------------------------------------------------------------
                    Distance matrix (angstroms):
                    1          2          3          4          5
     1  Mg   0.000000
     2  Br   2.698797   0.000000
     3  Br   2.721357   3.816411   0.000000
     4  C    6.109417   5.904231   4.322348   0.000000
     5  O    2.032425   3.675609   3.727437   7.749759   0.000000
     6  Mg   3.856808   2.716441   2.715525   4.010543   4.862899
     7  O    4.840623   3.728784   3.715808   2.505949   6.367226
     8  C    5.583566   4.215877   4.192261   5.221049   6.023999
     9  C    4.947931   4.541163   3.724852   1.530426   6.706701
    10  C    6.317829   4.177997   5.750433   4.612432   7.563756
    11  C    6.166543   4.587831   5.164075   3.137486   7.633972
    12  C    3.035390   4.878833   4.994891   9.003762   1.486846
    13  C    2.098319   4.255835   4.226359   6.899011   3.441909
    14  C    3.843143   5.051611   6.142639   9.919797   2.496647
    15  C    3.145837   3.977288   4.019208   8.084297   1.487242
    16  C    4.017080   5.189303   4.078351   8.299509   2.496899
    17  H    6.427503   6.575770   4.717114   1.097813   8.144849
    18  H    7.020104   6.484813   5.281073   1.096494   8.646457
    19  H    6.028832   5.961420   3.852452   1.095706   7.466842
    20  H    5.690037   4.740829   4.105911   5.734698   5.840160
    21  H    5.946040   4.193295   4.992129   6.104342   6.227051
    22  H    6.449263   5.067978   4.805600   4.941706   7.042119
    23  H    4.042066   4.159312   2.890710   2.173424   5.842108
    24  H    5.370746   4.821839   4.607612   2.194040   7.252286
    25  H    7.385726   5.164440   6.826753   5.267513   8.622696
    26  H    6.238511   4.050414   5.536643   4.991206   7.231942
    27  H    5.797519   3.507968   5.709091   5.025151   7.086868
    28  H    6.579246   5.108686   5.764019   3.168250   8.218009
    29  H    6.887973   5.433902   5.498241   3.048615   8.259911
    30  H    3.871093   5.727976   5.390256   9.583562   2.101994
    31  H    2.891811   5.142745   4.941315   8.783571   2.058287
    32  H    2.716710   5.183041   4.410942   7.242593   3.730091
    33  H    2.721722   4.544973   5.176485   7.857688   3.656906
    34  H    2.696628   4.402136   4.435372   6.366643   4.379854
    35  H    4.729966   6.094527   7.044804  10.838735   3.438562
    36  H    3.533813   4.483601   6.083509   9.532724   2.754646
    37  H    4.375748   5.123071   6.468063  10.281363   2.795794
    38  H    3.058329   3.204116   3.634377   7.399919   2.061223
    39  H    3.918429   4.457908   5.090675   9.067860   2.101500
    40  H    4.919135   5.671669   4.702975   8.732591   3.437239
    41  H    4.508177   6.014422   4.814395   9.114049   2.801498
    42  H    3.757586   5.116881   3.223838   7.440595   2.749584
                    6          7          8          9         10
     6  Mg   0.000000
     7  O    2.051661   0.000000
     8  C    2.097896   3.532668   0.000000
     9  C    3.143971   1.487941   4.789720   0.000000
    10  C    3.237759   2.473686   3.716399   3.770227   0.000000
    11  C    3.087838   1.488011   3.924535   2.499911   1.528119
    12  C    6.321458   7.722016   7.502096   7.942597   8.920614
    13  C    5.626728   6.057881   7.533318   5.736364   7.651718
    14  C    6.991996   8.367076   8.120367   8.715688   9.218483
    15  C    4.748372   6.567960   5.390161   7.150380   7.528418
    16  C    5.290992   7.135312   5.687928   7.609163   8.337553
    17  H    4.899530   3.442519   6.231260   2.157359   5.593970
    18  H    4.523849   2.819994   5.456839   2.193381   4.416814
    19  H    3.741688   2.759932   4.703220   2.172688   4.906592
    20  H    2.699486   4.337456   1.103200   5.428872   4.808513
    21  H    2.718223   4.142064   1.103916   5.523328   3.700542
    22  H    2.714175   3.552306   1.105158   4.773014   3.599819
    23  H    3.041360   2.061314   4.915520   1.092176   4.446165
    24  H    3.925007   2.094440   5.611805   1.098025   3.849611
    25  H    4.305120   3.417446   4.512258   4.580233   1.097922
    26  H    2.849130   2.784964   2.803701   4.240307   1.095262
    27  H    3.338990   2.713800   4.196721   3.899022   1.095420
    28  H    3.972133   2.091161   5.009487   2.521736   2.173672
    29  H    3.489647   2.105000   3.859488   2.950510   2.184867
    30  H    6.885125   8.408577   7.869025   8.635663   9.659879
    31  H    6.546998   7.718824   7.948960   7.737705   9.117303
    32  H    6.250896   6.710022   8.105565   6.248908   8.498898
    33  H    6.335099   6.824096   8.186797   6.609988   8.170460
    34  H    5.635920   5.682619   7.662259   5.184902   7.319721
    35  H    8.052378   9.375530   9.204137   9.643273  10.270856
    36  H    6.702744   7.895803   7.989399   8.234061   8.647347
    37  H    7.028513   8.566668   7.902865   9.084813   9.199338
    38  H    3.811978   5.707705   4.371842   6.446819   6.509106
    39  H    5.563564   7.401375   6.054433   8.068045   8.110894
    40  H    5.542940   7.498561   5.525066   8.117059   8.502618
    41  H    6.297533   8.069380   6.778510   8.431039   9.355097
    42  H    4.793117   6.524120   5.308084   6.873166   7.973629
                   11         12         13         14         15
    11  C    0.000000
    12  C    8.998944   0.000000
    13  C    7.349981   3.611196   0.000000
    14  C    9.509869   1.530889   4.241742   0.000000
    15  C    7.733577   2.516203   4.866946   3.252209   0.000000
    16  C    8.366459   3.248792   5.638528   4.315938   1.530066
    17  H    4.114833   9.295420   6.919775  10.270079   8.619700
    18  H    2.895859   9.940499   7.850923  10.789911   8.903997
    19  H    3.542148   8.761740   7.033700   9.772990   7.656474
    20  H    4.905574   7.288992   7.705248   8.016949   5.031554
    21  H    4.317097   7.665877   7.924560   8.091818   5.491566
    22  H    3.645795   8.526828   8.309586   9.182195   6.456105
    23  H    3.379876   7.016108   4.762810   7.868291   6.407565
    24  H    2.654579   8.406011   5.868550   9.057502   7.819581
    25  H    2.152672   9.965952   8.656331  10.198189   8.557523
    26  H    2.184186   8.637504   7.809085   8.954146   6.993600
    27  H    2.175246   8.361300   7.007418   8.533204   7.181500
    28  H    1.097874   9.510353   7.483242   9.986413   8.476436
    29  H    1.096697   9.670733   8.159842  10.272918   8.236620
    30  H    9.711839   1.096544   4.513408   2.193701   2.620916
    31  H    9.051928   1.093257   2.861950   2.177808   3.366065
    32  H    8.075466   3.683461   1.104482   4.550396   5.157760
    33  H    8.029384   3.501705   1.104512   3.756177   5.111585
    34  H    6.907283   4.690915   1.103264   5.248813   5.732877
    35  H   10.537960   2.161410   4.755578   1.098168   4.202423
    36  H    8.973955   2.172959   3.755452   1.095389   3.693582
    37  H    9.629219   2.191971   5.135353   1.096361   3.033492
    38  H    6.787209   3.366967   5.029366   3.949930   1.093096
    39  H    8.478155   2.622432   5.469110   2.879969   1.096833
    40  H    8.623503   4.201345   6.661808   5.081697   2.158438
    41  H    9.348780   3.033413   5.815623   4.158067   2.191360
    42  H    7.819335   3.683286   5.383070   4.939941   2.169484
                   16         17         18         19         20
    16  C    0.000000
    17  H    8.780221   0.000000
    18  H    9.157594   1.774080   0.000000
    19  H    7.702611   1.774415   1.783324   0.000000
    20  H    5.065626   6.673582   6.072763   5.048222   0.000000
    21  H    5.965765   7.136542   6.271212   5.691802   1.773662
    22  H    6.668562   5.994626   4.984890   4.408889   1.770972
    23  H    6.834828   2.502823   3.096279   2.511403   5.403817
    24  H    8.413743   2.536708   2.552900   3.097959   6.347875
    25  H    9.379177   6.227339   4.866268   5.629167   5.611591
    26  H    7.738337   6.038211   4.874466   5.050585   3.906192
    27  H    8.150797   5.911893   4.984110   5.407358   5.251583
    28  H    9.162758   3.957443   2.802054   3.868396   5.977426
    29  H    8.711190   4.084509   2.563824   3.274371   4.774299
    30  H    2.875450   9.870092  10.538619   9.234550   7.507118
    31  H    3.949281   8.952982   9.765061   8.608652   7.789029
    32  H    5.667329   7.146441   8.257603   7.297519   8.161825
    33  H    6.043000   7.910770   8.766376   8.033751   8.383262
    34  H    6.511812   6.304134   7.279015   6.655121   7.955292
    35  H    5.078557  11.124513  11.736955  10.705244   9.073106
    36  H    4.946106   9.881701  10.364303   9.500014   8.035256
    37  H    4.159450  10.730028  11.100004  10.080486   7.760348
    38  H    2.182319   8.036276   8.142147   6.987816   4.110152
    39  H    2.194242   9.631615   9.852824   8.671510   5.714853
    40  H    1.098258   9.299299   9.516069   8.062013   4.774597
    41  H    1.096906   9.506752  10.022043   8.526332   6.141993
    42  H    1.094653   7.873080   8.328807   6.795411   4.671282
                   21         22         23         24         25
    21  H    0.000000
    22  H    1.778477   0.000000
    23  H    5.677296   5.104299   0.000000
    24  H    6.222405   5.587491   1.784097   0.000000
    25  H    4.383852   4.227116   5.370181   4.520637   0.000000
    26  H    2.653842   2.736896   4.787806   4.556952   1.771132
    27  H    4.083855   4.333751   4.409501   3.818173   1.778967
    28  H    5.383666   4.734039   3.501129   2.226137   2.485887
    29  H    4.357555   3.289505   3.885733   3.289402   2.533194
    30  H    8.058408   8.895180   7.696041   9.188175  10.715944
    31  H    8.214308   8.917157   6.747548   8.138564  10.172727
    32  H    8.585836   8.865156   5.205903   6.457693   9.524895
    33  H    8.456034   9.018696   5.697288   6.651680   9.138622
    34  H    8.091764   8.333503   4.270220   5.154857   8.273702
    35  H    9.184550  10.264453   8.758097   9.951402  11.245784
    36  H    7.931315   9.021704   7.431914   8.461968   9.593711
    37  H    7.755487   8.994235   8.307922   9.474288  10.147217
    38  H    4.424893   5.455090   5.820164   7.126069   7.522383
    39  H    5.978470   7.148734   7.358520   8.679800   9.093689
    40  H    5.716960   6.486802   7.442193   8.970401   9.497083
    41  H    7.060341   7.748550   7.583354   9.207836  10.407773
    42  H    5.778719   6.201369   6.080928   7.735224   9.034256
                   26         27         28         29         30
    26  H    0.000000
    27  H    1.783324   0.000000
    28  H    3.092310   2.531168   0.000000
    29  H    2.521532   3.093578   1.788052   0.000000
    30  H    9.292694   9.177958  10.287424  10.303772   0.000000
    31  H    8.947929   8.537399   9.462830   9.749722   1.781407
    32  H    8.624465   7.931468   8.219906   8.806773   4.395009
    33  H    8.332072   7.419482   8.139732   8.905173   4.483652
    34  H    7.624245   6.667465   6.893274   7.748475   5.601513
    35  H   10.034622   9.558936  10.974621  11.315119   2.529225
    36  H    8.484661   7.877481   9.367474   9.812754   3.097043
    37  H    8.829148   8.545489  10.189564  10.356282   2.562675
    38  H    5.930360   6.205696   7.577967   7.276596   3.657342
    39  H    7.544060   7.697140   9.222112   9.018478   2.643881
    40  H    7.785273   8.403330   9.503414   8.878844   3.773695
    41  H    8.793021   9.121752  10.101553   9.717206   2.323936
    42  H    7.423341   7.868343   8.597610   8.101770   3.432354
                   31         32         33         34         35
    31  H    0.000000
    32  H    2.738305   0.000000
    33  H    2.771447   1.780896   0.000000
    34  H    3.965092   1.770702   1.769476   0.000000
    35  H    2.523106   4.910852   4.134196   5.772712   0.000000
    36  H    2.508279   4.283867   3.124223   4.645943   1.777488
    37  H    3.098384   5.511228   4.711829   6.108370   1.774522
    38  H    4.112556   5.479717   5.351790   5.740950   4.989608
    39  H    3.657966   5.804168   5.509745   6.381841   3.774388
    40  H    4.990509   6.741243   7.055087   7.500994   5.845631
    41  H    3.694928   5.683886   6.136778   6.778307   4.716278
    42  H    4.134826   5.339011   5.972184   6.156008   5.720191
                   36         37         38         39         40
    36  H    0.000000
    37  H    1.778346   0.000000
    38  H    4.143625   3.686546   0.000000
    39  H    3.442615   2.326228   1.773636   0.000000
    40  H    5.728501   4.721555   2.519402   2.530177   0.000000
    41  H    4.963485   4.076040   3.101836   2.558856   1.773955
    42  H    5.447274   4.958826   2.516202   3.095202   1.777582
                   41         42
    41  H    0.000000
    42  H    1.782950   0.000000
 Stoichiometry    C10H26Br2Mg2O2
 Framework group  C1[X(C10H26Br2Mg2O2)]
 Deg. of freedom   120
 Full point group                 C1      NOp   1
 Largest Abelian subgroup         C1      NOp   1
 Largest concise Abelian subgroup C1      NOp   1
                         Standard orientation:                         
 ---------------------------------------------------------------------
 Center     Atomic      Atomic             Coordinates (Angstroms)
 Number     Number       Type             X           Y           Z
 ---------------------------------------------------------------------
      1         12           0       -1.601580    0.320947   -1.064712
      2         35           0       -0.071117   -1.829948   -0.503609
      3         35           0        0.076041    1.871547    0.414143
      4          6           0        4.195269    2.237310   -0.843184
      5          8           0       -3.159261    0.031906    0.208409
      6         12           0        1.638024   -0.287167    0.937819
      7          8           0        3.179997   -0.007764   -0.386404
      8          6           0        2.164755   -0.770953    2.910044
      9          6           0        3.272423    1.125075   -1.346665
     10          6           0        4.041558   -2.279349    0.079148
     11          6           0        4.406116   -0.847442   -0.310581
     12          6           0       -4.540812    0.118429   -0.334307
     13          6           0       -2.216835    0.873827   -2.993112
     14          6           0       -5.086246   -1.261086   -0.712541
     15          6           0       -3.056641   -0.322827    1.649076
     16          6           0       -3.260591    0.898482    2.547914
     17          1           0        4.188801    3.066110   -1.563074
     18          1           0        5.231352    1.896285   -0.731235
     19          1           0        3.843015    2.623054    0.119983
     20          1           0        1.564759   -0.194860    3.634731
     21          1           0        2.006834   -1.839339    3.138609
     22          1           0        3.224623   -0.543273    3.125023
     23          1           0        2.248343    1.489115   -1.454294
     24          1           0        3.609109    0.711010   -2.306275
     25          1           0        4.949886   -2.895955    0.066124
     26          1           0        3.619642   -2.328728    1.088676
     27          1           0        3.323157   -2.706934   -0.628677
     28          1           0        4.873015   -0.823112   -1.303929
     29          1           0        5.087154   -0.391060    0.417874
     30          1           0       -5.166896    0.619960    0.413285
     31          1           0       -4.455629    0.762266   -1.213755
     32          1           0       -2.705842    1.864030   -3.008937
     33          1           0       -2.921325    0.149293   -3.438860
     34          1           0       -1.354620    0.936061   -3.678607
     35          1           0       -6.095284   -1.153714   -1.132405
     36          1           0       -4.448713   -1.733090   -1.467949
     37          1           0       -5.150821   -1.929522    0.154079
     38          1           0       -2.054717   -0.743877    1.766223
     39          1           0       -3.786818   -1.115357    1.853481
     40          1           0       -3.143047    0.600134    3.598315
     41          1           0       -4.261654    1.331625    2.431886
     42          1           0       -2.513848    1.666622    2.322968
 ---------------------------------------------------------------------
 Rotational constants (GHZ):      0.3693575      0.1639182      0.1514220
 Standard basis: LANL2DZ (5D, 7F)
 There are   192 symmetry adapted basis functions of A   symmetry.
 Integral buffers will be    131072 words long.
 Raffenetti 2 integral format.
 Two-electron integral symmetry is turned on.
   192 basis functions,   452 primitive gaussians,   192 cartesian basis functions
    60 alpha electrons       60 beta electrons
       nuclear repulsion energy       912.9584909744 Hartrees.
 NAtoms=   42 NActive=   42 NUniq=   42 SFac= 7.50D-01 NAtFMM=   80 NAOKFM=F Big=F
 One-electron integrals computed using PRISM.
   1 Symmetry operations used in ECPInt.
 ECPInt:  NShTT=    8256 NPrTT=   48008 LenC2=    7511 LenP2D=   27010.
 LDataN:  DoStor=T MaxTD1= 4 Len=   56
 NBasis=   192 RedAO= T  NBF=   192
 NBsUse=   192 1.00D-06 NBFU=   192
 Harris functional with IExCor=  402 diagonalized for initial guess.
 ExpMin= 4.04D-02 ExpMax= 7.82D+03 ExpMxC= 2.73D+02 IAcc=2 IRadAn=         0 AccDes= 0.00D+00
 HarFok:  IExCor=  402 AccDes= 0.00D+00 IRadAn=         0 IDoV= 1
 ScaDFX=  1.000000  1.000000  1.000000  1.000000
 FoFCou: FMM=F IPFlag=           0 FMFlag=      100000 FMFlg1=           0
         NFxFlg=           0 DoJE=T BraDBF=F KetDBF=T FulRan=T
         Omega=  0.000000  0.000000  1.000000  0.000000  0.000000 ICntrl=     500 IOpCl=  0
         NMat0=    1 NMatS0=    1 NMatT0=    0 NMatD0=    1 NMtDS0=    0 NMtDT0=    0
         I1Cent=           4 NGrid=           0.
 Petite list used in FoFCou.
 Initial guess orbital symmetries:
       Occupied  (A) (A) (A) (A) (A) (A) (A) (A) (A) (A) (A) (A)
                 (A) (A) (A) (A) (A) (A) (A) (A) (A) (A) (A) (A)
                 (A) (A) (A) (A) (A) (A) (A) (A) (A) (A) (A) (A)
                 (A) (A) (A) (A) (A) (A) (A) (A) (A) (A) (A) (A)
                 (A) (A) (A) (A) (A) (A) (A) (A) (A) (A) (A) (A)
       Virtual   (A) (A) (A) (A) (A) (A) (A) (A) (A) (A) (A) (A)
                 (A) (A) (A) (A) (A) (A) (A) (A) (A) (A) (A) (A)
                 (A) (A) (A) (A) (A) (A) (A) (A) (A) (A) (A) (A)
                 (A) (A) (A) (A) (A) (A) (A) (A) (A) (A) (A) (A)
                 (A) (A) (A) (A) (A) (A) (A) (A) (A) (A) (A) (A)
                 (A) (A) (A) (A) (A) (A) (A) (A) (A) (A) (A) (A)
                 (A) (A) (A) (A) (A) (A) (A) (A) (A) (A) (A) (A)
                 (A) (A) (A) (A) (A) (A) (A) (A) (A) (A) (A) (A)
                 (A) (A) (A) (A) (A) (A) (A) (A) (A) (A) (A) (A)
                 (A) (A) (A) (A) (A) (A) (A) (A) (A) (A) (A) (A)
                 (A) (A) (A) (A) (A) (A) (A) (A) (A) (A) (A) (A)
 The electronic state of the initial guess is 1-A.
 Requested convergence on RMS density matrix=1.00D-08 within 128 cycles.
 Requested convergence on MAX density matrix=1.00D-06.
 Requested convergence on             energy=1.00D-06.
 No special actions if energy rises.
 Keep R1 ints in memory in canonical form, NReq=175749489.
 SCF Done:  E(RB3LYP) =  -575.344514878     A.U. after   13 cycles
             Convg  =    0.3993D-08             -V/T =  2.0402

 **********************************************************************

            Population analysis using the SCF density.

 **********************************************************************

 Orbital symmetries:
       Occupied  (A) (A) (A) (A) (A) (A) (A) (A) (A) (A) (A) (A)
                 (A) (A) (A) (A) (A) (A) (A) (A) (A) (A) (A) (A)
                 (A) (A) (A) (A) (A) (A) (A) (A) (A) (A) (A) (A)
                 (A) (A) (A) (A) (A) (A) (A) (A) (A) (A) (A) (A)
                 (A) (A) (A) (A) (A) (A) (A) (A) (A) (A) (A) (A)
       Virtual   (A) (A) (A) (A) (A) (A) (A) (A) (A) (A) (A) (A)
                 (A) (A) (A) (A) (A) (A) (A) (A) (A) (A) (A) (A)
                 (A) (A) (A) (A) (A) (A) (A) (A) (A) (A) (A) (A)
                 (A) (A) (A) (A) (A) (A) (A) (A) (A) (A) (A) (A)
                 (A) (A) (A) (A) (A) (A) (A) (A) (A) (A) (A) (A)
                 (A) (A) (A) (A) (A) (A) (A) (A) (A) (A) (A) (A)
                 (A) (A) (A) (A) (A) (A) (A) (A) (A) (A) (A) (A)
                 (A) (A) (A) (A) (A) (A) (A) (A) (A) (A) (A) (A)
                 (A) (A) (A) (A) (A) (A) (A) (A) (A) (A) (A) (A)
                 (A) (A) (A) (A) (A) (A) (A) (A) (A) (A) (A) (A)
                 (A) (A) (A) (A) (A) (A) (A) (A) (A) (A) (A) (A)
 The electronic state is 1-A.
 Alpha  occ. eigenvalues --  -19.19080 -19.18784 -10.27022 -10.26620 -10.26545
 Alpha  occ. eigenvalues --  -10.26324 -10.19771 -10.19750 -10.19398 -10.19071
 Alpha  occ. eigenvalues --  -10.09963 -10.09851  -1.05837  -1.05595  -0.79939
 Alpha  occ. eigenvalues --   -0.79515  -0.75848  -0.75679  -0.71292  -0.70324
 Alpha  occ. eigenvalues --   -0.66755  -0.66227  -0.62814  -0.61741  -0.61612
 Alpha  occ. eigenvalues --   -0.61543  -0.52408  -0.51963  -0.51755  -0.51229
 Alpha  occ. eigenvalues --   -0.48719  -0.45751  -0.44916  -0.44891  -0.43807
 Alpha  occ. eigenvalues --   -0.41931  -0.41728  -0.40623  -0.39938  -0.39915
 Alpha  occ. eigenvalues --   -0.39288  -0.39258  -0.37674  -0.37550  -0.36746
 Alpha  occ. eigenvalues --   -0.35687  -0.33939  -0.33848  -0.33670  -0.33574
 Alpha  occ. eigenvalues --   -0.31411  -0.31011  -0.30678  -0.30192  -0.28362
 Alpha  occ. eigenvalues --   -0.27038  -0.26072  -0.25875  -0.21214  -0.20597
 Alpha virt. eigenvalues --    0.02128   0.03941   0.04413   0.05277   0.05638
 Alpha virt. eigenvalues --    0.05849   0.06130   0.07365   0.09129   0.10705
 Alpha virt. eigenvalues --    0.10756   0.11051   0.11724   0.11823   0.12530
 Alpha virt. eigenvalues --    0.13035   0.13329   0.14586   0.15310   0.15391
 Alpha virt. eigenvalues --    0.16750   0.17387   0.17978   0.18113   0.18353
 Alpha virt. eigenvalues --    0.18640   0.18970   0.19254   0.19646   0.20081
 Alpha virt. eigenvalues --    0.20313   0.20438   0.21003   0.21181   0.21401
 Alpha virt. eigenvalues --    0.22194   0.22608   0.23592   0.24130   0.24582
 Alpha virt. eigenvalues --    0.25278   0.26188   0.26744   0.27753   0.28441
 Alpha virt. eigenvalues --    0.28605   0.29605   0.29671   0.30136   0.30954
 Alpha virt. eigenvalues --    0.31215   0.32027   0.32706   0.33576   0.33644
 Alpha virt. eigenvalues --    0.33868   0.35297   0.35523   0.36600   0.37439
 Alpha virt. eigenvalues --    0.38344   0.39129   0.39621   0.39829   0.40261
 Alpha virt. eigenvalues --    0.41153   0.43201   0.43799   0.44451   0.45493
 Alpha virt. eigenvalues --    0.46346   0.48129   0.48592   0.49350   0.49811
 Alpha virt. eigenvalues --    0.51285   0.52808   0.53118   0.57661   0.64373
 Alpha virt. eigenvalues --    0.67935   0.70510   0.71615   0.75237   0.84055
 Alpha virt. eigenvalues --    0.84807   0.86424   0.87699   0.90093   0.93042
 Alpha virt. eigenvalues --    0.93926   0.98178   0.99918   1.02590   1.03574
 Alpha virt. eigenvalues --    1.04284   1.06002   1.07361   1.08290   1.09361
 Alpha virt. eigenvalues --    1.09716   1.10264   1.11300   1.11592   1.12590
 Alpha virt. eigenvalues --    1.13622   1.13962   1.14691   1.15459   1.16471
 Alpha virt. eigenvalues --    1.17801   1.18429   1.19506   1.20585   1.20652
 Alpha virt. eigenvalues --    1.20959   1.22813   1.23680   1.24346   1.26279
 Alpha virt. eigenvalues --    1.30775   1.32686   1.34222   1.36506   1.44269
 Alpha virt. eigenvalues --    1.55131   1.82656   1.85247   5.48235   6.05300
 Alpha virt. eigenvalues --   18.57794  19.64216
     Molecular Orbital Coefficients:
                           1         2         3         4         5
                           O         O         O         O         O
     Eigenvalues --   -19.19080 -19.18784 -10.27022 -10.26620 -10.26545
   1 1   Mg 1S          0.00000   0.00004  -0.00002   0.00016   0.00011
   2        2S          0.00022  -0.00051  -0.00010   0.00043  -0.00063
   3        3PX         0.00002   0.00009  -0.00003  -0.00048   0.00025
   4        3PY        -0.00003   0.00001   0.00002   0.00003   0.00003
   5        3PZ         0.00002  -0.00007  -0.00001  -0.00024   0.00007
   6        4PX         0.00020  -0.00023  -0.00003   0.00020  -0.00090
   7        4PY         0.00003   0.00004   0.00018  -0.00024  -0.00007
   8        4PZ         0.00007  -0.00027   0.00004   0.00069  -0.00020
   9 2   Br 1S          0.00000   0.00000   0.00000   0.00000   0.00000
  10        2S          0.00004   0.00002  -0.00005  -0.00007   0.00002
  11        3PX         0.00001  -0.00002   0.00009  -0.00007   0.00004
  12        3PY         0.00003   0.00001  -0.00002  -0.00003   0.00000
  13        3PZ        -0.00001   0.00003   0.00000  -0.00001   0.00001
  14        4PX         0.00001   0.00001  -0.00022   0.00018  -0.00015
  15        4PY        -0.00005  -0.00001   0.00007   0.00008   0.00002
  16        4PZ         0.00004  -0.00007  -0.00001   0.00001  -0.00003
  17 3   Br 1S          0.00000   0.00000   0.00000   0.00000   0.00001
  18        2S          0.00004   0.00003   0.00004  -0.00006   0.00005
  19        3PX         0.00001  -0.00001  -0.00003  -0.00003   0.00009
  20        3PY        -0.00002  -0.00003   0.00001   0.00004  -0.00002
  21        3PZ        -0.00001   0.00002   0.00000   0.00002  -0.00008
  22        4PX         0.00002  -0.00003   0.00009   0.00008  -0.00034
  23        4PY         0.00001   0.00006  -0.00005  -0.00010   0.00008
  24        4PZ         0.00004  -0.00007   0.00001  -0.00008   0.00018
  25 4   C  1S          0.00000   0.00000  -0.00005   0.00000   0.00144
  26        2S         -0.00008  -0.00001  -0.00016  -0.00001  -0.00054
  27        3S         -0.00029   0.00004  -0.00046   0.00004   0.00513
  28        4PX         0.00008   0.00000   0.00007   0.00000  -0.00008
  29        4PY         0.00010   0.00000   0.00017   0.00000  -0.00021
  30        4PZ         0.00003   0.00000   0.00004   0.00000  -0.00005
  31        5PX         0.00000   0.00000  -0.00072  -0.00002  -0.00094
  32        5PY         0.00011  -0.00004   0.00011  -0.00004  -0.00182
  33        5PZ         0.00011   0.00002   0.00056   0.00003  -0.00123
  34 5   O  1S         -0.00003   0.99883   0.00000  -0.00001   0.00000
  35        2S          0.00000   0.00679  -0.00001   0.00017   0.00000
  36        3S          0.00002  -0.00509   0.00002   0.00080  -0.00001
  37        4PX         0.00001  -0.00083   0.00000   0.00003  -0.00001
  38        4PY         0.00000  -0.00019   0.00000  -0.00002   0.00000
  39        4PZ         0.00000   0.00056   0.00000   0.00004   0.00001
  40        5PX        -0.00003   0.00131   0.00000  -0.00041   0.00006
  41        5PY         0.00000   0.00030  -0.00001   0.00006   0.00002
  42        5PZ         0.00000  -0.00091   0.00000  -0.00060  -0.00004
  43 6   Mg 1S          0.00005  -0.00002  -0.00002  -0.00007  -0.00002
  44        2S         -0.00038   0.00031   0.00052  -0.00027   0.00100
  45        3PX        -0.00005   0.00000   0.00016   0.00012  -0.00002
  46        3PY        -0.00006   0.00002   0.00000  -0.00001   0.00009
  47        3PZ         0.00012  -0.00002   0.00023   0.00005   0.00002
  48        4PX         0.00021  -0.00033   0.00019  -0.00003   0.00024
  49        4PY        -0.00008   0.00002  -0.00024   0.00004  -0.00006
  50        4PZ         0.00017  -0.00001  -0.00033   0.00013  -0.00053
  51 7   O  1S          0.99883   0.00003  -0.00001   0.00000  -0.00001
  52        2S          0.00680   0.00000   0.00014  -0.00001   0.00021
  53        3S         -0.00517   0.00002   0.00082   0.00003   0.00054
  54        4PX         0.00087   0.00000  -0.00003   0.00000   0.00004
  55        4PY         0.00023   0.00000   0.00006   0.00000  -0.00004
  56        4PZ        -0.00052   0.00000  -0.00005   0.00000   0.00005
  57        5PX        -0.00138   0.00003   0.00022  -0.00003  -0.00049
  58        5PY        -0.00034  -0.00001  -0.00072   0.00002   0.00064
  59        5PZ         0.00092   0.00000   0.00055   0.00001  -0.00041
  60 8   C  1S          0.00000   0.00000   0.00002   0.00000   0.00001
  61        2S          0.00007   0.00001   0.00013   0.00000   0.00006
  62        3S         -0.00016   0.00001  -0.00039  -0.00001  -0.00011
  63        4PX         0.00002  -0.00001  -0.00001   0.00000   0.00002
  64        4PY         0.00000   0.00000  -0.00001   0.00000   0.00002
  65        4PZ        -0.00002   0.00000   0.00000   0.00000  -0.00004
  66        5PX        -0.00013   0.00009   0.00001   0.00000  -0.00016
  67        5PY         0.00003  -0.00001   0.00005  -0.00002  -0.00018
  68        5PZ         0.00013   0.00001   0.00017   0.00000   0.00016
  69 9   C  1S         -0.00002   0.00000  -0.00125  -0.00012   0.99776
  70        2S         -0.00015   0.00001  -0.00061  -0.00001   0.01589
  71        3S          0.00219  -0.00003   0.00230   0.00003  -0.01730
  72        4PX         0.00005   0.00000   0.00003   0.00000   0.00011
  73        4PY        -0.00031   0.00000  -0.00010   0.00000  -0.00062
  74        4PZ         0.00022   0.00000   0.00005   0.00001   0.00038
  75        5PX         0.00001  -0.00002   0.00153  -0.00003  -0.00184
  76        5PY        -0.00047  -0.00004  -0.00136  -0.00003   0.00020
  77        5PZ         0.00034  -0.00004  -0.00022  -0.00007  -0.00009
  78 10  C  1S          0.00001   0.00000   0.00133   0.00000  -0.00001
  79        2S          0.00006  -0.00001  -0.00034   0.00000  -0.00007
  80        3S         -0.00073   0.00003   0.00361  -0.00002   0.00057
  81        4PX         0.00000   0.00000   0.00002   0.00000  -0.00005
  82        4PY        -0.00012   0.00000   0.00011   0.00000  -0.00003
  83        4PZ         0.00004   0.00000  -0.00002   0.00000   0.00002
  84        5PX         0.00029   0.00004   0.00055  -0.00001   0.00092
  85        5PY        -0.00014   0.00000   0.00206   0.00000   0.00023
  86        5PZ         0.00008  -0.00001  -0.00077   0.00001   0.00021
  87 11  C  1S         -0.00003   0.00000   0.99775   0.00002   0.00115
  88        2S         -0.00020   0.00000   0.01567  -0.00001  -0.00059
  89        3S          0.00241  -0.00006  -0.01644   0.00005   0.00245
  90        4PX        -0.00026   0.00000  -0.00046   0.00000  -0.00006
  91        4PY         0.00021  -0.00001   0.00050   0.00000   0.00003
  92        4PZ        -0.00007  -0.00001  -0.00014   0.00000  -0.00003
  93        5PX        -0.00061  -0.00004   0.00012  -0.00003  -0.00031
  94        5PY         0.00051   0.00001  -0.00002  -0.00001   0.00211
  95        5PZ        -0.00039   0.00005   0.00020  -0.00002  -0.00102
  96 12  C  1S          0.00000  -0.00002  -0.00002   0.99775   0.00012
  97        2S          0.00000  -0.00016  -0.00001   0.01590  -0.00001
  98        3S         -0.00003   0.00215   0.00004  -0.01737   0.00008
  99        4PX        -0.00001   0.00029   0.00000   0.00058  -0.00001
 100        4PY         0.00000  -0.00004   0.00001  -0.00001   0.00001
 101        4PZ         0.00000   0.00020   0.00000   0.00044   0.00000
 102        5PX         0.00001   0.00051  -0.00001   0.00056   0.00000
 103        5PY         0.00001   0.00006  -0.00006   0.00120  -0.00006
 104        5PZ        -0.00002   0.00045  -0.00003  -0.00120   0.00002
 105 13  C  1S          0.00000   0.00000   0.00000   0.00002  -0.00001
 106        2S          0.00000   0.00006  -0.00001   0.00015  -0.00006
 107        3S          0.00001  -0.00013   0.00001  -0.00044   0.00014
 108        4PX         0.00001  -0.00001   0.00000  -0.00005  -0.00005
 109        4PY         0.00000  -0.00001   0.00001   0.00001  -0.00001
 110        4PZ         0.00001   0.00002   0.00000   0.00002  -0.00002
 111        5PX        -0.00006   0.00012   0.00002   0.00059   0.00022
 112        5PY        -0.00002   0.00005  -0.00011   0.00008   0.00004
 113        5PZ         0.00000  -0.00009  -0.00003  -0.00040   0.00008
 114 14  C  1S          0.00000   0.00000   0.00000   0.00141   0.00000
 115        2S          0.00000  -0.00010   0.00002  -0.00059   0.00001
 116        3S         -0.00001  -0.00026  -0.00012   0.00500   0.00003
 117        4PX         0.00000  -0.00006  -0.00001   0.00008   0.00000
 118        4PY         0.00000  -0.00010   0.00000   0.00017  -0.00001
 119        4PZ         0.00000  -0.00004   0.00000   0.00011  -0.00001
 120        5PX         0.00001   0.00010   0.00004   0.00073  -0.00006
 121        5PY         0.00001  -0.00003  -0.00002   0.00225  -0.00007
 122        5PZ         0.00000  -0.00010   0.00001   0.00114  -0.00001
 123 15  C  1S          0.00000  -0.00002   0.00000  -0.00220   0.00013
 124        2S          0.00001  -0.00018   0.00000  -0.00069   0.00002
 125        3S         -0.00006   0.00224  -0.00001   0.00225  -0.00014
 126        4PX         0.00000  -0.00011  -0.00001   0.00000  -0.00002
 127        4PY         0.00000   0.00008   0.00000   0.00000   0.00000
 128        4PZ         0.00000  -0.00033   0.00000  -0.00008  -0.00002
 129        5PX        -0.00001  -0.00021   0.00001  -0.00244   0.00000
 130        5PY         0.00001  -0.00008   0.00004   0.00039   0.00009
 131        5PZ        -0.00001  -0.00068   0.00001  -0.00060   0.00000
 132 16  C  1S          0.00000   0.00000   0.00000  -0.00002   0.00000
 133        2S          0.00000  -0.00010   0.00001  -0.00005  -0.00001
 134        3S          0.00002  -0.00026  -0.00007  -0.00051   0.00005
 135        4PX         0.00000  -0.00001  -0.00001   0.00002  -0.00001
 136        4PY         0.00000   0.00009   0.00000   0.00012   0.00000
 137        4PZ         0.00000   0.00010   0.00000   0.00015  -0.00001
 138        5PX         0.00002   0.00010   0.00005   0.00087   0.00006
 139        5PY        -0.00001   0.00005  -0.00002   0.00054  -0.00001
 140        5PZ         0.00001  -0.00008   0.00003  -0.00003   0.00007
 141 17  H  1S         -0.00002  -0.00001  -0.00005   0.00000  -0.00022
 142        2S          0.00019   0.00003   0.00047   0.00003  -0.00006
 143 18  H  1S          0.00003   0.00000  -0.00007   0.00000  -0.00017
 144        2S         -0.00010   0.00000   0.00047   0.00001  -0.00031
 145 19  H  1S          0.00001  -0.00001   0.00005  -0.00001  -0.00025
 146        2S         -0.00010   0.00002  -0.00046   0.00001   0.00046
 147 20  H  1S          0.00002   0.00001  -0.00001   0.00001  -0.00001
 148        2S         -0.00009  -0.00003   0.00008  -0.00002   0.00004
 149 21  H  1S          0.00001   0.00001   0.00003   0.00000   0.00003
 150        2S          0.00002  -0.00003   0.00005  -0.00001  -0.00019
 151 22  H  1S          0.00002  -0.00001   0.00004   0.00000   0.00001
 152        2S          0.00005  -0.00002  -0.00004   0.00002   0.00010
 153 23  H  1S         -0.00009  -0.00001  -0.00009   0.00001  -0.00019
 154        2S         -0.00034   0.00003   0.00065  -0.00003   0.00248
 155 24  H  1S         -0.00013   0.00000  -0.00008   0.00000  -0.00021
 156        2S         -0.00032  -0.00002  -0.00123  -0.00003   0.00370
 157 25  H  1S          0.00000   0.00000  -0.00020   0.00000  -0.00001
 158        2S          0.00008  -0.00001   0.00029   0.00002  -0.00020
 159 26  H  1S          0.00002   0.00000  -0.00021  -0.00001  -0.00002
 160        2S          0.00018   0.00003   0.00036   0.00004   0.00016
 161 27  H  1S          0.00002   0.00000  -0.00018   0.00000   0.00000
 162        2S          0.00020   0.00002   0.00016   0.00003   0.00045
 163 28  H  1S         -0.00012  -0.00001  -0.00020   0.00000  -0.00014
 164        2S         -0.00057   0.00007   0.00311   0.00001  -0.00079
 165 29  H  1S         -0.00015  -0.00001  -0.00024  -0.00001  -0.00008
 166        2S         -0.00016   0.00004   0.00327   0.00004  -0.00078
 167 30  H  1S          0.00000  -0.00011  -0.00001  -0.00022   0.00000
 168        2S          0.00002  -0.00047   0.00003   0.00370  -0.00003
 169 31  H  1S          0.00000  -0.00010   0.00000  -0.00023   0.00002
 170        2S          0.00002  -0.00028   0.00000   0.00271  -0.00013
 171 32  H  1S          0.00000   0.00000   0.00000   0.00005   0.00000
 172        2S          0.00000   0.00004   0.00005   0.00019  -0.00005
 173 33  H  1S          0.00000   0.00000   0.00000   0.00001   0.00001
 174        2S         -0.00001   0.00006  -0.00003   0.00034  -0.00001
 175 34  H  1S          0.00000   0.00002   0.00000   0.00003  -0.00003
 176        2S          0.00001  -0.00010  -0.00001  -0.00030  -0.00001
 177 35  H  1S          0.00000  -0.00003   0.00000  -0.00026   0.00001
 178        2S          0.00001   0.00025   0.00005   0.00027  -0.00007
 179 36  H  1S         -0.00001   0.00002  -0.00001  -0.00027   0.00003
 180        2S          0.00003  -0.00012   0.00005   0.00050  -0.00016
 181 37  H  1S          0.00000   0.00000   0.00000  -0.00025   0.00001
 182        2S          0.00001   0.00001   0.00001   0.00001  -0.00009
 183 38  H  1S         -0.00001  -0.00009   0.00000  -0.00011  -0.00003
 184        2S          0.00006  -0.00034   0.00001   0.00101   0.00018
 185 39  H  1S          0.00000  -0.00012   0.00000  -0.00018   0.00000
 186        2S          0.00002  -0.00050   0.00003  -0.00082   0.00006
 187 40  H  1S          0.00000  -0.00003   0.00000  -0.00004   0.00000
 188        2S         -0.00001   0.00027  -0.00002   0.00032  -0.00006
 189 41  H  1S          0.00000   0.00000  -0.00001   0.00008   0.00000
 190        2S          0.00002   0.00002   0.00006  -0.00008   0.00002
 191 42  H  1S          0.00000   0.00000   0.00000   0.00009   0.00001
 192        2S         -0.00001  -0.00003   0.00002  -0.00072  -0.00004
                           6         7         8         9        10
                           O         O         O         O         O
     Eigenvalues --   -10.26324 -10.19771 -10.19750 -10.19398 -10.19071
   1 1   Mg 1S         -0.00005  -0.00002  -0.00010  -0.00003  -0.00013
   2        2S          0.00076  -0.00054   0.00048  -0.00023   0.00089
   3        3PX         0.00012  -0.00009   0.00007  -0.00005  -0.00006
   4        3PY        -0.00007   0.00004   0.00012   0.00001   0.00002
   5        3PZ         0.00012  -0.00001  -0.00007  -0.00003  -0.00015
   6        4PX        -0.00011  -0.00014  -0.00041  -0.00006   0.00000
   7        4PY        -0.00006   0.00017   0.00038   0.00009  -0.00050
   8        4PZ         0.00040  -0.00029   0.00050  -0.00013   0.00066
   9 2   Br 1S          0.00001   0.00000   0.00000   0.00000   0.00000
  10        2S          0.00004  -0.00020   0.00005   0.00001  -0.00010
  11        3PX        -0.00009   0.00006  -0.00001   0.00010  -0.00001
  12        3PY         0.00005  -0.00005  -0.00001  -0.00002  -0.00003
  13        3PZ         0.00003   0.00001   0.00006  -0.00004  -0.00006
  14        4PX         0.00029  -0.00029  -0.00002  -0.00025   0.00012
  15        4PY        -0.00014   0.00009   0.00004   0.00002   0.00006
  16        4PZ        -0.00004  -0.00003  -0.00017   0.00007   0.00015
  17 3   Br 1S          0.00000   0.00000   0.00000   0.00000   0.00001
  18        2S          0.00002  -0.00003  -0.00010  -0.00003   0.00002
  19        3PX        -0.00004   0.00009  -0.00009   0.00001  -0.00016
  20        3PY         0.00001   0.00001   0.00004   0.00004   0.00000
  21        3PZ        -0.00003  -0.00006  -0.00003   0.00000   0.00010
  22        4PX         0.00016  -0.00023   0.00028  -0.00003   0.00038
  23        4PY        -0.00003  -0.00003  -0.00007  -0.00012   0.00000
  24        4PZ         0.00010   0.00016   0.00008   0.00000  -0.00021
  25 4   C  1S          0.00000   0.99766   0.00043   0.00027   0.00004
  26        2S         -0.00002   0.01619   0.00000  -0.00005  -0.00003
  27        3S          0.00021  -0.01810   0.00008  -0.00095   0.00012
  28        4PX        -0.00001   0.00000   0.00000   0.00000   0.00000
  29        4PY        -0.00001  -0.00005  -0.00001   0.00011   0.00000
  30        4PZ         0.00001  -0.00007   0.00000   0.00002   0.00001
  31        5PX        -0.00003   0.00083  -0.00001  -0.00032  -0.00007
  32        5PY         0.00007   0.00087  -0.00003  -0.00047  -0.00001
  33        5PZ        -0.00008   0.00034  -0.00001   0.00068   0.00001
  34 5   O  1S         -0.00001   0.00000   0.00000   0.00000   0.00000
  35        2S          0.00014  -0.00002  -0.00019  -0.00001  -0.00019
  36        3S          0.00089   0.00005   0.00012   0.00004   0.00015
  37        4PX        -0.00005  -0.00001   0.00008  -0.00001   0.00001
  38        4PY         0.00002   0.00000   0.00005   0.00000  -0.00003
  39        4PZ        -0.00004   0.00000   0.00004   0.00000  -0.00011
  40        5PX         0.00060   0.00010  -0.00016   0.00005  -0.00008
  41        5PY        -0.00001  -0.00001  -0.00013   0.00000   0.00005
  42        5PZ         0.00058   0.00003  -0.00007   0.00001   0.00026
  43 6   Mg 1S          0.00011  -0.00019  -0.00005   0.00027  -0.00001
  44        2S         -0.00065   0.00092   0.00003  -0.00002  -0.00052
  45        3PX        -0.00016   0.00004   0.00001   0.00027   0.00000
  46        3PY        -0.00004  -0.00007  -0.00006  -0.00031   0.00003
  47        3PZ        -0.00003   0.00014   0.00004   0.00002   0.00005
  48        4PX         0.00083  -0.00013   0.00010  -0.00020   0.00041
  49        4PY         0.00013  -0.00018  -0.00022   0.00037  -0.00010
  50        4PZ        -0.00006  -0.00110  -0.00011  -0.00040   0.00013
  51 7   O  1S          0.00000   0.00000   0.00000   0.00000   0.00000
  52        2S          0.00001  -0.00014   0.00000  -0.00006  -0.00001
  53        3S         -0.00002  -0.00007   0.00000  -0.00011   0.00002
  54        4PX         0.00001  -0.00005   0.00000  -0.00002   0.00001
  55        4PY         0.00000  -0.00008  -0.00001   0.00012  -0.00001
  56        4PZ        -0.00001   0.00004   0.00000  -0.00004  -0.00001
  57        5PX        -0.00003   0.00007  -0.00002   0.00002  -0.00008
  58        5PY         0.00002   0.00020   0.00005  -0.00054   0.00004
  59        5PZ         0.00006  -0.00012   0.00002   0.00024   0.00005
  60 8   C  1S         -0.00001   0.00000   0.00000   0.00002   0.00000
  61        2S         -0.00006   0.00002   0.00000   0.00014  -0.00002
  62        3S          0.00003  -0.00022  -0.00003  -0.00022   0.00001
  63        4PX         0.00004   0.00002   0.00000   0.00005   0.00002
  64        4PY         0.00001  -0.00003  -0.00001  -0.00004  -0.00001
  65        4PZ         0.00001  -0.00006   0.00000  -0.00004   0.00001
  66        5PX        -0.00021  -0.00014  -0.00001  -0.00068  -0.00009
  67        5PY        -0.00003   0.00023   0.00011   0.00048   0.00005
  68        5PZ        -0.00013   0.00014   0.00004   0.00052  -0.00002
  69 9   C  1S         -0.00013  -0.00148   0.00000  -0.00002   0.00000
  70        2S          0.00002  -0.00046   0.00001  -0.00020  -0.00001
  71        3S         -0.00010   0.00412  -0.00005   0.00119   0.00009
  72        4PX         0.00001  -0.00001   0.00001  -0.00005   0.00000
  73        4PY         0.00000   0.00006   0.00001  -0.00011   0.00000
  74        4PZ         0.00001  -0.00003   0.00001   0.00009   0.00002
  75        5PX         0.00000   0.00182  -0.00007   0.00122   0.00000
  76        5PY        -0.00012   0.00240  -0.00005  -0.00043  -0.00012
  77        5PZ        -0.00008   0.00110  -0.00011   0.00006  -0.00021
  78 10  C  1S          0.00000  -0.00027  -0.00001   0.99768   0.00001
  79        2S         -0.00001  -0.00008  -0.00001   0.01661   0.00000
  80        3S          0.00005   0.00029   0.00011  -0.02033   0.00000
  81        4PX         0.00000  -0.00004  -0.00001   0.00013   0.00000
  82        4PY         0.00000  -0.00004   0.00000   0.00008   0.00000
  83        4PZ         0.00000   0.00000   0.00000  -0.00010   0.00000
  84        5PX        -0.00009   0.00053   0.00011  -0.00058  -0.00005
  85        5PY        -0.00004   0.00008   0.00000  -0.00157   0.00003
  86        5PZ         0.00004  -0.00020  -0.00003   0.00018   0.00000
  87 11  C  1S          0.00000   0.00004   0.00000  -0.00136   0.00000
  88        2S         -0.00001  -0.00016   0.00001  -0.00041   0.00000
  89        3S          0.00014   0.00016  -0.00003   0.00457   0.00007
  90        4PX         0.00000   0.00006  -0.00001   0.00001   0.00000
  91        4PY         0.00001  -0.00013   0.00000   0.00007   0.00001
  92        4PZ         0.00001   0.00002   0.00000  -0.00006   0.00000
  93        5PX         0.00011  -0.00033   0.00000  -0.00089   0.00002
  94        5PY        -0.00003   0.00057   0.00010  -0.00429   0.00002
  95        5PZ        -0.00014  -0.00021  -0.00002   0.00153  -0.00007
  96 12  C  1S          0.00210   0.00000  -0.00145   0.00000   0.00004
  97        2S         -0.00062  -0.00002  -0.00051  -0.00001  -0.00005
  98        3S          0.00219   0.00014   0.00420   0.00007  -0.00011
  99        4PX         0.00008   0.00001  -0.00007   0.00000  -0.00007
 100        4PY         0.00001   0.00000   0.00000   0.00000   0.00000
 101        4PZ         0.00005   0.00000  -0.00002   0.00000  -0.00007
 102        5PX         0.00002   0.00004  -0.00093   0.00001   0.00009
 103        5PY        -0.00093   0.00003  -0.00288   0.00000   0.00018
 104        5PZ         0.00236   0.00000  -0.00076   0.00000   0.00010
 105 13  C  1S         -0.00001   0.00000   0.00001   0.00000   0.00001
 106        2S         -0.00005  -0.00001   0.00004   0.00000   0.00005
 107        3S          0.00016   0.00004   0.00002   0.00000  -0.00023
 108        4PX         0.00000   0.00000  -0.00005   0.00000  -0.00001
 109        4PY         0.00000   0.00001   0.00001   0.00001  -0.00004
 110        4PZ         0.00004  -0.00001   0.00005   0.00000   0.00002
 111        5PX        -0.00006   0.00000   0.00024   0.00000   0.00010
 112        5PY         0.00000  -0.00004  -0.00024  -0.00004   0.00026
 113        5PZ         0.00000   0.00000  -0.00031  -0.00001  -0.00007
 114 14  C  1S         -0.00002  -0.00043   0.99766   0.00001   0.00017
 115        2S         -0.00006  -0.00001   0.01617   0.00000  -0.00012
 116        3S         -0.00052  -0.00005  -0.01817  -0.00004   0.00043
 117        4PX        -0.00010  -0.00001  -0.00004  -0.00001  -0.00001
 118        4PY        -0.00014   0.00000   0.00006   0.00000   0.00000
 119        4PZ        -0.00009   0.00000   0.00004   0.00000   0.00000
 120        5PX         0.00041   0.00008  -0.00049   0.00004   0.00037
 121        5PY        -0.00019  -0.00001  -0.00097  -0.00001   0.00002
 122        5PZ        -0.00093   0.00005  -0.00022   0.00002   0.00001
 123 15  C  1S          0.99776   0.00000   0.00004   0.00000  -0.00138
 124        2S          0.01589  -0.00001  -0.00006   0.00000  -0.00051
 125        3S         -0.01733  -0.00005   0.00000   0.00000   0.00430
 126        4PX        -0.00022  -0.00001   0.00005   0.00000   0.00002
 127        4PY         0.00007   0.00000   0.00000   0.00000  -0.00001
 128        4PZ        -0.00071   0.00000   0.00009   0.00000   0.00006
 129        5PX         0.00139  -0.00006  -0.00010  -0.00003  -0.00052
 130        5PY        -0.00086  -0.00003  -0.00024  -0.00003   0.00252
 131        5PZ        -0.00023   0.00000  -0.00014   0.00002   0.00180
 132 16  C  1S          0.00134  -0.00004  -0.00018  -0.00001   0.99766
 133        2S         -0.00060  -0.00003  -0.00012   0.00000   0.01620
 134        3S          0.00504   0.00007   0.00040   0.00002  -0.01830
 135        4PX        -0.00002  -0.00001  -0.00001   0.00000  -0.00007
 136        4PY        -0.00016   0.00000   0.00000   0.00000  -0.00010
 137        4PZ        -0.00015  -0.00001   0.00001   0.00000   0.00000
 138        5PX        -0.00005   0.00012   0.00012   0.00001  -0.00009
 139        5PY        -0.00212   0.00000   0.00010   0.00002   0.00087
 140        5PZ        -0.00151  -0.00001  -0.00039  -0.00003   0.00071
 141 17  H  1S          0.00001  -0.00027   0.00000  -0.00005   0.00000
 142        2S         -0.00012   0.00318   0.00000   0.00081  -0.00001
 143 18  H  1S          0.00000  -0.00026   0.00000  -0.00014   0.00000
 144        2S         -0.00003   0.00311  -0.00002   0.00071   0.00002
 145 19  H  1S          0.00002  -0.00027  -0.00001   0.00002  -0.00001
 146        2S         -0.00008   0.00330   0.00005  -0.00023   0.00001
 147 20  H  1S         -0.00005  -0.00004  -0.00001   0.00007  -0.00001
 148        2S          0.00015   0.00011  -0.00001  -0.00064   0.00000
 149 21  H  1S         -0.00004  -0.00002   0.00000   0.00006  -0.00001
 150        2S          0.00010   0.00028   0.00004   0.00018   0.00003
 151 22  H  1S          0.00001  -0.00003   0.00000   0.00000   0.00001
 152        2S          0.00005   0.00026  -0.00001   0.00044  -0.00001
 153 23  H  1S         -0.00001  -0.00022   0.00000  -0.00010   0.00002
 154        2S          0.00006   0.00044  -0.00002   0.00063  -0.00004
 155 24  H  1S          0.00002  -0.00024   0.00001  -0.00003   0.00001
 156        2S         -0.00011   0.00067  -0.00008  -0.00035  -0.00019
 157 25  H  1S          0.00001   0.00000   0.00001  -0.00021   0.00000
 158        2S         -0.00002  -0.00022  -0.00009   0.00340   0.00004
 159 26  H  1S          0.00001  -0.00005   0.00000  -0.00036   0.00000
 160        2S         -0.00008   0.00031  -0.00002   0.00408  -0.00003
 161 27  H  1S          0.00002   0.00003   0.00001  -0.00020   0.00000
 162        2S         -0.00008  -0.00010  -0.00003   0.00330  -0.00002
 163 28  H  1S          0.00001   0.00004   0.00000  -0.00025   0.00000
 164        2S         -0.00019  -0.00033  -0.00003   0.00098  -0.00008
 165 29  H  1S          0.00002  -0.00004   0.00001  -0.00025   0.00001
 166        2S         -0.00012  -0.00001  -0.00005   0.00080  -0.00004
 167 30  H  1S         -0.00019  -0.00001  -0.00025   0.00000   0.00003
 168        2S         -0.00076   0.00000   0.00066   0.00000  -0.00022
 169 31  H  1S         -0.00014   0.00000  -0.00028   0.00000   0.00000
 170        2S          0.00115  -0.00005   0.00068  -0.00002  -0.00004
 171 32  H  1S          0.00000   0.00001   0.00001   0.00000   0.00000
 172        2S         -0.00007  -0.00003   0.00014   0.00000   0.00002
 173 33  H  1S         -0.00002   0.00000   0.00005   0.00001  -0.00001
 174        2S         -0.00001  -0.00005  -0.00020  -0.00004   0.00024
 175 34  H  1S         -0.00002   0.00001   0.00000   0.00000  -0.00002
 176        2S          0.00007  -0.00006  -0.00016  -0.00003   0.00009
 177 35  H  1S         -0.00004  -0.00001  -0.00028   0.00000  -0.00006
 178        2S          0.00032   0.00010   0.00324   0.00005   0.00026
 179 36  H  1S          0.00008  -0.00001  -0.00028  -0.00001   0.00002
 180        2S         -0.00066   0.00005   0.00338   0.00002  -0.00035
 181 37  H  1S          0.00007   0.00000  -0.00029   0.00000  -0.00003
 182        2S         -0.00003   0.00000   0.00328   0.00000   0.00001
 183 38  H  1S         -0.00020  -0.00001   0.00002   0.00000  -0.00024
 184        2S          0.00264   0.00011  -0.00014   0.00005   0.00055
 185 39  H  1S         -0.00020   0.00000   0.00003   0.00000  -0.00024
 186        2S          0.00349   0.00000  -0.00034  -0.00002   0.00052
 187 40  H  1S         -0.00026  -0.00001  -0.00006   0.00000  -0.00028
 188        2S          0.00026   0.00001   0.00030   0.00003   0.00323
 189 41  H  1S         -0.00025  -0.00002  -0.00002   0.00000  -0.00030
 190        2S          0.00007   0.00009   0.00001   0.00000   0.00336
 191 42  H  1S         -0.00027   0.00000   0.00001   0.00000  -0.00029
 192        2S          0.00041  -0.00004  -0.00034  -0.00001   0.00337
                          11        12        13        14        15
                           O         O         O         O         O
     Eigenvalues --   -10.09963 -10.09851  -1.05837  -1.05595  -0.79939
   1 1   Mg 1S          0.00096  -0.00003  -0.00012   0.01707  -0.00037
   2        2S          0.00168  -0.00125  -0.00034   0.00026  -0.00147
   3        3PX        -0.00066   0.00001  -0.00115  -0.01044   0.00047
   4        3PY         0.00051  -0.00001   0.00027  -0.00206   0.00016
   5        3PZ        -0.00170   0.00004  -0.00077   0.00849   0.00005
   6        4PX         0.00056  -0.00081   0.00052   0.00622  -0.00209
   7        4PY        -0.00030   0.00020  -0.00138   0.00064  -0.00058
   8        4PZ         0.00075  -0.00051   0.00139  -0.00007  -0.00043
   9 2   Br 1S          0.00000   0.00000   0.00032   0.00047   0.00061
  10        2S         -0.00004  -0.00008   0.00003   0.00035   0.00113
  11        3PX        -0.00012   0.00013  -0.00011   0.00028   0.00036
  12        3PY        -0.00004  -0.00008   0.00013   0.00028  -0.00028
  13        3PZ        -0.00012   0.00010   0.00030  -0.00051   0.00040
  14        4PX         0.00035  -0.00039   0.00088  -0.00151   0.00004
  15        4PY         0.00013   0.00024  -0.00018  -0.00038   0.00036
  16        4PZ         0.00033  -0.00028  -0.00073   0.00191  -0.00071
  17 3   Br 1S          0.00000   0.00000   0.00049   0.00038  -0.00472
  18        2S         -0.00003  -0.00004   0.00002  -0.00005  -0.01144
  19        3PX        -0.00010   0.00010   0.00000   0.00001  -0.00072
  20        3PY         0.00007   0.00003  -0.00015   0.00004   0.00104
  21        3PZ        -0.00008   0.00014   0.00041  -0.00055   0.00019
  22        4PX         0.00030  -0.00031   0.00095  -0.00057  -0.00338
  23        4PY        -0.00022  -0.00010   0.00009  -0.00056   0.00043
  24        4PZ         0.00020  -0.00036  -0.00187   0.00184   0.00304
  25 4   C  1S          0.00000   0.00000  -0.01354   0.00002   0.09162
  26        2S          0.00000   0.00000   0.02586   0.00022  -0.18171
  27        3S         -0.00012   0.00024   0.01368  -0.00155  -0.13444
  28        4PX         0.00002  -0.00002  -0.01007   0.00005   0.03266
  29        4PY         0.00001  -0.00001  -0.01661   0.00006   0.03415
  30        4PZ         0.00000   0.00003  -0.00193   0.00001   0.01766
  31        5PX        -0.00007   0.00024   0.00051   0.00047  -0.00374
  32        5PY         0.00003   0.00020   0.00173   0.00053  -0.00548
  33        5PZ        -0.00001  -0.00004   0.01219   0.00014  -0.00512
  34 5   O  1S          0.00000   0.00000   0.00003  -0.21651   0.00000
  35        2S          0.00011   0.00001  -0.00004   0.45376  -0.00002
  36        3S         -0.00026  -0.00007  -0.00008   0.43319   0.00007
  37        4PX        -0.00005  -0.00003   0.00003  -0.07549  -0.00038
  38        4PY         0.00002  -0.00001   0.00001  -0.01657   0.00003
  39        4PZ        -0.00005   0.00001  -0.00005   0.05034  -0.00037
  40        5PX         0.00020   0.00016  -0.00023  -0.00966   0.00028
  41        5PY        -0.00012   0.00006  -0.00012  -0.00286   0.00000
  42        5PZ         0.00048  -0.00008   0.00027   0.00441  -0.00015
  43 6   Mg 1S         -0.00002   0.00093   0.01599  -0.00006   0.00207
  44        2S         -0.00119   0.00214  -0.00040  -0.00172   0.00226
  45        3PX         0.00004   0.00060   0.00968   0.00049   0.00186
  46        3PY         0.00003  -0.00054   0.00198  -0.00033  -0.00334
  47        3PZ        -0.00005   0.00178  -0.00867   0.00066   0.00143
  48        4PX         0.00056  -0.00052  -0.00335   0.00116   0.00124
  49        4PY        -0.00012   0.00017   0.00323  -0.00010  -0.00333
  50        4PZ         0.00055  -0.00090  -0.00061  -0.00108  -0.00198
  51 7   O  1S          0.00000   0.00000  -0.21626  -0.00002   0.00178
  52        2S         -0.00001   0.00011   0.45351   0.00008  -0.00407
  53        3S         -0.00002  -0.00028   0.43135  -0.00007  -0.00419
  54        4PX         0.00002   0.00006   0.07924   0.00002   0.07025
  55        4PY         0.00000  -0.00001   0.01869   0.00001  -0.14839
  56        4PZ        -0.00001   0.00005  -0.04729   0.00003   0.07083
  57        5PX        -0.00014  -0.00032   0.01083  -0.00013   0.01519
  58        5PY        -0.00002   0.00016   0.00557  -0.00011  -0.03139
  59        5PZ         0.00007  -0.00036  -0.00469  -0.00027   0.01327
  60 8   C  1S         -0.00070   0.99765  -0.00027   0.00000  -0.00124
  61        2S         -0.00008   0.01527   0.00024   0.00004   0.00234
  62        3S          0.00024  -0.01429  -0.00112  -0.00072  -0.00082
  63        4PX         0.00001   0.00020  -0.00022   0.00006   0.00072
  64        4PY         0.00000  -0.00018   0.00016  -0.00002  -0.00055
  65        4PZ         0.00002   0.00067  -0.00005  -0.00003  -0.00053
  66        5PX        -0.00011  -0.00023  -0.00117  -0.00069   0.00268
  67        5PY         0.00002   0.00024  -0.00204   0.00030  -0.00068
  68        5PZ        -0.00010  -0.00062  -0.00172   0.00011  -0.00144
  69 9   C  1S          0.00000   0.00000  -0.06560  -0.00002   0.11681
  70        2S         -0.00007   0.00008   0.12949  -0.00007  -0.23947
  71        3S          0.00028  -0.00036   0.06857   0.00077  -0.19231
  72        4PX         0.00000   0.00001  -0.00053  -0.00013  -0.00768
  73        4PY        -0.00001   0.00002  -0.07370  -0.00004  -0.01690
  74        4PZ         0.00000   0.00000   0.05980  -0.00010  -0.02665
  75        5PX         0.00000   0.00008   0.01075   0.00080  -0.00361
  76        5PY        -0.00004   0.00035   0.00921   0.00122   0.00373
  77        5PZ         0.00008  -0.00007  -0.02022   0.00114   0.00775
  78 10  C  1S          0.00000   0.00000  -0.01309   0.00001  -0.10514
  79        2S          0.00001   0.00015   0.02609   0.00012   0.20665
  80        3S         -0.00010  -0.00054   0.01176  -0.00062   0.16900
  81        4PX         0.00001  -0.00003  -0.00045   0.00002   0.01324
  82        4PY         0.00000  -0.00003   0.01902  -0.00001   0.05443
  83        4PZ         0.00002  -0.00005  -0.00448  -0.00003  -0.01370
  84        5PX        -0.00011   0.00064  -0.00440  -0.00007   0.00148
  85        5PY         0.00004   0.00001  -0.00567  -0.00016  -0.00623
  86        5PZ         0.00002  -0.00031   0.00593  -0.00002   0.00177
  87 11  C  1S          0.00000  -0.00001  -0.06639  -0.00001  -0.12083
  88        2S         -0.00002   0.00005   0.13168   0.00004   0.24903
  89        3S          0.00015   0.00045   0.07161   0.00021   0.19125
  90        4PX         0.00000  -0.00009  -0.07605  -0.00003  -0.02531
  91        4PY         0.00002  -0.00001   0.05830   0.00002  -0.04531
  92        4PZ         0.00001   0.00002  -0.00962   0.00001   0.01872
  93        5PX        -0.00003   0.00008   0.01467   0.00011   0.00946
  94        5PY        -0.00003   0.00050  -0.01360  -0.00024   0.01192
  95        5PZ        -0.00012   0.00007  -0.00453   0.00016  -0.00634
  96 12  C  1S         -0.00001   0.00000   0.00002  -0.06644  -0.00036
  97        2S          0.00009  -0.00001   0.00008   0.13109   0.00073
  98        3S         -0.00026   0.00021  -0.00063   0.07373   0.00079
  99        4PX         0.00006   0.00001   0.00001   0.08715   0.00002
 100        4PY         0.00000   0.00000  -0.00003  -0.00643  -0.00009
 101        4PZ         0.00007   0.00001   0.00001   0.04014  -0.00005
 102        5PX         0.00029   0.00001  -0.00002  -0.02591   0.00018
 103        5PY        -0.00047  -0.00002   0.00016   0.00193   0.00009
 104        5PZ        -0.00009  -0.00001   0.00027   0.00195   0.00013
 105 13  C  1S          0.99765   0.00069   0.00001  -0.00039   0.00000
 106        2S          0.01523  -0.00006   0.00012   0.00011  -0.00017
 107        3S         -0.01425   0.00020  -0.00106  -0.00037   0.00037
 108        4PX        -0.00022  -0.00003   0.00000   0.00028  -0.00009
 109        4PY         0.00019   0.00001  -0.00006   0.00001  -0.00005
 110        4PZ        -0.00067  -0.00002   0.00004   0.00001  -0.00007
 111        5PX         0.00028   0.00019   0.00036  -0.00351   0.00053
 112        5PY        -0.00019  -0.00005   0.00043  -0.00055   0.00034
 113        5PZ         0.00074   0.00008  -0.00012   0.00249   0.00044
 114 14  C  1S          0.00000   0.00000   0.00000  -0.01360  -0.00029
 115        2S          0.00004   0.00001  -0.00005   0.02656   0.00057
 116        3S          0.00008  -0.00009   0.00046   0.00985   0.00070
 117        4PX         0.00004  -0.00001   0.00004   0.01110   0.00007
 118        4PY         0.00000   0.00000   0.00001   0.01482   0.00012
 119        4PZ        -0.00001  -0.00001   0.00002   0.00642   0.00001
 120        5PX        -0.00036   0.00005  -0.00023   0.00811  -0.00026
 121        5PY        -0.00017  -0.00007   0.00028  -0.00827  -0.00006
 122        5PZ        -0.00001   0.00007  -0.00020  -0.00320  -0.00004
 123 15  C  1S          0.00000   0.00000   0.00001  -0.06531   0.00033
 124        2S          0.00000  -0.00008   0.00005   0.12897  -0.00059
 125        3S         -0.00040   0.00045  -0.00004   0.07205  -0.00110
 126        4PX        -0.00003   0.00001   0.00007  -0.01249  -0.00009
 127        4PY        -0.00004   0.00001  -0.00005   0.02142  -0.00009
 128        4PZ         0.00007  -0.00001   0.00008  -0.09214  -0.00006
 129        5PX         0.00016   0.00003   0.00031  -0.00555  -0.00042
 130        5PY         0.00024  -0.00015   0.00004  -0.00602   0.00014
 131        5PZ         0.00015  -0.00006   0.00035   0.02200   0.00001
 132 16  C  1S          0.00000   0.00000   0.00001  -0.01311   0.00025
 133        2S          0.00004  -0.00001   0.00010   0.02566  -0.00066
 134        3S          0.00001  -0.00006  -0.00027   0.00874   0.00059
 135        4PX         0.00000   0.00001   0.00004   0.00147  -0.00001
 136        4PY         0.00000   0.00001  -0.00001  -0.01177   0.00012
 137        4PZ        -0.00001   0.00001   0.00004  -0.01476   0.00001
 138        5PX        -0.00009  -0.00007  -0.00067   0.00117   0.00046
 139        5PY         0.00004  -0.00001   0.00028   0.01096   0.00010
 140        5PZ         0.00022  -0.00009  -0.00022  -0.00431   0.00039
 141 17  H  1S          0.00000   0.00003   0.00317   0.00005  -0.04888
 142        2S          0.00002  -0.00030  -0.00131  -0.00013  -0.00336
 143 18  H  1S         -0.00001   0.00003   0.00522   0.00005  -0.04570
 144        2S          0.00009  -0.00028  -0.00130  -0.00013  -0.00405
 145 19  H  1S         -0.00001   0.00006   0.00515   0.00007  -0.04812
 146        2S          0.00005  -0.00028  -0.00629  -0.00020  -0.00007
 147 20  H  1S         -0.00001  -0.00048  -0.00003  -0.00006   0.00013
 148        2S         -0.00005   0.00320   0.00144   0.00031   0.00345
 149 21  H  1S         -0.00001  -0.00048   0.00006  -0.00006   0.00082
 150        2S         -0.00005   0.00330  -0.00038   0.00067   0.00066
 151 22  H  1S          0.00001  -0.00051  -0.00035  -0.00004   0.00097
 152        2S         -0.00008   0.00336   0.00362   0.00076   0.00045
 153 23  H  1S          0.00002   0.00003   0.02100   0.00012  -0.06720
 154        2S         -0.00006  -0.00013   0.00136  -0.00070  -0.00486
 155 24  H  1S         -0.00003   0.00005   0.02173  -0.00005  -0.06044
 156        2S          0.00004  -0.00005  -0.00928   0.00069   0.00383
 157 25  H  1S         -0.00001   0.00005   0.00343   0.00002   0.05549
 158        2S          0.00011  -0.00025  -0.00579   0.00001  -0.00051
 159 26  H  1S          0.00001  -0.00012   0.00506  -0.00001   0.05466
 160        2S         -0.00003   0.00081  -0.00532   0.00022   0.00022
 161 27  H  1S         -0.00001   0.00006   0.00500   0.00002   0.05406
 162        2S          0.00006   0.00009  -0.00038  -0.00008   0.00056
 163 28  H  1S          0.00000   0.00001   0.02277   0.00001   0.06288
 164        2S         -0.00009  -0.00020  -0.00531  -0.00002  -0.00389
 165 29  H  1S         -0.00001   0.00005   0.02090   0.00001   0.06482
 166        2S          0.00004  -0.00048  -0.00040  -0.00017  -0.00243
 167 30  H  1S         -0.00004  -0.00001   0.00003   0.02257   0.00018
 168        2S          0.00042  -0.00004  -0.00012  -0.01116  -0.00012
 169 31  H  1S         -0.00015   0.00002  -0.00007   0.02142   0.00024
 170        2S          0.00062  -0.00015   0.00061  -0.00016  -0.00034
 171 32  H  1S         -0.00051   0.00000  -0.00008   0.00001  -0.00001
 172        2S          0.00337  -0.00004   0.00072   0.00012  -0.00020
 173 33  H  1S         -0.00052   0.00001  -0.00005  -0.00002  -0.00001
 174        2S          0.00342  -0.00006   0.00094   0.00026   0.00021
 175 34  H  1S         -0.00049  -0.00002  -0.00004  -0.00020  -0.00005
 176        2S          0.00326  -0.00006   0.00042   0.00333  -0.00001
 177 35  H  1S          0.00002   0.00000   0.00001   0.00334   0.00016
 178        2S         -0.00024   0.00007  -0.00032  -0.00077  -0.00023
 179 36  H  1S          0.00010   0.00000   0.00000   0.00512   0.00020
 180        2S         -0.00030  -0.00002   0.00000  -0.00426  -0.00032
 181 37  H  1S          0.00003   0.00001  -0.00002   0.00497   0.00016
 182        2S         -0.00019  -0.00005   0.00013   0.00061  -0.00016
 183 38  H  1S          0.00003   0.00004   0.00009   0.02079  -0.00027
 184        2S         -0.00013  -0.00021  -0.00085  -0.00081   0.00076
 185 39  H  1S          0.00000  -0.00001   0.00001   0.02200  -0.00014
 186        2S          0.00020  -0.00015   0.00002  -0.00788  -0.00001
 187 40  H  1S          0.00002  -0.00001   0.00000   0.00316  -0.00014
 188        2S         -0.00020   0.00010   0.00021  -0.00069  -0.00049
 189 41  H  1S          0.00001   0.00001   0.00005   0.00484  -0.00015
 190        2S         -0.00009  -0.00003  -0.00054  -0.00075   0.00001
 191 42  H  1S          0.00005  -0.00002   0.00001   0.00507  -0.00006
 192        2S         -0.00019   0.00013   0.00001  -0.00517  -0.00074
                          16        17        18        19        20
                           O         O         O         O         O
     Eigenvalues --    -0.79515  -0.75848  -0.75679  -0.71292  -0.70324
   1 1   Mg 1S          0.00031   0.00049  -0.01438   0.03603   0.00843
   2        2S         -0.00120   0.00452  -0.00097   0.00698   0.00336
   3        3PX         0.00044   0.00057   0.00744   0.01890   0.00460
   4        3PY        -0.00012  -0.00034   0.00078  -0.00261  -0.01762
   5        3PZ        -0.00280   0.00026  -0.00562   0.01991   0.00054
   6        4PX        -0.00385   0.00164  -0.00313  -0.00232  -0.00187
   7        4PY        -0.00286   0.00029  -0.00026   0.00289  -0.01137
   8        4PZ        -0.00631   0.00249  -0.00356  -0.00501  -0.00263
   9 2   Br 1S         -0.00242  -0.00021  -0.00075   0.15208   0.23631
  10        2S         -0.00583   0.00017  -0.00178   0.40165   0.62637
  11        3PX         0.00048  -0.00040   0.00001   0.00093   0.00074
  12        3PY        -0.00068  -0.00010  -0.00030   0.03051   0.03514
  13        3PZ        -0.00080   0.00003   0.00041   0.00771   0.00908
  14        4PX         0.00087   0.00179   0.00030   0.00033   0.00051
  15        4PY        -0.00069  -0.00075  -0.00009   0.01488   0.02871
  16        4PZ         0.00043  -0.00004  -0.00041   0.00442   0.00773
  17 3   Br 1S         -0.00317   0.00249   0.00168   0.23243  -0.15783
  18        2S         -0.00664   0.00701   0.00451   0.61516  -0.41858
  19        3PX         0.00072  -0.00009   0.00078   0.00057  -0.00065
  20        3PY         0.00079  -0.00002  -0.00020  -0.04131   0.01976
  21        3PZ         0.00021  -0.00050   0.00054  -0.01143   0.00557
  22        4PX         0.00060   0.00291  -0.00388   0.00113  -0.00054
  23        4PY         0.00114  -0.00056  -0.00041  -0.02476   0.02017
  24        4PZ        -0.00165  -0.00067   0.00008  -0.00776   0.00647
  25 4   C  1S         -0.00029  -0.13245   0.00005   0.00634  -0.00422
  26        2S          0.00058   0.26649  -0.00015  -0.01281   0.00854
  27        3S          0.00104   0.22079  -0.00002  -0.01266   0.00955
  28        4PX        -0.00013  -0.02034  -0.00001  -0.00163   0.00075
  29        4PY        -0.00011  -0.02204   0.00001   0.00065  -0.00014
  30        4PZ         0.00003  -0.02110  -0.00003   0.00042  -0.00071
  31        5PX        -0.00001   0.00743   0.00008  -0.00491   0.00180
  32        5PY         0.00066   0.01298  -0.00053   0.00155  -0.00182
  33        5PZ        -0.00015  -0.01014   0.00016  -0.00168   0.00046
  34 5   O  1S          0.00469   0.00002   0.07310   0.00105   0.00116
  35        2S         -0.01024   0.00001  -0.15602  -0.00203  -0.00247
  36        3S         -0.01150  -0.00016  -0.19646  -0.00405  -0.00345
  37        4PX        -0.10538   0.00008  -0.02167   0.00981   0.00579
  38        4PY         0.01758   0.00002  -0.00783   0.00031  -0.00610
  39        4PZ        -0.14404  -0.00004   0.03315  -0.00467   0.00292
  40        5PX        -0.02218  -0.00072  -0.01270  -0.00295   0.00023
  41        5PY         0.00363   0.00003  -0.00317   0.00031  -0.00081
  42        5PZ        -0.03180   0.00006   0.01364   0.00017   0.00133
  43 6   Mg 1S         -0.00034  -0.01092   0.00031   0.03633   0.00764
  44        2S          0.00083   0.00210   0.00368   0.00735   0.00416
  45        3PX        -0.00123  -0.00539   0.00068  -0.01875  -0.00480
  46        3PY         0.00034  -0.00262   0.00013   0.00928  -0.01547
  47        3PZ        -0.00012   0.00521  -0.00028  -0.01685  -0.00712
  48        4PX         0.00285   0.00605  -0.00579  -0.00070   0.00408
  49        4PY         0.00143  -0.00087   0.00244   0.00208  -0.01437
  50        4PZ        -0.00179   0.00595   0.00086   0.00345  -0.00141
  51 7   O  1S         -0.00003   0.07279  -0.00001   0.00094  -0.00036
  52        2S          0.00009  -0.15610  -0.00001  -0.00203   0.00073
  53        3S          0.00006  -0.19292   0.00024  -0.00283   0.00094
  54        4PX        -0.00014   0.02777  -0.00006  -0.01402  -0.00235
  55        4PY         0.00047   0.00151   0.00002   0.00163  -0.00139
  56        4PZ        -0.00027  -0.00945   0.00006   0.00223  -0.00077
[...]
                                                    85(g),174(r),173(r),176(r)
                                                    165(r),96(r),89(r),136(r)
                                                    80(r),170(r)
    15. BD (   1) C   8 - H  20          1.99363    -0.44099  60(v),136(r),174(r)
    16. BD (   1) C   8 - H  21          1.99372    -0.44250  157(v),133(r),102(r)
    17. BD (   1) C   8 - H  22          1.99349    -0.44326  83(v),88(r),139(r)
    29. BD (   1) C  13 - H  32          1.99392    -0.44448  153(v),109(r)
    30. BD (   1) C  13 - H  33          1.99426    -0.44503  154(v),80(r),81(r)
    31. BD (   1) C  13 - H  34          1.99408    -0.44248  53(v),141(r),180(r),120(r)
                                                    107(r)
    44. CR (   1) C   8                  1.99953    -9.97917  130(v),131(v),132(v)
    49. CR (   1) C  13                  1.99952    -9.98015  144(v),142(v),143(v)
    53. LP*(   1)Mg   1                  0.09251     0.12075   
    54. LP (   1)Br   2                  1.97576    -0.40969  157(v),154(v),84(v),88(r)
                                                    188(r)
    55. LP (   2)Br   2                  1.95214    -0.25423  60(v),53(v),188(r),187(r)
    56. LP (   1)Br   3                  1.97706    -0.41158  153(v),156(v),157(g),80(r)
    57. LP (   2)Br   3                  1.95266    -0.25935  60(v),53(v),170(r),192(r)
                                                    171(r),189(r),120(r),88(r)
    60. LP*(   1)Mg   6                  0.09966     0.11893   
    63. RY*(   1)Mg   1                  0.00390     0.87079   
    64. RY*(   2)Mg   1                  0.00298     0.33299   
    65. RY*(   3)Mg   1                  0.00089     2.17531   
    66. RY*(   4)Mg   1                  0.00041     1.89042   
    67. RY*(   1)Br   2                  0.00020     1.06663   
    68. RY*(   2)Br   2                  0.00017     1.03176   
    69. RY*(   3)Br   2                  0.00009     0.74083   
    70. RY*(   4)Br   2                  0.00002    18.64594   
    71. RY*(   1)Br   3                  0.00018     0.93533   
    72. RY*(   2)Br   3                  0.00019     1.11967   
    73. RY*(   3)Br   3                  0.00007     0.90729   
    74. RY*(   4)Br   3                  0.00003    18.43890   
    83. RY*(   1)Mg   6                  0.00481     0.93937   
    84. RY*(   2)Mg   6                  0.00365     0.35219   
    85. RY*(   3)Mg   6                  0.00106     2.18573   
    86. RY*(   4)Mg   6                  0.00049     2.00449   
    91. RY*(   1) C   8                  0.00051     0.96940   
    92. RY*(   2) C   8                  0.00046     0.59721   
    93. RY*(   3) C   8                  0.00033     0.58025   
    94. RY*(   4) C   8                  0.00007     0.62596   
   111. RY*(   1) C  13                  0.00044     0.59783   
   112. RY*(   2) C  13                  0.00036     0.84868   
   113. RY*(   3) C  13                  0.00028     0.72939   
   114. RY*(   4) C  13                  0.00008     0.65382   
   130. RY*(   1) H  20                  0.00033     0.91512   
   131. RY*(   1) H  21                  0.00054     0.91945   
   132. RY*(   1) H  22                  0.00054     0.92196   
   142. RY*(   1) H  32                  0.00061     0.92311   
   143. RY*(   1) H  33                  0.00057     0.91943   
   144. RY*(   1) H  34                  0.00030     0.91608   
   153. BD*(   1)Mg   1 -Br   2          0.05202     0.18492   
   154. BD*(   1)Mg   1 -Br   3          0.05418     0.18186   
   155. BD*(   1)Mg   1 - C  13          0.04063     0.47100   
   156. BD*(   1)Br   2 -Mg   6          0.05633     0.16495   
   157. BD*(   1)Br   3 -Mg   6          0.05086     0.18731   
   164. BD*(   1)Mg   6 - C   8          0.04653     0.46004   
   167. BD*(   1) C   8 - H  20          0.00278     0.52825   
   168. BD*(   1) C   8 - H  21          0.00227     0.52058   
   169. BD*(   1) C   8 - H  22          0.00230     0.51250   
   181. BD*(   1) C  13 - H  32          0.00212     0.51701   
   182. BD*(   1) C  13 - H  33          0.00213     0.51444   
   183. BD*(   1) C  13 - H  34          0.00222     0.52460   
       -------------------------------
              Total Lewis  111.62752  ( 99.5265%)
        Valence non-Lewis    0.50655  (  0.4516%)
        Rydberg non-Lewis    0.02457  (  0.0219%)
       -------------------------------
            Total unit  1  112.15865  (100.0000%)
           Charge unit  1   -0.15865

 Molecular unit  2  (C4H10O)
     6. BD (   1) C   4 - C   9          1.99373    -0.63058  60(r),87(v),166(v),156(r)
                                                    157(r)
     7. BD (   1) C   4 - H  17          1.97780    -0.51192  165(v),60(r)
     8. BD (   1) C   4 - H  18          1.98778    -0.51636  170(v),95(v),60(r)
     9. BD (   1) C   4 - H  19          1.98584    -0.51002  171(v),60(r),157(r)
    13. BD (   1) O   7 - C   9          1.98932    -0.79019  60(r),172(v),159(v),176(v)
                                                    105(v),157(r),86(r),83(r)
                                                    156(r),92(r)
    14. BD (   1) O   7 - C  11          1.99101    -0.79089  60(r),173(v),170(v),95(v)
                                                    86(r),85(r),156(r),93(r)
                                                    65(r),92(r)
    18. BD (   1) C   9 - H  23          1.97810    -0.53318  166(v),160(v),60(r),75(v)
                                                    157(r),83(r),91(r),85(r)
                                                    86(r),154(r),53(r)
    19. BD (   1) C   9 - H  24          1.98376    -0.53741  161(v),60(r),165(g),157(r)
                                                    164(r),85(r)
    20. BD (   1) C  10 - C  11          1.99134    -0.63218  165(v),60(r),157(r)
    21. BD (   1) C  10 - H  25          1.97682    -0.51084  166(v),60(r),83(r),157(r)
    22. BD (   1) C  10 - H  26          1.98354    -0.50976  176(v),60(r),157(r),164(r)
                                                    156(r),167(r),86(r),85(r)
                                                    74(r),72(r)
    23. BD (   1) C  10 - H  27          1.98467    -0.50727  177(v),60(r),166(v),156(r)
                                                    157(r),164(r),85(r)
    24. BD (   1) C  11 - H  28          1.98322    -0.54178  174(v),60(r),100(v),166(g)
                                                    164(r)
    25. BD (   1) C  11 - H  29          1.98423    -0.53804  175(v),60(r),165(v),99(v)
                                                    87(v),156(r),164(r),85(r)
    41. CR (   1) C   4                  1.99937   -10.07370  97(v),127(v),129(v),128(v)
                                                    60(r)
    43. CR (   1) O   7                  1.99986   -19.01844  60(r),96(v),105(v),164(r)
                                                    156(r),157(r),86(r)
    45. CR (   1) C   9                  1.99920   -10.15360  165(g),60(r),166(v),77(v)
                                                    133(v),134(v),157(r)
    46. CR (   1) C  10                  1.99938   -10.06927  135(v),137(v),136(v),106(v)
                                                    60(r),157(r),164(r)
    47. CR (   1) C  11                  1.99919   -10.15891  166(g),60(r),165(v),101(v)
                                                    138(v),139(v),164(r),157(r)
    61. LP (   1) O   7                  1.95219    -0.34624  177(v),158(v),171(v),156(r)
                                                    176(v),172(v),164(r),60(r)
                                                    70(r)
    62. LP (   2) O   7                  1.92079    -0.62905  60(r),164(r),156(r),157(r)
                                                    86(r),85(r),170(v),83(r)
                                                    91(r),176(v),103(v),96(v)
                                                    171(v),88(g),68(r),92(r)
                                                    93(r),72(r),71(r),67(r)
                                                    65(r),63(r),94(r),153(r)
    75. RY*(   1) C   4                  0.00257     0.26662   
    76. RY*(   2) C   4                  0.00183     0.33403   
    77. RY*(   3) C   4                  0.00083     0.57228   
    78. RY*(   4) C   4                  0.00003     0.78382   
    87. RY*(   1) O   7                  0.00351     0.83977   
    88. RY*(   2) O   7                  0.00140     1.06000   
    89. RY*(   3) O   7                  0.00087     1.00205   
    90. RY*(   4) O   7                  0.00026     1.74869   
    95. RY*(   1) C   9                  0.00387     0.46736   
    96. RY*(   2) C   9                  0.00203     0.36817   
    97. RY*(   3) C   9                  0.00130     0.33881   
    98. RY*(   4) C   9                  0.00065     1.04000   
    99. RY*(   1) C  10                  0.00309     0.31959   
   100. RY*(   2) C  10                  0.00177     0.32024   
   101. RY*(   3) C  10                  0.00060     0.48193   
   102. RY*(   4) C  10                  0.00021     0.93638   
   103. RY*(   1) C  11                  0.00387     0.51605   
   104. RY*(   2) C  11                  0.00239     0.38625   
   105. RY*(   3) C  11                  0.00113     0.30827   
   106. RY*(   4) C  11                  0.00053     0.97699   
   127. RY*(   1) H  17                  0.00081     0.84721   
   128. RY*(   1) H  18                  0.00108     0.87763   
   129. RY*(   1) H  19                  0.00118     0.87732   
   133. RY*(   1) H  23                  0.00165     0.92257   
   134. RY*(   1) H  24                  0.00189     0.83974   
   135. RY*(   1) H  25                  0.00076     0.85102   
   136. RY*(   1) H  26                  0.00075     0.99159   
   137. RY*(   1) H  27                  0.00126     0.87615   
   138. RY*(   1) H  28                  0.00204     0.85071   
   139. RY*(   1) H  29                  0.00189     0.84688   
   158. BD*(   1) C   4 - C   9          0.01376     0.34318   
   159. BD*(   1) C   4 - H  17          0.00464     0.46028   
   160. BD*(   1) C   4 - H  18          0.00825     0.45065   
   161. BD*(   1) C   4 - H  19          0.00780     0.46437   
   165. BD*(   1) O   7 - C   9          0.03466     0.18114   
   166. BD*(   1) O   7 - C  11          0.03579     0.17620   
   170. BD*(   1) C   9 - H  23          0.01751     0.47197   
   171. BD*(   1) C   9 - H  24          0.02015     0.45143   
   172. BD*(   1) C  10 - C  11          0.00736     0.34806   
   173. BD*(   1) C  10 - H  25          0.00572     0.46394   
   174. BD*(   1) C  10 - H  26          0.00837     0.46866   
   175. BD*(   1) C  10 - H  27          0.00817     0.46663   
   176. BD*(   1) C  11 - H  28          0.01860     0.44507   
   177. BD*(   1) C  11 - H  29          0.01993     0.45430   
       -------------------------------
              Total Lewis   41.66116  ( 99.3875%)
        Valence non-Lewis    0.21071  (  0.5027%)
        Rydberg non-Lewis    0.04605  (  0.1099%)
       -------------------------------
            Total unit  2   41.91793  (100.0000%)
           Charge unit  2    0.08207

 Molecular unit  3  (C4H10O)
    10. BD (   1) O   5 - C  12          1.99083    -0.78998  53(r),184(v),188(v),66(r)
                                                    65(r),113(r),153(r),85(r)
    11. BD (   1) O   5 - C  15          1.99105    -0.79040  53(r),190(v),180(v),66(r)
                                                    153(r),65(r),113(r),154(r)
                                                    60(r),63(r)
    26. BD (   1) C  12 - C  14          1.99397    -0.63048  53(r),79(v),163(v)
    27. BD (   1) C  12 - H  30          1.98429    -0.54065  185(v),53(r),116(v),155(r)
                                                    153(r)
    28. BD (   1) C  12 - H  31          1.97899    -0.53365  163(v),186(v),53(r),115(v)
                                                    155(r),183(r),65(r),66(r)
    32. BD (   1) C  14 - H  35          1.97806    -0.51251  162(v),53(r)
    33. BD (   1) C  14 - H  36          1.98631    -0.50946  179(v),53(r),155(r),154(r)
    34. BD (   1) C  14 - H  37          1.98741    -0.51497  180(v),107(v),53(r)
    35. BD (   1) C  15 - C  16          1.99384    -0.62619  53(r),79(v),162(v),153(r)
    36. BD (   1) C  15 - H  38          1.97813    -0.53023  162(v),191(v),53(r),123(v)
                                                    66(r),154(r),65(r),153(r)
                                                    60(r),112(r),63(r),111(r)
                                                    156(r),144(r)
    37. BD (   1) C  15 - H  39          1.98509    -0.53666  192(v),53(r),163(g),124(v)
                                                    154(r),153(r)
    38. BD (   1) C  16 - H  40          1.97744    -0.50579  163(v),53(r)
    39. BD (   1) C  16 - H  41          1.98736    -0.51002  188(v),119(v),53(r)
    40. BD (   1) C  16 - H  42          1.98627    -0.50170  189(v),53(r),154(r)
    42. CR (   1) O   5                  1.99987   -19.01546  53(r),120(v),108(v),153(r)
                                                    155(r),154(r),66(r)
    48. CR (   1) C  12                  1.99921   -10.15455  162(g),53(r),163(v),117(v)
                                                    140(v),141(v),155(r)
    50. CR (   1) C  14                  1.99937   -10.07346  145(v),146(v),147(v),110(v)
                                                    53(r)
    51. CR (   1) C  15                  1.99921   -10.15166  163(g),53(r),162(v),125(v)
                                                    148(v),149(v)
    52. CR (   1) C  16                  1.99936   -10.06628  152(v),150(v),151(v),121(v)
                                                    53(r)
    58. LP (   1) O   5                  1.95021    -0.34240  178(v),187(v),189(v),179(v)
                                                    153(r),154(r),180(v),190(r)
                                                    184(r),188(v)
    59. LP (   2) O   5                  1.92063    -0.62312  53(r),155(r),153(r),66(r)
                                                    154(r),65(r),180(v),188(v)
                                                    63(r),112(r),113(r),179(v)
                                                    80(g),189(v),120(v),107(v)
                                                    111(r),68(r),67(r),72(r)
                                                    71(r),64(r)
    79. RY*(   1) O   5                  0.00393     0.82259   
    80. RY*(   2) O   5                  0.00134     1.10220   
    81. RY*(   3) O   5                  0.00074     1.04294   
    82. RY*(   4) O   5                  0.00028     1.72192   
   107. RY*(   1) C  12                  0.00456     0.49979   
   108. RY*(   2) C  12                  0.00177     0.36651   
   109. RY*(   3) C  12                  0.00102     0.36164   
   110. RY*(   4) C  12                  0.00054     1.01613   
   115. RY*(   1) C  14                  0.00235     0.28420   
   116. RY*(   2) C  14                  0.00181     0.30322   
   117. RY*(   3) C  14                  0.00080     0.57318   
   118. RY*(   4) C  14                  0.00004     0.79040   
   119. RY*(   1) C  15                  0.00465     0.47884   
   120. RY*(   2) C  15                  0.00205     0.37652   
   121. RY*(   3) C  15                  0.00130     0.31975   
   122. RY*(   4) C  15                  0.00057     1.05454   
   123. RY*(   1) C  16                  0.00241     0.29259   
   124. RY*(   2) C  16                  0.00197     0.31064   
   125. RY*(   3) C  16                  0.00083     0.57171   
   126. RY*(   4) C  16                  0.00003     0.80044   
   140. RY*(   1) H  30                  0.00186     0.86562   
   141. RY*(   1) H  31                  0.00115     0.93627   
   145. RY*(   1) H  35                  0.00082     0.84119   
   146. RY*(   1) H  36                  0.00107     0.88212   
   147. RY*(   1) H  37                  0.00100     0.87153   
   148. RY*(   1) H  38                  0.00157     0.93884   
   149. RY*(   1) H  39                  0.00190     0.86549   
   150. RY*(   1) H  40                  0.00080     0.84763   
   151. RY*(   1) H  41                  0.00103     0.87810   
   152. RY*(   1) H  42                  0.00120     0.88709   
   162. BD*(   1) O   5 - C  12          0.03630     0.18091   
   163. BD*(   1) O   5 - C  15          0.03755     0.18323   
   178. BD*(   1) C  12 - C  14          0.01370     0.34268   
   179. BD*(   1) C  12 - H  30          0.01889     0.45492   
   180. BD*(   1) C  12 - H  31          0.01430     0.46818   
   184. BD*(   1) C  14 - H  35          0.00481     0.45807   
   185. BD*(   1) C  14 - H  36          0.00756     0.46505   
   186. BD*(   1) C  14 - H  37          0.00824     0.45395   
   187. BD*(   1) C  15 - C  16          0.01343     0.34920   
   188. BD*(   1) C  15 - H  38          0.01557     0.47588   
   189. BD*(   1) C  15 - H  39          0.01876     0.45517   
   190. BD*(   1) C  16 - H  40          0.00472     0.46280   
   191. BD*(   1) C  16 - H  41          0.00848     0.45539   
   192. BD*(   1) C  16 - H  42          0.00880     0.47673   
       -------------------------------
              Total Lewis   41.66690  ( 99.3881%)
        Valence non-Lewis    0.21111  (  0.5036%)
        Rydberg non-Lewis    0.04541  (  0.1083%)
       -------------------------------
            Total unit  3   41.92343  (100.0000%)
           Charge unit  3    0.07657
 1\1\GINC-CX1-7-36-1\SP\RB3LYP\LANL2DZ\C10H26Br2Mg2O2\SCAN-USER-1\15-Ma
 r-2010\0\\# b3lyp/lanl2dz pop=(nbo,full) geom=connectivity\\terminal m
 e trans lanl2dz\\0,1\Mg,0,-1.60158,0.320947,-1.064712\Br,0,-0.071117,-
 1.829948,-0.503609\Br,0,0.076041,1.871547,0.414143\C,0,4.195269,2.2373
 1,-0.843184\O,0,-3.159261,0.031906,0.208409\Mg,0,1.638024,-0.287167,0.
 937819\O,0,3.179997,-0.007764,-0.386404\C,0,2.164755,-0.770953,2.91004
 4\C,0,3.272423,1.125075,-1.346665\C,0,4.041558,-2.279349,0.079148\C,0,
 4.406116,-0.847442,-0.310581\C,0,-4.540812,0.118429,-0.334307\C,0,-2.2
 16835,0.873827,-2.993112\C,0,-5.086246,-1.261086,-0.712541\C,0,-3.0566
 41,-0.322827,1.649076\C,0,-3.260591,0.898482,2.547914\H,0,4.188801,3.0
 6611,-1.563074\H,0,5.231352,1.896285,-0.731235\H,0,3.843015,2.623054,0
 .119983\H,0,1.564759,-0.19486,3.634731\H,0,2.006834,-1.839339,3.138609
 \H,0,3.224623,-0.543273,3.125023\H,0,2.248343,1.489115,-1.454294\H,0,3
 .609109,0.71101,-2.306275\H,0,4.949886,-2.895955,0.066124\H,0,3.619642
 ,-2.328728,1.088676\H,0,3.323157,-2.706934,-0.628677\H,0,4.873015,-0.8
 23112,-1.303929\H,0,5.087154,-0.39106,0.417874\H,0,-5.166896,0.61996,0
 .413285\H,0,-4.455629,0.762266,-1.213755\H,0,-2.705842,1.86403,-3.0089
 37\H,0,-2.921325,0.149293,-3.43886\H,0,-1.35462,0.936061,-3.678607\H,0
 ,-6.095284,-1.153714,-1.132405\H,0,-4.448713,-1.73309,-1.467949\H,0,-5
 .150821,-1.929522,0.154079\H,0,-2.054717,-0.743877,1.766223\H,0,-3.786
 818,-1.115357,1.853481\H,0,-3.143047,0.600134,3.598315\H,0,-4.261654,1
 .331625,2.431886\H,0,-2.513848,1.666622,2.322968\\Version=EM64L-G09Rev
 A.02\State=1-A\HF=-575.3445149\RMSD=3.993e-09\Dipole=0.1503432,-0.0549
 896,-0.0387013\Quadrupole=31.7504648,-15.0511293,-16.6993355,2.238577,
 -15.0891329,-0.5745457\PG=C01 [X(C10H26Br2Mg2O2)]\\@


 I DO NOT DEFINE TIME, SPACE, PLACE, AND MOTION, AS BEING WELL KNOWN TO ALL.
                                            -- NEWTON (1642-1726), PRINCIPIA
 Job cpu time:  0 days  0 hours  4 minutes  1.1 seconds.
 File lengths (MBytes):  RWF=     22 Int=      0 D2E=      0 Chk=      2 Scr=      1
 Normal termination of Gaussian 09 at Mon Mar 15 16:58:55 2010.
