<?xml version="1.0" encoding="UTF-8"?>
<module cmlx:templateRef="gaussian.log" xmlns="http://www.xml-cml.org/schema" xmlns:cmlx="http://www.xml-cml.org/schema/cmlx"> Entering Gaussian System, Link 0=g03 Initial command: /apps/gaussian/g09/g09/l1.exe /home/scan-user-1/run/26159/Gau-7875.inp -scrdir=/home/scan-user-1/run/26159/ Entering Link 1 = /apps/gaussian/g09/g09/l1.exe PID=      7876.  <module cmlx:lineCount="48" cmlx:templateRef="l1.legal"><scalar dataType="xsd:string" dictRef="g:l1.legal">Copyright (c) 1988,1990,1992,1993,1995,1998,2003,2009, Gaussian, Inc.</scalar></module>  <module cmlx:lineCount="18" cmlx:templateRef="l1.citation"><list cmlx:templateRef="citation"><scalar dataType="xsd:string" dictRef="g:l1.citation">Cite this work as:</scalar></list></module> <module cmlx:lineCount="32" cmlx:templateRef="l1.end"><scalar dataType="xsd:string" dictRef="cc:run.date">15-Mar-2010</scalar><scalar dataType="xsd:string" dictRef="cc:program">Gaussian 09</scalar><scalar dataType="xsd:string" dictRef="cc:version">EM64L-G09RevA.02</scalar><scalar dataType="xsd:string" dictRef="cc:program.date">11-Jun-2009</scalar> Will use up to    4 processors via shared memory. %mem=7000MB %NoSave %Chk=chk.chk %rwf=/tmp/pbs.3645967.cx1/rwf<list cmlx:templateRef="control"><scalar dataType="xsd:string" dictRef="g:control">1/14=-1,18=20,19=15,26=3,38=1,57=2/1,3</scalar><scalar dataType="xsd:string" dictRef="g:control">2/9=110,12=2,17=6,18=5,40=1/2</scalar><scalar dataType="xsd:string" dictRef="g:control">3/5=6,6=3,11=2,16=1,25=1,30=1,71=1,74=-5/1,2,3</scalar><scalar dataType="xsd:string" dictRef="g:control">4//1</scalar><scalar dataType="xsd:string" dictRef="g:control">5/5=2,38=5/2</scalar><scalar dataType="xsd:string" dictRef="g:control">6/7=2,8=2,9=2,10=2,28=1/1</scalar><scalar dataType="xsd:string" dictRef="g:control">7//1,2,3,16</scalar><scalar dataType="xsd:string" dictRef="g:control">1/14=-1,18=20,19=15/3(2)</scalar><scalar dataType="xsd:string" dictRef="g:control">2/9=110/2</scalar><scalar dataType="xsd:string" dictRef="g:control">99//99</scalar><scalar dataType="xsd:string" dictRef="g:control">2/9=110/2</scalar><scalar dataType="xsd:string" dictRef="g:control">3/5=6,6=3,11=2,16=1,25=1,30=1,71=1,74=-5/1,2,3</scalar><scalar dataType="xsd:string" dictRef="g:control">4/5=5,16=3/1</scalar><scalar dataType="xsd:string" dictRef="g:control">5/5=2,38=5/2</scalar><scalar dataType="xsd:string" dictRef="g:control">7//1,2,3,16</scalar><scalar dataType="xsd:string" dictRef="g:control">1/14=-1,18=20,19=15/3(-5)</scalar><scalar dataType="xsd:string" dictRef="g:control">2/9=110/2</scalar><scalar dataType="xsd:string" dictRef="g:control">6/7=2,8=2,9=2,10=2,19=2,28=1/1</scalar><scalar dataType="xsd:string" dictRef="g:control">99/9=1/99</scalar></list></module><module cmlx:lineCount="3" cmlx:templateRef="l101.title"><scalar dataType="xsd:string" dictRef="cc:title" cmlx:templateRef="title">IF3 Optimisation</scalar></module><module cmlx:lineCount="7" cmlx:templateRef="l101"><list cmlx:templateRef="rest"><scalar dataType="xsd:string" dictRef="x:l101"/></list></module><module cmlx:lineCount="20" cmlx:templateRef="l103"><list cmlx:templateRef="berny"><scalar dataType="xsd:string" dictRef="g:optimization">Initialization pass.</scalar></list><module cmlx:lineCount="13" cmlx:templateRef="l103.init"><list cmlx:templateRef="length"><array dataType="xsd:string" size="3" dictRef="g:symbol">R1 R2 R3</array><array dataType="xsd:integer" size="3" dictRef="g:atom1">1 1 1</array><array dataType="xsd:integer" size="3" dictRef="g:atom2">2 3 4</array><array dataType="xsd:double" size="3" dictRef="cc:distance">1.91 1.91 1.91</array><array delimiter="|" dataType="xsd:string" size="3" dictRef="g:deriv">|estimate D2E/DX2|estimate D2E/DX2|estimate D2E/DX2|</array></list><list cmlx:templateRef="angle"><array dataType="xsd:string" size="3" dictRef="g:symbol">A1 A2 A3</array><array dataType="xsd:integer" size="3" dictRef="g:atom1">2 2 3</array><array dataType="xsd:integer" size="3" dictRef="g:atom2">1 1 1</array><array dataType="xsd:integer" size="3" dictRef="g:atom3">3 4 4</array><array dataType="xsd:double" size="3" dictRef="cc:angle">80.0 167.5 87.5</array><array delimiter="|" dataType="xsd:string" size="3" dictRef="g:deriv">|estimate D2E/DX2|estimate D2E/DX2|estimate D2E/DX2|</array></list> ! D1    D(2,1,4,3)              0.0            estimate D2E/DX2                !</module> --------------------------------------------------------------------------------<module cmlx:lineCount="2" cmlx:templateRef="l103.trust"><scalar dataType="xsd:double" dictRef="g:trustrad">0.3</scalar><scalar dataType="xsd:double" dictRef="g:fncerr">1.0E-7</scalar><scalar dataType="xsd:double" dictRef="g:grderr">1.0E-6</scalar><scalar dataType="xsd:integer" dictRef="g:nstep">20</scalar><scalar dataType="xsd:integer" dictRef="g:allowedstep">100</scalar></module> GradGradGradGradGradGradGradGradGradGradGradGradGradGradGradGradGradGrad</module><module cmlx:lineCount="10" cmlx:templateRef="l202.orient"><molecule id="mol.l202.orient" cmlx:templateRef="atom"><atomArray><atom id="a1" elementType="I" x3="-0.14652" y3="1.007326" z3="0.0"><scalar dataType="xsd:integer" dictRef="cc:serial">1</scalar><scalar dataType="xsd:integer" dictRef="g:atomicType">0</scalar><scalar dataType="xsd:integer" dictRef="compchem:atomicNumber">53</scalar></atom><atom id="a2" elementType="F" x3="-0.271173" y3="0.791422" z3="1.89366"><scalar dataType="xsd:integer" dictRef="cc:serial">2</scalar><scalar dataType="xsd:integer" dictRef="g:atomicType">0</scalar><scalar dataType="xsd:integer" dictRef="compchem:atomicNumber">9</scalar></atom><atom id="a3" elementType="F" x3="-1.100611" y3="-0.645208" z3="0.083313"><scalar dataType="xsd:integer" dictRef="cc:serial">3</scalar><scalar dataType="xsd:integer" dictRef="g:atomicType">0</scalar><scalar dataType="xsd:integer" dictRef="compchem:atomicNumber">9</scalar></atom><atom id="a4" elementType="F" x3="-0.229754" y3="0.863161" z3="-1.902732"><scalar dataType="xsd:integer" dictRef="cc:serial">4</scalar><scalar dataType="xsd:integer" dictRef="g:atomicType">0</scalar><scalar dataType="xsd:integer" dictRef="compchem:atomicNumber">9</scalar></atom></atomArray><formula formalCharge="0" concise="F 3 I 1"><atomArray elementType="F I" count="3.0 1.0"/></formula><bondArray><bond atomRefs2="a1 a2" id="a1_a2" order="S"/><bond atomRefs2="a1 a3" id="a1_a3" order="S"/><bond atomRefs2="a1 a4" id="a1_a4" order="S"/></bondArray><property dictRef="cml:molmass"><scalar dataType="xsd:double" units="unit:dalton" xmlns:unit="http://www.xml-cml.org/unit/si/">183.8996796</scalar></property></molecule></module><module cmlx:lineCount="6" cmlx:templateRef="l202.distmat"/><module cmlx:lineCount="6" cmlx:templateRef="l202.stoich"><scalar dataType="xsd:string" dictRef="cc:formula" cmlx:templateRef="stoich">F3I</scalar><scalar dataType="xsd:string" dictRef="cc:frameworkgroup" cmlx:templateRef="framework">CS[SG(F3I)]</scalar><scalar dataType="xsd:integer" dictRef="cc:degfreedom" cmlx:templateRef="degfreedom">5</scalar><scalar dataType="xsd:string" dictRef="cc:pointgroup">CS</scalar><scalar dataType="xsd:integer" dictRef="cc:operatorcount">2</scalar><scalar dataType="xsd:string" dictRef="cc:largestabelian">CS</scalar><scalar dataType="xsd:integer" dictRef="cc:operatorcount">2</scalar><scalar dataType="xsd:string" dictRef="cc:largestconciseabelian">C1</scalar><scalar dataType="xsd:integer" dictRef="cc:operatorcount">1</scalar></module><module cmlx:lineCount="10" cmlx:templateRef="l202.orient"><molecule id="a4" cmlx:templateRef="atom"><atomArray><atom id="a1" elementType="I" x3="0.0" y3="0.261578" z3="0.0"><scalar dataType="xsd:integer" dictRef="cc:serial">1</scalar><scalar dataType="xsd:integer" dictRef="g:atomicType">0</scalar><scalar dataType="xsd:integer" dictRef="compchem:atomicNumber">53</scalar></atom><atom id="a2" elementType="F" x3="-1.884734" y3="-0.048063" z3="0.0"><scalar dataType="xsd:integer" dictRef="cc:serial">2</scalar><scalar dataType="xsd:integer" dictRef="g:atomicType">0</scalar><scalar dataType="xsd:integer" dictRef="compchem:atomicNumber">9</scalar></atom><atom id="a3" elementType="F" x3="-0.022343" y3="-1.648291" z3="0.0"><scalar dataType="xsd:integer" dictRef="cc:serial">3</scalar><scalar dataType="xsd:integer" dictRef="g:atomicType">0</scalar><scalar dataType="xsd:integer" dictRef="compchem:atomicNumber">9</scalar></atom><atom id="a4" elementType="F" x3="1.907077" y3="0.155949" z3="0.0"><scalar dataType="xsd:integer" dictRef="cc:serial">4</scalar><scalar dataType="xsd:integer" dictRef="g:atomicType">0</scalar><scalar dataType="xsd:integer" dictRef="compchem:atomicNumber">9</scalar></atom></atomArray><formula formalCharge="0" concise="F 3 I 1"><atomArray elementType="F I" count="3.0 1.0"/></formula><bondArray><bond atomRefs2="a1 a2" id="a1_a2" order="S"/><bond atomRefs2="a1 a3" id="a1_a3" order="S"/><bond atomRefs2="a1 a4" id="a1_a4" order="S"/></bondArray><property dictRef="cml:molmass"><scalar dataType="xsd:double" units="unit:dalton" xmlns:unit="http://www.xml-cml.org/unit/si/">183.8996796</scalar></property></molecule></module><module cmlx:lineCount="1" cmlx:templateRef="l202.rotconst"><array dataType="xsd:double" size="3" dictRef="cc:rotconst" cmlx:templateRef="rotconst">8.4410024 3.6770564 2.5613048</array></module><scalar dataType="xsd:integer" dictRef="g:buffer" cmlx:templateRef="buffer">131072</scalar><scalar dataType="xsd:string" dictRef="g:raffenetti" cmlx:templateRef="raff">Raffenetti</scalar><scalar dataType="xsd:string" dictRef="g:twoe" cmlx:templateRef="twoe">Two-electron</scalar><module cmlx:lineCount="17" cmlx:templateRef="l301.basis"><scalar dataType="xsd:string" dictRef="cc:basis">LANL2DZ</scalar><scalar dataType="xsd:string" dictRef="cc:diffuse">(5D, 7F)</scalar><list cmlx:lineCount="2" cmlx:templateRef="symmadapt"><array dataType="xsd:integer" dictRef="cc:adapted" size="2">27 8</array><array dataType="xsd:string" dictRef="cc:symm" size="2">A' A"</array></list><scalar dataType="xsd:integer" dictRef="cc:basiscount">35</scalar><scalar dataType="xsd:integer" dictRef="g:primbasis">87</scalar><scalar dataType="xsd:integer" dictRef="cc:cartesianbasis">35</scalar><scalar dataType="xsd:integer" dictRef="cc:alphae">17</scalar><scalar dataType="xsd:integer" dictRef="cc:betae">17</scalar> Warning!  I  atom    1 may be hypervalent but has no d functions. NAtoms=    4 NActive=    4 NUniq=    4 SFac= 7.50D-01 NAtFMM=   80 NAOKFM=F Big=F</module><module cmlx:lineCount="1" cmlx:templateRef="l302.basis"><list cmlx:templateRef="onee"><scalar dataType="xsd:string" dictRef="g:onee">One-electron integrals</scalar></list></module>   1 Symmetry operations used in ECPInt. ECPInt:  NShTT=     190 NPrTT=    1412 LenC2=     189 LenP2D=    1050. LDataN:  DoStor=T MaxTD1= 4 Len=   56 NBasis=    35 RedAO= T  NBF=    27     8 NBsUse=    35 1.00D-06 NBFU=    27     8 Defaulting to unpruned grid for atomic number  53. Harris functional with IExCor=  402 diagonalized for initial guess. ExpMin= 1.05D-01 ExpMax= 1.00D+04 ExpMxC= 3.50D+02 IAcc=1 IRadAn=         1 AccDes= 0.00D+00 HarFok:  IExCor=  402 AccDes= 0.00D+00 IRadAn=         1 IDoV= 1 ScaDFX=  1.000000  1.000000  1.000000  1.000000 Defaulting to unpruned grid for atomic number  53. Defaulting to unpruned grid for atomic number  53. Defaulting to unpruned grid for atomic number  53. Defaulting to unpruned grid for atomic number  53. FoFCou: FMM=F IPFlag=           0 FMFlag=      100000 FMFlg1=           0         NFxFlg=           0 DoJE=T BraDBF=F KetDBF=T FulRan=T         Omega=  0.000000  0.000000  1.000000  0.000000  0.000000 ICntrl=     500 IOpCl=  0         NMat0=    1 NMatS0=    1 NMatT0=    0 NMatD0=    1 NMtDS0=    0 NMtDT0=    0         I1Cent=           4 NGrid=           0. Petite list used in FoFCou. Initial guess orbital symmetries:       Occupied  (A') (A') (A') (A') (A') (A') (A') (A') (A') (A')                 (A") (A") (A') (A") (A') (A') (A")       Virtual   (A') (A') (A') (A') (A") (A') (A") (A") (A') (A")                 (A') (A') (A') (A') (A') (A') (A') (A') The electronic state of the initial guess is 1-A'. Requested convergence on RMS density matrix=1.00D-08 within 128 cycles. Requested convergence on MAX density matrix=1.00D-06. Requested convergence on             energy=1.00D-06. No special actions if energy rises. Keep R1 ints in memory in canonical form, NReq=1122925. Integral accuracy reduced to 1.0D-05 until final iterations. Defaulting to unpruned grid for atomic number  53. Defaulting to unpruned grid for atomic number  53. Defaulting to unpruned grid for atomic number  53. Defaulting to unpruned grid for atomic number  53. Initial convergence to 1.0D-05 achieved.  Increase integral accuracy. SCF Done:  E(RB3LYP) =  -310.800409704     A.U. after   16 cycles             Convg  =    0.5996D-08             -V/T =  2.0302<module cmlx:lineCount="60" cmlx:templateRef="l601.popanal"> Orbital symmetries:<module cmlx:lineCount="2" cmlx:templateRef="l4601.occupied"><list cmlx:templateRef="occ"><scalar dataType="xsd:string" dictRef="g:occorbs">(A') (A') (A') (A') (A') (A') (A') (A') (A') (A")</scalar></list><list cmlx:templateRef="occ"><scalar dataType="xsd:string" dictRef="g:occorbs">(A') (A") (A') (A") (A') (A') (A")</scalar></list></module><module cmlx:lineCount="2" cmlx:templateRef="l4601.virtual"><list cmlx:templateRef="virt"><scalar dataType="xsd:string" dictRef="g:virtorbs">(A') (A') (A') (A") (A') (A') (A") (A") (A') (A")</scalar></list><list cmlx:templateRef="virt"><scalar dataType="xsd:string" dictRef="g:virtorbs">(A') (A') (A') (A') (A') (A') (A') (A')</scalar></list></module><module cmlx:lineCount="1" cmlx:templateRef="l601.state"><scalar dataType="xsd:string" dictRef="g:l601.state">1-A'.</scalar></module><array dataType="xsd:double" size="17" dictRef="g:alphaocc">-24.74222 -24.70074 -24.69143 -1.24029 -1.19215 -1.18011 -0.78559 -0.54859 -0.5387 -0.49891 -0.46191 -0.43689 -0.42758 -0.42159 -0.4068 -0.38564 -0.32248</array><array dataType="xsd:double" size="18" dictRef="g:alphavirt">-0.16407 -0.07077 0.30143 0.3105 0.32672 0.64343 0.75096 0.78162 0.81441 0.85628 0.86164 0.924 0.93213 1.0343 1.36711 1.46621 1.76364 9.59185</array><module cmlx:lineCount="8" cmlx:templateRef="l601.alphabetaeigen"/><module cmlx:lineCount="5" cmlx:templateRef="l601.condensed"><array dataType="xsd:double" size="4" dictRef="x:floatArr" cmlx:idx="1">5.527037 -0.036004 0.051056 -0.042883</array><array dataType="xsd:double" size="4" dictRef="x:floatArr" cmlx:idx="2">-0.036004 9.595947 -0.025833 0.001261</array><array dataType="xsd:double" size="4" dictRef="x:floatArr" cmlx:idx="3">0.051056 -0.025833 9.429248 -0.017632</array></module><list cmlx:templateRef="popanal"><scalar dataType="xsd:string" dictRef="x:popanal">4  F   -0.042883   0.001261  -0.017632   9.587837</scalar></list><module cmlx:lineCount="16" cmlx:templateRef="mulliken"><module cmlx:lineCount="7" cmlx:templateRef="l601.mullik"><scalar dataType="xsd:string" dictRef="g:title">Mulliken atomic charges:</scalar><scalar dataType="xsd:integer" dictRef="cc:serial">1</scalar> Sum of Mulliken atomic charges =   0.00000</module> Mulliken charges with hydrogens summed into heavy atoms:              1     1  I    1.500794     2  F   -0.535372     3  F   -0.436839     4  F   -0.528583 Sum of Mulliken charges with hydrogens summed into heavy atoms =   0.00000<scalar dataType="xsd:double" dictRef="g:electextent2">405.2917</scalar> Charge=              0.0000 electrons</module><module cmlx:lineCount="18" cmlx:templateRef="multipole"><array dataType="xsd:double" size="3" dictRef="cc:dipole">0.0889 3.1435 0.0</array><scalar dataType="xsd:double" dictRef="x:dipole">3.1448</scalar><array dataType="xsd:double" size="3" dictRef="cc:quadrupole">-46.2407 -34.3406 -32.8505</array><array dataType="xsd:double" size="3" dictRef="cc:quadrupole">-0.8911 0.0 0.0</array><array dataType="xsd:double" size="6" dictRef="cc:quadrupole">-8.4301 3.47 4.9601 -0.8911 0.0 0.0</array><array dataType="xsd:double" size="10" dictRef="cc:octapole">-0.2592 19.4294 0.0 -0.0155 3.4429 0.0 0.026 2.6154 0.0 0.0</array><array dataType="xsd:double" size="15" dictRef="cc:hexadecapole">-317.4091 -129.6574 -38.5616 -9.7116 0.0 -6.5277 0.0 0.0 0.0 -62.567 -48.8325 -26.7135 0.0 0.0 -2.1855</array></module></module> Symmetry A'   KE= 2.815450287263D+02 Symmetry A"   KE= 2.013103206169D+01   2 Symmetry operations used in ECPInt. ECPInt:  NShTT=     190 NPrTT=    1412 LenC2=     189 LenP2D=    1050. LDataN:  DoStor=T MaxTD1= 5 Len=  102 Calling FoFJK, ICntrl=      2127 FMM=F ISym2X=1 I1Cent= 0 IOpClX= 0 NMat=1 NMatS=1 NMatT=0. Defaulting to unpruned grid for atomic number  53. Defaulting to unpruned grid for atomic number  53. Defaulting to unpruned grid for atomic number  53. Defaulting to unpruned grid for atomic number  53. ***** Axes restored to original set ***** ------------------------------------------------------------------- Center     Atomic                   Forces (Hartrees/Bohr) Number     Number              X              Y              Z -------------------------------------------------------------------      1       53           0.022778549    0.039453605    0.006836152      2        9          -0.002087702   -0.003616006    0.054562258      3        9          -0.015276581   -0.026459813   -0.007820376      4        9          -0.005414267   -0.009377785   -0.053578034 ------------------------------------------------------------------- Cartesian Forces:  Max     0.054562258 RMS     0.027536601<module cmlx:lineCount="54" cmlx:templateRef="l103"><list cmlx:templateRef="berny"><scalar dataType="xsd:string" dictRef="g:optimization">Internal  Forces:  Max     0.054635236 RMS     0.032539586</scalar></list> Search for a local minimum. Step number   1 out of a maximum of   20 All quantities printed in internal units (Hartrees-Bohrs-Radians) Mixed Optimization -- RFO/linear search Second derivative matrix not updated -- first step. The second derivative matrix:                          R1        R2        R3        A1        A2           R1           0.23225           R2           0.00000   0.23225           R3           0.00000   0.00000   0.23225           A1           0.00000   0.00000   0.00000   0.25000           A2           0.00000   0.00000   0.00000   0.00000   0.25000           A3           0.00000   0.00000   0.00000   0.00000   0.00000           D1           0.00000   0.00000   0.00000   0.00000   0.00000                          A3        D1           A3           0.25000           D1           0.00000   0.00230     Eigenvalues ---    0.00230   0.23225   0.23225   0.23225   0.25000     Eigenvalues ---    0.250001000.00000<module cmlx:lineCount="3" cmlx:templateRef="rfo"> RFO step:  Lambda=-2.83074992D-02 EMin= 2.30000000D-03 Linear search not attempted -- first point. Maximum step size (   0.300) exceeded in Quadratic search.</module>    -- Step size scaled by   0.912 Iteration  1 RMS(Cart)=  0.11733333 RMS(Int)=  0.00146313 Iteration  2 RMS(Cart)=  0.00246753 RMS(Int)=  0.00000171 Iteration  3 RMS(Cart)=  0.00000165 RMS(Int)=  0.00000000 New curvilinear step failed, DQL= 1.49D-08 SP=-1.69D-03. Iteration  1 RMS(Cart)=  0.10562993 RMS(Int)=  0.00118917 Iteration  2 RMS(Cart)=  0.00199825 RMS(Int)=  0.00000112 Iteration  3 RMS(Cart)=  0.00000109 RMS(Int)=  0.00000000 New curvilinear step failed, DQL= 2.58D-08 SP=-4.54D-03. Iteration  1 RMS(Cart)=  0.09391982 RMS(Int)=  0.00094280 Iteration  2 RMS(Cart)=  0.00157852 RMS(Int)=  0.00000070 Iteration  3 RMS(Cart)=  0.00000068 RMS(Int)=  0.00000000 ClnCor:  largest displacement from symmetrization is 8.85D-11 for atom     1.<module cmlx:lineCount="9" cmlx:templateRef="l103.deltas"><list cmlx:lineCount="7" cmlx:templateRef="delta"><array dataType="xsd:string" dictRef="cc:variable" size="7">R1 R2 R3 A1 A2 A3 D1</array><array dataType="xsd:double" dictRef="g:lastval" size="7">3.60938 3.60938 3.60938 1.39626 2.92343 1.52716 0.0</array><array dataType="xsd:double" dictRef="cc:deriv" size="7">0.05464 0.03018 0.05432 0.0146 -0.00377 -0.01837 0.0</array><array dataType="xsd:double" dictRef="cc:delta.linear" size="7">0.0 0.0 0.0 0.0 0.0 0.0 0.0</array><array dataType="xsd:double" dictRef="cc:delta.quad" size="7">0.19129 0.10568 0.19019 0.04785 -0.01237 -0.06021 0.0</array><array dataType="xsd:double" dictRef="cc:delta.total" size="7">0.15303 0.08454 0.15216 0.03828 -0.00989 -0.04817 0.0</array><array dataType="xsd:double" dictRef="cc:newval" size="7">3.76241 3.69392 3.76153 1.43454 2.91353 1.47899 0.0</array></list></module><module cmlx:lineCount="5" cmlx:templateRef="l103.itemconverge"><list cmlx:lineCount="4" cmlx:templateRef="row"><array dataType="xsd:string" dictRef="g:item"/><array dataType="xsd:double" dictRef="g:value" size="4">4.5E-4 3.0E-4 0.0018 0.0012</array><array dataType="xsd:double" dictRef="g:threshold" size="4">0.0 0.0 0.0 0.0</array><array dataType="xsd:string" dictRef="g:converged" size="4">NO NO NO NO</array></list></module><module cmlx:lineCount="1" cmlx:templateRef="preddelta"><list cmlx:templateRef="predicted"><scalar dataType="xsd:double" dictRef="g:predchange">-0.01393572</scalar></list></module> GradGradGradGradGradGradGradGradGradGradGradGradGradGradGradGradGradGrad</module><module cmlx:lineCount="10" cmlx:templateRef="l202.orient"><molecule id="a4" cmlx:templateRef="atom"><atomArray><atom id="a1" elementType="I" x3="-0.136063" y3="1.025438" z3="0.013954"><scalar dataType="xsd:integer" dictRef="cc:serial">1</scalar><scalar dataType="xsd:integer" dictRef="g:atomicType">0</scalar><scalar dataType="xsd:integer" dictRef="compchem:atomicNumber">53</scalar></atom><atom id="a2" elementType="F" x3="-0.259793" y3="0.811132" z3="1.989495"><scalar dataType="xsd:integer" dictRef="cc:serial">2</scalar><scalar dataType="xsd:integer" dictRef="g:atomicType">0</scalar><scalar dataType="xsd:integer" dictRef="compchem:atomicNumber">9</scalar></atom><atom id="a3" elementType="F" x3="-1.113365" y3="-0.667299" z3="0.036714"><scalar dataType="xsd:integer" dictRef="cc:serial">3</scalar><scalar dataType="xsd:integer" dictRef="g:atomicType">0</scalar><scalar dataType="xsd:integer" dictRef="compchem:atomicNumber">9</scalar></atom><atom id="a4" elementType="F" x3="-0.238837" y3="0.847428" z3="-1.965922"><scalar dataType="xsd:integer" dictRef="cc:serial">4</scalar><scalar dataType="xsd:integer" dictRef="g:atomicType">0</scalar><scalar dataType="xsd:integer" dictRef="compchem:atomicNumber">9</scalar></atom></atomArray><formula formalCharge="0" concise="F 3 I 1"><atomArray elementType="F I" count="3.0 1.0"/></formula><bondArray><bond atomRefs2="a1 a2" id="a1_a2" order="S"/><bond atomRefs2="a1 a3" id="a1_a3" order="S"/><bond atomRefs2="a1 a4" id="a1_a4" order="S"/></bondArray><property dictRef="cml:molmass"><scalar dataType="xsd:double" units="unit:dalton" xmlns:unit="http://www.xml-cml.org/unit/si/">183.8996796</scalar></property></molecule></module><module cmlx:lineCount="6" cmlx:templateRef="l202.distmat"/><module cmlx:lineCount="6" cmlx:templateRef="l202.stoich"><scalar dataType="xsd:string" dictRef="cc:formula" cmlx:templateRef="stoich">F3I</scalar><scalar dataType="xsd:string" dictRef="cc:frameworkgroup" cmlx:templateRef="framework">CS[SG(F3I)]</scalar><scalar dataType="xsd:integer" dictRef="cc:degfreedom" cmlx:templateRef="degfreedom">5</scalar><scalar dataType="xsd:string" dictRef="cc:pointgroup">CS</scalar><scalar dataType="xsd:integer" dictRef="cc:operatorcount">2</scalar><scalar dataType="xsd:string" dictRef="cc:largestabelian">CS</scalar><scalar dataType="xsd:integer" dictRef="cc:operatorcount">2</scalar><scalar dataType="xsd:string" dictRef="cc:largestconciseabelian">C1</scalar><scalar dataType="xsd:integer" dictRef="cc:operatorcount">1</scalar></module><module cmlx:lineCount="10" cmlx:templateRef="l202.orient"><molecule id="a4" cmlx:templateRef="atom"><atomArray><atom id="a1" elementType="I" x3="0.0" y3="0.270864" z3="0.0"><scalar dataType="xsd:integer" dictRef="cc:serial">1</scalar><scalar dataType="xsd:integer" dictRef="g:atomicType">0</scalar><scalar dataType="xsd:integer" dictRef="compchem:atomicNumber">53</scalar></atom><atom id="a2" elementType="F" x3="-1.97359" y3="0.008294" z3="0.0"><scalar dataType="xsd:integer" dictRef="cc:serial">2</scalar><scalar dataType="xsd:integer" dictRef="g:atomicType">0</scalar><scalar dataType="xsd:integer" dictRef="compchem:atomicNumber">9</scalar></atom><atom id="a3" elementType="F" x3="-0.007801" y3="-1.683857" z3="0.0"><scalar dataType="xsd:integer" dictRef="cc:serial">3</scalar><scalar dataType="xsd:integer" dictRef="g:atomicType">0</scalar><scalar dataType="xsd:integer" dictRef="compchem:atomicNumber">9</scalar></atom><atom id="a4" elementType="F" x3="1.981391" y3="0.080474" z3="0.0"><scalar dataType="xsd:integer" dictRef="cc:serial">4</scalar><scalar dataType="xsd:integer" dictRef="g:atomicType">0</scalar><scalar dataType="xsd:integer" dictRef="compchem:atomicNumber">9</scalar></atom></atomArray><formula formalCharge="0" concise="F 3 I 1"><atomArray elementType="F I" count="3.0 1.0"/></formula><bondArray><bond atomRefs2="a1 a2" id="a1_a2" order="S"/><bond atomRefs2="a1 a3" id="a1_a3" order="S"/><bond atomRefs2="a1 a4" id="a1_a4" order="S"/></bondArray><property dictRef="cml:molmass"><scalar dataType="xsd:double" units="unit:dalton" xmlns:unit="http://www.xml-cml.org/unit/si/">183.8996796</scalar></property></molecule></module><module cmlx:lineCount="1" cmlx:templateRef="l202.rotconst"><array dataType="xsd:double" size="3" dictRef="cc:rotconst" cmlx:templateRef="rotconst">8.008006 3.3988743 2.3861218</array></module><scalar dataType="xsd:integer" dictRef="g:buffer" cmlx:templateRef="buffer">131072</scalar><scalar dataType="xsd:string" dictRef="g:raffenetti" cmlx:templateRef="raff">Raffenetti</scalar><scalar dataType="xsd:string" dictRef="g:twoe" cmlx:templateRef="twoe">Two-electron</scalar><module cmlx:lineCount="17" cmlx:templateRef="l301.basis"><scalar dataType="xsd:string" dictRef="cc:basis">LANL2DZ</scalar><scalar dataType="xsd:string" dictRef="cc:diffuse">(5D, 7F)</scalar><list cmlx:lineCount="2" cmlx:templateRef="symmadapt"><array dataType="xsd:integer" dictRef="cc:adapted" size="2">27 8</array><array dataType="xsd:string" dictRef="cc:symm" size="2">A' A"</array></list><scalar dataType="xsd:integer" dictRef="cc:basiscount">35</scalar><scalar dataType="xsd:integer" dictRef="g:primbasis">87</scalar><scalar dataType="xsd:integer" dictRef="cc:cartesianbasis">35</scalar><scalar dataType="xsd:integer" dictRef="cc:alphae">17</scalar><scalar dataType="xsd:integer" dictRef="cc:betae">17</scalar> Warning!  I  atom    1 may be hypervalent but has no d functions. NAtoms=    4 NActive=    4 NUniq=    4 SFac= 7.50D-01 NAtFMM=   80 NAOKFM=F Big=F</module><module cmlx:lineCount="1" cmlx:templateRef="l302.basis"><list cmlx:templateRef="onee"><scalar dataType="xsd:string" dictRef="g:onee">One-electron integrals</scalar></list></module>   1 Symmetry operations used in ECPInt. ECPInt:  NShTT=     190 NPrTT=    1412 LenC2=     189 LenP2D=    1036. LDataN:  DoStor=T MaxTD1= 4 Len=   56 NBasis=    35 RedAO= T  NBF=    27     8 NBsUse=    35 1.00D-06 NBFU=    27     8 Defaulting to unpruned grid for atomic number  53. Initial guess read from the read-write file. B after Tr=     0.000000    0.000000    0.000000         Rot=    1.000000    0.000000    0.000000    0.000000 Ang=   0.00 deg. Initial guess orbital symmetries:       Occupied  (A') (A') (A') (A') (A') (A') (A') (A') (A') (A")                 (A') (A") (A') (A") (A') (A') (A")       Virtual   (A') (A') (A') (A") (A') (A') (A") (A") (A') (A")                 (A') (A') (A') (A') (A') (A') (A') (A') Harris functional with IExCor=  402 diagonalized for initial guess. ExpMin= 1.05D-01 ExpMax= 1.00D+04 ExpMxC= 3.50D+02 IAcc=1 IRadAn=         1 AccDes= 0.00D+00 HarFok:  IExCor=  402 AccDes= 0.00D+00 IRadAn=         1 IDoV= 1 ScaDFX=  1.000000  1.000000  1.000000  1.000000 Defaulting to unpruned grid for atomic number  53. Defaulting to unpruned grid for atomic number  53. Defaulting to unpruned grid for atomic number  53. Defaulting to unpruned grid for atomic number  53. FoFCou: FMM=F IPFlag=           0 FMFlag=      100000 FMFlg1=           0         NFxFlg=           0 DoJE=T BraDBF=F KetDBF=T FulRan=T         Omega=  0.000000  0.000000  1.000000  0.000000  0.000000 ICntrl=     500 IOpCl=  0         NMat0=    1 NMatS0=    1 NMatT0=    0 NMatD0=    1 NMtDS0=    0 NMtDT0=    0         I1Cent=           4 NGrid=           0. Petite list used in FoFCou. Requested convergence on RMS density matrix=1.00D-08 within 128 cycles. Requested convergence on MAX density matrix=1.00D-06. Requested convergence on             energy=1.00D-06. No special actions if energy rises. Keep R1 ints in memory in canonical form, NReq=1123217. Integral accuracy reduced to 1.0D-05 until final iterations. Defaulting to unpruned grid for atomic number  53. Defaulting to unpruned grid for atomic number  53. Defaulting to unpruned grid for atomic number  53. Defaulting to unpruned grid for atomic number  53. Initial convergence to 1.0D-05 achieved.  Increase integral accuracy. SCF Done:  E(RB3LYP) =  -310.813173999     A.U. after   16 cycles             Convg  =    0.1683D-08             -V/T =  2.0313   2 Symmetry operations used in ECPInt. ECPInt:  NShTT=     190 NPrTT=    1412 LenC2=     189 LenP2D=    1036. LDataN:  DoStor=T MaxTD1= 5 Len=  102 Calling FoFJK, ICntrl=      2127 FMM=F ISym2X=1 I1Cent= 0 IOpClX= 0 NMat=1 NMatS=1 NMatT=0. Defaulting to unpruned grid for atomic number  53. Defaulting to unpruned grid for atomic number  53. Defaulting to unpruned grid for atomic number  53. Defaulting to unpruned grid for atomic number  53. ***** Axes restored to original set ***** ------------------------------------------------------------------- Center     Atomic                   Forces (Hartrees/Bohr) Number     Number              X              Y              Z -------------------------------------------------------------------      1       53           0.006887946    0.011930272    0.002485064      2        9          -0.000834166   -0.001444817    0.014841935      3        9          -0.004127133   -0.007148404   -0.002523661      4        9          -0.001926647   -0.003337051   -0.014803338 ------------------------------------------------------------------- Cartesian Forces:  Max     0.014841935 RMS     0.007786235<module cmlx:lineCount="49" cmlx:templateRef="l103"><list cmlx:templateRef="berny"><scalar dataType="xsd:string" dictRef="g:optimization">Using GEDIIS/GDIIS optimizer.</scalar></list> Internal  Forces:  Max     0.015131267 RMS     0.009071011 Search for a local minimum. Step number   2 out of a maximum of   20 All quantities printed in internal units (Hartrees-Bohrs-Radians) Mixed Optimization -- RFO/linear search Update second derivatives using D2CorX and points    1    2 DE= -1.28D-02 DEPred=-1.39D-02 R= 9.16D-01 SS=  1.41D+00  RLast= 2.40D-01 DXNew= 5.0454D-01 7.2000D-01<module cmlx:lineCount="1" cmlx:templateRef="l103.trust"> Trust test= 9.16D-01 RLast= 2.40D-01 DXMaxT set to 5.05D-01</module> The second derivative matrix:                          R1        R2        R3        A1        A2           R1           0.24398           R2           0.00653   0.23589           R3           0.01088   0.00607   0.24231           A1           0.00430   0.00239   0.00406   0.25148           A2           0.00355   0.00196   0.00356   0.00092   0.24963           A3          -0.00075  -0.00043  -0.00051  -0.00056  -0.00130           D1           0.00000   0.00000   0.00000   0.00000   0.00000                          A3        D1           A3           0.24926           D1           0.00000   0.00230 Use linear search instead of GDIIS.     Eigenvalues ---    0.00230   0.23222   0.23225   0.24558   0.24877     Eigenvalues ---    0.263731000.00000<module cmlx:lineCount="5" cmlx:templateRef="rfo"> RFO step:  Lambda=-3.59195250D-05 EMin= 2.30000000D-03 Quartic linear search produced a step of  0.51088. Iteration  1 RMS(Cart)=  0.04797918 RMS(Int)=  0.00031262 Iteration  2 RMS(Cart)=  0.00054172 RMS(Int)=  0.00000007 Iteration  3 RMS(Cart)=  0.00000006 RMS(Int)=  0.00000001</module> ClnCor:  largest displacement from symmetrization is 4.63D-09 for atom     1.<module cmlx:lineCount="9" cmlx:templateRef="l103.deltas"><list cmlx:lineCount="7" cmlx:templateRef="delta"><array dataType="xsd:string" dictRef="cc:variable" size="7">R1 R2 R3 A1 A2 A3 D1</array><array dataType="xsd:double" dictRef="g:lastval" size="7">3.76241 3.69392 3.76153 1.43454 2.91353 1.47899 0.0</array><array dataType="xsd:double" dictRef="cc:deriv" size="7">0.01493 0.00822 0.01513 0.00347 -0.00265 -0.00613 0.0</array><array dataType="xsd:double" dictRef="cc:delta.linear" size="7">0.07818 0.04319 0.07773 0.01955 -0.00505 -0.02461 0.0</array><array dataType="xsd:double" dictRef="cc:delta.quad" size="7">-0.00124 -8.2E-4 6.7E-4 -0.00375 -0.00963 -0.00588 0.0</array><array dataType="xsd:double" dictRef="cc:delta.total" size="7">0.07694 0.04237 0.0784 0.0158 -0.01468 -0.03049 0.0</array><array dataType="xsd:double" dictRef="cc:newval" size="7">3.83935 3.73629 3.83993 1.45034 2.89885 1.4485 0.0</array></list></module><module cmlx:lineCount="5" cmlx:templateRef="l103.itemconverge"><list cmlx:lineCount="4" cmlx:templateRef="row"><array dataType="xsd:string" dictRef="g:item"/><array dataType="xsd:double" dictRef="g:value" size="4">4.5E-4 3.0E-4 0.0018 0.0012</array><array dataType="xsd:double" dictRef="g:threshold" size="4">0.0 0.0 0.0 0.0</array><array dataType="xsd:string" dictRef="g:converged" size="4">NO NO NO NO</array></list></module><module cmlx:lineCount="1" cmlx:templateRef="preddelta"><list cmlx:templateRef="predicted"><scalar dataType="xsd:double" dictRef="g:predchange">-9.983161E-4</scalar></list></module> GradGradGradGradGradGradGradGradGradGradGradGradGradGradGradGradGradGrad</module><module cmlx:lineCount="10" cmlx:templateRef="l202.orient"><molecule id="a4" cmlx:templateRef="atom"><atomArray><atom id="a1" elementType="I" x3="-0.128373" y3="1.038757" z3="0.022022"><scalar dataType="xsd:integer" dictRef="cc:serial">1</scalar><scalar dataType="xsd:integer" dictRef="g:atomicType">0</scalar><scalar dataType="xsd:integer" dictRef="compchem:atomicNumber">53</scalar></atom><atom id="a2" elementType="F" x3="-0.256153" y3="0.817437" z3="2.037582"><scalar dataType="xsd:integer" dictRef="cc:serial">2</scalar><scalar dataType="xsd:integer" dictRef="g:atomicType">0</scalar><scalar dataType="xsd:integer" dictRef="compchem:atomicNumber">9</scalar></atom><atom id="a3" elementType="F" x3="-1.116937" y3="-0.673484" z3="0.010816"><scalar dataType="xsd:integer" dictRef="cc:serial">3</scalar><scalar dataType="xsd:integer" dictRef="g:atomicType">0</scalar><scalar dataType="xsd:integer" dictRef="compchem:atomicNumber">9</scalar></atom><atom id="a4" elementType="F" x3="-0.246595" y3="0.833991" z3="-1.996179"><scalar dataType="xsd:integer" dictRef="cc:serial">4</scalar><scalar dataType="xsd:integer" dictRef="g:atomicType">0</scalar><scalar dataType="xsd:integer" dictRef="compchem:atomicNumber">9</scalar></atom></atomArray><formula formalCharge="0" concise="F 3 I 1"><atomArray elementType="F I" count="3.0 1.0"/></formula><bondArray><bond atomRefs2="a1 a2" id="a1_a2" order="S"/><bond atomRefs2="a1 a3" id="a1_a3" order="S"/><bond atomRefs2="a1 a4" id="a1_a4" order="S"/></bondArray><property dictRef="cml:molmass"><scalar dataType="xsd:double" units="unit:dalton" xmlns:unit="http://www.xml-cml.org/unit/si/">183.8996796</scalar></property></molecule></module><module cmlx:lineCount="6" cmlx:templateRef="l202.distmat"/><module cmlx:lineCount="6" cmlx:templateRef="l202.stoich"><scalar dataType="xsd:string" dictRef="cc:formula" cmlx:templateRef="stoich">F3I</scalar><scalar dataType="xsd:string" dictRef="cc:frameworkgroup" cmlx:templateRef="framework">CS[SG(F3I)]</scalar><scalar dataType="xsd:integer" dictRef="cc:degfreedom" cmlx:templateRef="degfreedom">5</scalar><scalar dataType="xsd:string" dictRef="cc:pointgroup">CS</scalar><scalar dataType="xsd:integer" dictRef="cc:operatorcount">2</scalar><scalar dataType="xsd:string" dictRef="cc:largestabelian">CS</scalar><scalar dataType="xsd:integer" dictRef="cc:operatorcount">2</scalar><scalar dataType="xsd:string" dictRef="cc:largestconciseabelian">C1</scalar><scalar dataType="xsd:integer" dictRef="cc:operatorcount">1</scalar></module><module cmlx:lineCount="10" cmlx:templateRef="l202.orient"><molecule id="a4" cmlx:templateRef="atom"><atomArray><atom id="a1" elementType="I" x3="0.0" y3="0.277781" z3="0.0"><scalar dataType="xsd:integer" dictRef="cc:serial">1</scalar><scalar dataType="xsd:integer" dictRef="g:atomicType">0</scalar><scalar dataType="xsd:integer" dictRef="compchem:atomicNumber">53</scalar></atom><atom id="a2" elementType="F" x3="2.016961" y3="0.033531" z3="0.0"><scalar dataType="xsd:integer" dictRef="cc:serial">2</scalar><scalar dataType="xsd:integer" dictRef="g:atomicType">0</scalar><scalar dataType="xsd:integer" dictRef="compchem:atomicNumber">9</scalar></atom><atom id="a3" elementType="F" x3="-1.18E-4" y3="-1.699377" z3="0.0"><scalar dataType="xsd:integer" dictRef="cc:serial">3</scalar><scalar dataType="xsd:integer" dictRef="g:atomicType">0</scalar><scalar dataType="xsd:integer" dictRef="compchem:atomicNumber">9</scalar></atom><atom id="a4" elementType="F" x3="-2.016843" y3="0.030022" z3="0.0"><scalar dataType="xsd:integer" dictRef="cc:serial">4</scalar><scalar dataType="xsd:integer" dictRef="g:atomicType">0</scalar><scalar dataType="xsd:integer" dictRef="compchem:atomicNumber">9</scalar></atom></atomArray><formula formalCharge="0" concise="F 3 I 1"><atomArray elementType="F I" count="3.0 1.0"/></formula><bondArray><bond atomRefs2="a1 a2" id="a1_a2" order="S"/><bond atomRefs2="a1 a3" id="a1_a3" order="S"/><bond atomRefs2="a1 a4" id="a1_a4" order="S"/></bondArray><property dictRef="cml:molmass"><scalar dataType="xsd:double" units="unit:dalton" xmlns:unit="http://www.xml-cml.org/unit/si/">183.8996796</scalar></property></molecule></module><module cmlx:lineCount="1" cmlx:templateRef="l202.rotconst"><array dataType="xsd:double" size="3" dictRef="cc:rotconst" cmlx:templateRef="rotconst">7.8231223 3.2696397 2.3058992</array></module><scalar dataType="xsd:integer" dictRef="g:buffer" cmlx:templateRef="buffer">131072</scalar><scalar dataType="xsd:string" dictRef="g:raffenetti" cmlx:templateRef="raff">Raffenetti</scalar><scalar dataType="xsd:string" dictRef="g:twoe" cmlx:templateRef="twoe">Two-electron</scalar><module cmlx:lineCount="17" cmlx:templateRef="l301.basis"><scalar dataType="xsd:string" dictRef="cc:basis">LANL2DZ</scalar><scalar dataType="xsd:string" dictRef="cc:diffuse">(5D, 7F)</scalar><list cmlx:lineCount="2" cmlx:templateRef="symmadapt"><array dataType="xsd:integer" dictRef="cc:adapted" size="2">27 8</array><array dataType="xsd:string" dictRef="cc:symm" size="2">A' A"</array></list><scalar dataType="xsd:integer" dictRef="cc:basiscount">35</scalar><scalar dataType="xsd:integer" dictRef="g:primbasis">87</scalar><scalar dataType="xsd:integer" dictRef="cc:cartesianbasis">35</scalar><scalar dataType="xsd:integer" dictRef="cc:alphae">17</scalar><scalar dataType="xsd:integer" dictRef="cc:betae">17</scalar> Warning!  I  atom    1 may be hypervalent but has no d functions. NAtoms=    4 NActive=    4 NUniq=    4 SFac= 7.50D-01 NAtFMM=   80 NAOKFM=F Big=F</module><module cmlx:lineCount="1" cmlx:templateRef="l302.basis"><list cmlx:templateRef="onee"><scalar dataType="xsd:string" dictRef="g:onee">One-electron integrals</scalar></list></module>   1 Symmetry operations used in ECPInt. ECPInt:  NShTT=     190 NPrTT=    1412 LenC2=     188 LenP2D=    1031. LDataN:  DoStor=T MaxTD1= 4 Len=   56 NBasis=    35 RedAO= T  NBF=    27     8 NBsUse=    35 1.00D-06 NBFU=    27     8 Defaulting to unpruned grid for atomic number  53. Initial guess read from the read-write file. B after Tr=     0.000000    0.000000    0.000000         Rot=    1.000000    0.000000    0.000000    0.000000 Ang=   0.00 deg. Initial guess orbital symmetries:       Occupied  (A') (A') (A') (A') (A') (A') (A') (A') (A') (A")                 (A') (A") (A') (A") (A') (A') (A")       Virtual   (A') (A') (A') (A") (A') (A') (A") (A") (A') (A")                 (A') (A') (A') (A') (A') (A') (A') (A') Harris functional with IExCor=  402 diagonalized for initial guess. ExpMin= 1.05D-01 ExpMax= 1.00D+04 ExpMxC= 3.50D+02 IAcc=1 IRadAn=         1 AccDes= 0.00D+00 HarFok:  IExCor=  402 AccDes= 0.00D+00 IRadAn=         1 IDoV= 1 ScaDFX=  1.000000  1.000000  1.000000  1.000000 Defaulting to unpruned grid for atomic number  53. Defaulting to unpruned grid for atomic number  53. Defaulting to unpruned grid for atomic number  53. Defaulting to unpruned grid for atomic number  53. FoFCou: FMM=F IPFlag=           0 FMFlag=      100000 FMFlg1=           0         NFxFlg=           0 DoJE=T BraDBF=F KetDBF=T FulRan=T         Omega=  0.000000  0.000000  1.000000  0.000000  0.000000 ICntrl=     500 IOpCl=  0         NMat0=    1 NMatS0=    1 NMatT0=    0 NMatD0=    1 NMtDS0=    0 NMtDT0=    0         I1Cent=           4 NGrid=           0. Petite list used in FoFCou. Requested convergence on RMS density matrix=1.00D-08 within 128 cycles. Requested convergence on MAX density matrix=1.00D-06. Requested convergence on             energy=1.00D-06. No special actions if energy rises. Keep R1 ints in memory in canonical form, NReq=1123217. Integral accuracy reduced to 1.0D-05 until final iterations. Defaulting to unpruned grid for atomic number  53. Defaulting to unpruned grid for atomic number  53. Defaulting to unpruned grid for atomic number  53. Defaulting to unpruned grid for atomic number  53. Initial convergence to 1.0D-05 achieved.  Increase integral accuracy. SCF Done:  E(RB3LYP) =  -310.814584649     A.U. after   18 cycles             Convg  =    0.2054D-08             -V/T =  2.0317   2 Symmetry operations used in ECPInt. ECPInt:  NShTT=     190 NPrTT=    1412 LenC2=     188 LenP2D=    1031. LDataN:  DoStor=T MaxTD1= 5 Len=  102 Calling FoFJK, ICntrl=      2127 FMM=F ISym2X=1 I1Cent= 0 IOpClX= 0 NMat=1 NMatS=1 NMatT=0. Defaulting to unpruned grid for atomic number  53. Defaulting to unpruned grid for atomic number  53. Defaulting to unpruned grid for atomic number  53. Defaulting to unpruned grid for atomic number  53. ***** Axes restored to original set ***** ------------------------------------------------------------------- Center     Atomic                   Forces (Hartrees/Bohr) Number     Number              X              Y              Z -------------------------------------------------------------------      1       53          -0.000025271   -0.000043770   -0.000183975      2        9          -0.000202154   -0.000350141   -0.000199144      3        9           0.000377967    0.000654658    0.000105950      4        9          -0.000150542   -0.000260747    0.000277169 ------------------------------------------------------------------- Cartesian Forces:  Max     0.000654658 RMS     0.000287179<module cmlx:lineCount="49" cmlx:templateRef="l103"><list cmlx:templateRef="berny"><scalar dataType="xsd:string" dictRef="g:optimization">Using GEDIIS/GDIIS optimizer.</scalar></list> Internal  Forces:  Max     0.000969420 RMS     0.000551873 Search for a local minimum. Step number   3 out of a maximum of   20 All quantities printed in internal units (Hartrees-Bohrs-Radians) Mixed Optimization -- En-DIIS/RFO-DIIS Update second derivatives using D2CorX and points    1    2    3 DE= -1.41D-03 DEPred=-9.98D-04 R= 1.41D+00 SS=  1.41D+00  RLast= 1.24D-01 DXNew= 8.4853D-01 3.7055D-01<module cmlx:lineCount="1" cmlx:templateRef="l103.trust"> Trust test= 1.41D+00 RLast= 1.24D-01 DXMaxT set to 5.05D-01</module> The second derivative matrix:                          R1        R2        R3        A1        A2           R1           0.21819           R2          -0.00431   0.23193           R3          -0.01429  -0.00439   0.21776           A1           0.00106   0.00157   0.00101   0.25157           A2           0.01024   0.00537   0.01020   0.00233   0.24855           A3           0.00917   0.00380   0.00919   0.00075  -0.00378           D1           0.00000   0.00000   0.00000   0.00000   0.00000                          A3        D1           A3           0.24547           D1           0.00000   0.00230 Use linear search instead of GDIIS.     Eigenvalues ---    0.00230   0.19397   0.23227   0.23290   0.24871     Eigenvalues ---    0.255601000.00000<module cmlx:lineCount="5" cmlx:templateRef="rfo"> RFO step:  Lambda=-7.61142964D-06 EMin= 2.30000000D-03 Quartic linear search produced a step of -0.01805. Iteration  1 RMS(Cart)=  0.00358391 RMS(Int)=  0.00000371 Iteration  2 RMS(Cart)=  0.00000360 RMS(Int)=  0.00000000 Iteration  3 RMS(Cart)=  0.00000000 RMS(Int)=  0.00000000</module> ClnCor:  largest displacement from symmetrization is 9.53D-09 for atom     1.<module cmlx:lineCount="9" cmlx:templateRef="l103.deltas"><list cmlx:lineCount="7" cmlx:templateRef="delta"><array dataType="xsd:string" dictRef="cc:variable" size="7">R1 R2 R3 A1 A2 A3 D1</array><array dataType="xsd:double" dictRef="g:lastval" size="7">3.83935 3.73629 3.83993 1.45034 2.89885 1.4485 0.0</array><array dataType="xsd:double" dictRef="cc:deriv" size="7">-1.5E-4 -7.6E-4 -2.4E-4 -6.7E-4 -9.7E-4 -3.0E-4 0.0</array><array dataType="xsd:double" dictRef="cc:delta.linear" size="7">-0.00139 -7.6E-4 -0.00142 -2.9E-4 2.7E-4 5.5E-4 0.0</array><array dataType="xsd:double" dictRef="cc:delta.quad" size="7">7.0E-4 -0.00247 3.2E-4 -0.00234 -0.0040 -0.00165 0.0</array><array dataType="xsd:double" dictRef="cc:delta.total" size="7">-6.8E-4 -0.00323 -0.0011 -0.00263 -0.00373 -0.0011 0.0</array><array dataType="xsd:double" dictRef="cc:newval" size="7">3.83867 3.73306 3.83883 1.44772 2.89512 1.4474 0.0</array></list></module><module cmlx:lineCount="5" cmlx:templateRef="l103.itemconverge"><list cmlx:lineCount="4" cmlx:templateRef="row"><array dataType="xsd:string" dictRef="g:item"/><array dataType="xsd:double" dictRef="g:value" size="4">4.5E-4 3.0E-4 0.0018 0.0012</array><array dataType="xsd:double" dictRef="g:threshold" size="4">0.0 0.0 0.0 0.0</array><array dataType="xsd:string" dictRef="g:converged" size="4">NO NO NO NO</array></list></module><module cmlx:lineCount="1" cmlx:templateRef="preddelta"><list cmlx:templateRef="predicted"><scalar dataType="xsd:double" dictRef="g:predchange">-4.223678E-6</scalar></list></module> GradGradGradGradGradGradGradGradGradGradGradGradGradGradGradGradGradGrad</module><module cmlx:lineCount="10" cmlx:templateRef="l202.orient"><molecule id="a4" cmlx:templateRef="atom"><atomArray><atom id="a1" elementType="I" x3="-0.12766" y3="1.039992" z3="0.021709"><scalar dataType="xsd:integer" dictRef="cc:serial">1</scalar><scalar dataType="xsd:integer" dictRef="g:atomicType">0</scalar><scalar dataType="xsd:integer" dictRef="compchem:atomicNumber">53</scalar></atom><atom id="a2" elementType="F" x3="-0.257477" y3="0.815143" z3="2.036382"><scalar dataType="xsd:integer" dictRef="cc:serial">2</scalar><scalar dataType="xsd:integer" dictRef="g:atomicType">0</scalar><scalar dataType="xsd:integer" dictRef="compchem:atomicNumber">9</scalar></atom><atom id="a3" elementType="F" x3="-1.115372" y3="-0.670774" z3="0.011664"><scalar dataType="xsd:integer" dictRef="cc:serial">3</scalar><scalar dataType="xsd:integer" dictRef="g:atomicType">0</scalar><scalar dataType="xsd:integer" dictRef="compchem:atomicNumber">9</scalar></atom><atom id="a4" elementType="F" x3="-0.247548" y3="0.83234" z3="-1.995514"><scalar dataType="xsd:integer" dictRef="cc:serial">4</scalar><scalar dataType="xsd:integer" dictRef="g:atomicType">0</scalar><scalar dataType="xsd:integer" dictRef="compchem:atomicNumber">9</scalar></atom></atomArray><formula formalCharge="0" concise="F 3 I 1"><atomArray elementType="F I" count="3.0 1.0"/></formula><bondArray><bond atomRefs2="a1 a2" id="a1_a2" order="S"/><bond atomRefs2="a1 a3" id="a1_a3" order="S"/><bond atomRefs2="a1 a4" id="a1_a4" order="S"/></bondArray><property dictRef="cml:molmass"><scalar dataType="xsd:double" units="unit:dalton" xmlns:unit="http://www.xml-cml.org/unit/si/">183.8996796</scalar></property></molecule></module><module cmlx:lineCount="6" cmlx:templateRef="l202.distmat"/><module cmlx:lineCount="6" cmlx:templateRef="l202.stoich"><scalar dataType="xsd:string" dictRef="cc:formula" cmlx:templateRef="stoich">F3I</scalar><scalar dataType="xsd:string" dictRef="cc:frameworkgroup" cmlx:templateRef="framework">CS[SG(F3I)]</scalar><scalar dataType="xsd:integer" dictRef="cc:degfreedom" cmlx:templateRef="degfreedom">5</scalar><scalar dataType="xsd:string" dictRef="cc:pointgroup">CS</scalar><scalar dataType="xsd:integer" dictRef="cc:operatorcount">2</scalar><scalar dataType="xsd:string" dictRef="cc:largestabelian">CS</scalar><scalar dataType="xsd:integer" dictRef="cc:operatorcount">2</scalar><scalar dataType="xsd:string" dictRef="cc:largestconciseabelian">C1</scalar><scalar dataType="xsd:integer" dictRef="cc:operatorcount">1</scalar></module><module cmlx:lineCount="10" cmlx:templateRef="l202.orient"><molecule id="a4" cmlx:templateRef="atom"><atomArray><atom id="a1" elementType="I" x3="0.0" y3="0.278422" z3="0.0"><scalar dataType="xsd:integer" dictRef="cc:serial">1</scalar><scalar dataType="xsd:integer" dictRef="g:atomicType">0</scalar><scalar dataType="xsd:integer" dictRef="compchem:atomicNumber">53</scalar></atom><atom id="a2" elementType="F" x3="-2.015969" y3="0.029045" z3="0.0"><scalar dataType="xsd:integer" dictRef="cc:serial">2</scalar><scalar dataType="xsd:integer" dictRef="g:atomicType">0</scalar><scalar dataType="xsd:integer" dictRef="compchem:atomicNumber">9</scalar></atom><atom id="a3" elementType="F" x3="-8.0E-6" y3="-1.697026" z3="0.0"><scalar dataType="xsd:integer" dictRef="cc:serial">3</scalar><scalar dataType="xsd:integer" dictRef="g:atomicType">0</scalar><scalar dataType="xsd:integer" dictRef="compchem:atomicNumber">9</scalar></atom><atom id="a4" elementType="F" x3="2.015977" y3="0.028383" z3="0.0"><scalar dataType="xsd:integer" dictRef="cc:serial">4</scalar><scalar dataType="xsd:integer" dictRef="g:atomicType">0</scalar><scalar dataType="xsd:integer" dictRef="compchem:atomicNumber">9</scalar></atom></atomArray><formula formalCharge="0" concise="F 3 I 1"><atomArray elementType="F I" count="3.0 1.0"/></formula><bondArray><bond atomRefs2="a1 a2" id="a1_a2" order="S"/><bond atomRefs2="a1 a3" id="a1_a3" order="S"/><bond atomRefs2="a1 a4" id="a1_a4" order="S"/></bondArray><property dictRef="cml:molmass"><scalar dataType="xsd:double" units="unit:dalton" xmlns:unit="http://www.xml-cml.org/unit/si/">183.8996796</scalar></property></molecule></module><module cmlx:lineCount="1" cmlx:templateRef="l202.rotconst"><array dataType="xsd:double" size="3" dictRef="cc:rotconst" cmlx:templateRef="rotconst">7.8369323 3.2726593 2.3086005</array></module><scalar dataType="xsd:integer" dictRef="g:buffer" cmlx:templateRef="buffer">131072</scalar><scalar dataType="xsd:string" dictRef="g:raffenetti" cmlx:templateRef="raff">Raffenetti</scalar><scalar dataType="xsd:string" dictRef="g:twoe" cmlx:templateRef="twoe">Two-electron</scalar><module cmlx:lineCount="17" cmlx:templateRef="l301.basis"><scalar dataType="xsd:string" dictRef="cc:basis">LANL2DZ</scalar><scalar dataType="xsd:string" dictRef="cc:diffuse">(5D, 7F)</scalar><list cmlx:lineCount="2" cmlx:templateRef="symmadapt"><array dataType="xsd:integer" dictRef="cc:adapted" size="2">27 8</array><array dataType="xsd:string" dictRef="cc:symm" size="2">A' A"</array></list><scalar dataType="xsd:integer" dictRef="cc:basiscount">35</scalar><scalar dataType="xsd:integer" dictRef="g:primbasis">87</scalar><scalar dataType="xsd:integer" dictRef="cc:cartesianbasis">35</scalar><scalar dataType="xsd:integer" dictRef="cc:alphae">17</scalar><scalar dataType="xsd:integer" dictRef="cc:betae">17</scalar> Warning!  I  atom    1 may be hypervalent but has no d functions. NAtoms=    4 NActive=    4 NUniq=    4 SFac= 7.50D-01 NAtFMM=   80 NAOKFM=F Big=F</module><module cmlx:lineCount="1" cmlx:templateRef="l302.basis"><list cmlx:templateRef="onee"><scalar dataType="xsd:string" dictRef="g:onee">One-electron integrals</scalar></list></module>   1 Symmetry operations used in ECPInt. ECPInt:  NShTT=     190 NPrTT=    1412 LenC2=     188 LenP2D=    1035. LDataN:  DoStor=T MaxTD1= 4 Len=   56 NBasis=    35 RedAO= T  NBF=    27     8 NBsUse=    35 1.00D-06 NBFU=    27     8 Defaulting to unpruned grid for atomic number  53. Initial guess read from the read-write file. B after Tr=     0.000000    0.000000    0.000000         Rot=    1.000000    0.000000    0.000000    0.000000 Ang=   0.00 deg. Initial guess orbital symmetries:       Occupied  (A') (A') (A') (A') (A') (A') (A') (A') (A') (A")                 (A') (A") (A') (A") (A') (A') (A")       Virtual   (A') (A') (A') (A") (A') (A') (A") (A") (A') (A")                 (A') (A') (A') (A') (A') (A') (A') (A') Requested convergence on RMS density matrix=1.00D-08 within 128 cycles. Requested convergence on MAX density matrix=1.00D-06. Requested convergence on             energy=1.00D-06. No special actions if energy rises. Keep R1 ints in memory in canonical form, NReq=1123217. Defaulting to unpruned grid for atomic number  53. Defaulting to unpruned grid for atomic number  53. Defaulting to unpruned grid for atomic number  53. Defaulting to unpruned grid for atomic number  53. SCF Done:  E(RB3LYP) =  -310.814590971     A.U. after   12 cycles             Convg  =    0.2772D-08             -V/T =  2.0317   2 Symmetry operations used in ECPInt. ECPInt:  NShTT=     190 NPrTT=    1412 LenC2=     188 LenP2D=    1035. LDataN:  DoStor=T MaxTD1= 5 Len=  102 Calling FoFJK, ICntrl=      2127 FMM=F ISym2X=1 I1Cent= 0 IOpClX= 0 NMat=1 NMatS=1 NMatT=0. Defaulting to unpruned grid for atomic number  53. Defaulting to unpruned grid for atomic number  53. Defaulting to unpruned grid for atomic number  53. Defaulting to unpruned grid for atomic number  53. ***** Axes restored to original set ***** ------------------------------------------------------------------- Center     Atomic                   Forces (Hartrees/Bohr) Number     Number              X              Y              Z -------------------------------------------------------------------      1       53           0.000206917    0.000358391   -0.000040350      2        9          -0.000130910   -0.000226743   -0.000080492      3        9           0.000045589    0.000078962    0.000017947      4        9          -0.000121596   -0.000210610    0.000102895 ------------------------------------------------------------------- Cartesian Forces:  Max     0.000358391 RMS     0.000164894<module cmlx:lineCount="50" cmlx:templateRef="l103"><list cmlx:templateRef="berny"><scalar dataType="xsd:string" dictRef="g:optimization">Using GEDIIS/GDIIS optimizer.</scalar></list> Internal  Forces:  Max     0.000669986 RMS     0.000314254 Search for a local minimum. Step number   4 out of a maximum of   20 All quantities printed in internal units (Hartrees-Bohrs-Radians) Mixed Optimization -- En-DIIS/RFO-DIIS Swaping is turned off. Update second derivatives using D2CorX and points    1    2    3    4 DE= -6.32D-06 DEPred=-4.22D-06 R= 1.50D+00 SS=  1.41D+00  RLast= 5.84D-03 DXNew= 8.4853D-01 1.7532D-02<module cmlx:lineCount="1" cmlx:templateRef="l103.trust"> Trust test= 1.50D+00 RLast= 5.84D-03 DXMaxT set to 5.05D-01</module> The second derivative matrix:                          R1        R2        R3        A1        A2           R1           0.21691           R2          -0.00561   0.26478           R3          -0.01601  -0.00380   0.21561           A1          -0.00517  -0.01200  -0.00794   0.21974           A2          -0.00102  -0.03394  -0.00703  -0.05267   0.16004           A3           0.00415  -0.02194   0.00092  -0.02241  -0.03728           D1           0.00000   0.00000   0.00000   0.00000   0.00000                          A3        D1           A3           0.23513           D1           0.00000   0.00230     Eigenvalues ---    0.00230   0.10243   0.19959   0.23230   0.24793     Eigenvalues ---    0.279971000.00000 En-DIIS/RFO-DIIS IScMMF=        0 using points:     4    3<module cmlx:lineCount="5" cmlx:templateRef="rfo"> DIIS coeffs:      1.97477     -0.97477 Iteration  1 RMS(Cart)=  0.00502990 RMS(Int)=  0.00001051 Iteration  2 RMS(Cart)=  0.00001041 RMS(Int)=  0.00000000 Iteration  3 RMS(Cart)=  0.00000000 RMS(Int)=  0.00000000</module> ClnCor:  largest displacement from symmetrization is 2.74D-14 for atom     1. Variable       Old X    -DE/DX   Delta X   Delta X   Delta X     New X                                  (DIIS)     (GDIIS)  (Total)    R1        3.83867  -0.00005  -0.00067   0.00030  -0.00037   3.83829    R2        3.73306  -0.00009  -0.00315   0.00157  -0.00158   3.73148    R3        3.83883  -0.00007  -0.00107   0.00034  -0.00073   3.83811    A1        1.44772  -0.00037  -0.00256  -0.00105  -0.00361   1.44411    A2        2.89512  -0.00067  -0.00364  -0.00275  -0.00639   2.88873    A3        1.44740  -0.00030  -0.00107  -0.00171  -0.00278   1.44462    D1        0.00000   0.00000   0.00000   0.00000   0.00000   0.00000<module cmlx:lineCount="5" cmlx:templateRef="l103.itemconverge"><list cmlx:lineCount="4" cmlx:templateRef="row"><array dataType="xsd:string" dictRef="g:item"/><array dataType="xsd:double" dictRef="g:value" size="4">4.5E-4 3.0E-4 0.0018 0.0012</array><array dataType="xsd:double" dictRef="g:threshold" size="4">0.0 0.0 0.0 0.0</array><array dataType="xsd:string" dictRef="g:converged" size="4">NO NO NO NO</array></list></module><module cmlx:lineCount="1" cmlx:templateRef="preddelta"><list cmlx:templateRef="predicted"><scalar dataType="xsd:double" dictRef="g:predchange">-3.331584E-6</scalar></list></module> GradGradGradGradGradGradGradGradGradGradGradGradGradGradGradGradGradGrad</module><module cmlx:lineCount="10" cmlx:templateRef="l202.orient"><molecule id="a4" cmlx:templateRef="atom"><atomArray><atom id="a1" elementType="I" x3="-0.126163" y3="1.042585" z3="0.021531"><scalar dataType="xsd:integer" dictRef="cc:serial">1</scalar><scalar dataType="xsd:integer" dictRef="g:atomicType">0</scalar><scalar dataType="xsd:integer" dictRef="compchem:atomicNumber">53</scalar></atom><atom id="a2" elementType="F" x3="-0.259279" y3="0.812022" z3="2.035145"><scalar dataType="xsd:integer" dictRef="cc:serial">2</scalar><scalar dataType="xsd:integer" dictRef="g:atomicType">0</scalar><scalar dataType="xsd:integer" dictRef="compchem:atomicNumber">9</scalar></atom><atom id="a3" elementType="F" x3="-1.113459" y3="-0.667461" z3="0.012122"><scalar dataType="xsd:integer" dictRef="cc:serial">3</scalar><scalar dataType="xsd:integer" dictRef="g:atomicType">0</scalar><scalar dataType="xsd:integer" dictRef="compchem:atomicNumber">9</scalar></atom><atom id="a4" elementType="F" x3="-0.249156" y3="0.829555" z3="-1.994557"><scalar dataType="xsd:integer" dictRef="cc:serial">4</scalar><scalar dataType="xsd:integer" dictRef="g:atomicType">0</scalar><scalar dataType="xsd:integer" dictRef="compchem:atomicNumber">9</scalar></atom></atomArray><formula formalCharge="0" concise="F 3 I 1"><atomArray elementType="F I" count="3.0 1.0"/></formula><bondArray><bond atomRefs2="a1 a2" id="a1_a2" order="S"/><bond atomRefs2="a1 a3" id="a1_a3" order="S"/><bond atomRefs2="a1 a4" id="a1_a4" order="S"/></bondArray><property dictRef="cml:molmass"><scalar dataType="xsd:double" units="unit:dalton" xmlns:unit="http://www.xml-cml.org/unit/si/">183.8996796</scalar></property></molecule></module><module cmlx:lineCount="6" cmlx:templateRef="l202.distmat"/><module cmlx:lineCount="6" cmlx:templateRef="l202.stoich"><scalar dataType="xsd:string" dictRef="cc:formula" cmlx:templateRef="stoich">F3I</scalar><scalar dataType="xsd:string" dictRef="cc:frameworkgroup" cmlx:templateRef="framework">CS[SG(F3I)]</scalar><scalar dataType="xsd:integer" dictRef="cc:degfreedom" cmlx:templateRef="degfreedom">5</scalar><scalar dataType="xsd:string" dictRef="cc:pointgroup">CS</scalar><scalar dataType="xsd:integer" dictRef="cc:operatorcount">2</scalar><scalar dataType="xsd:string" dictRef="cc:largestabelian">CS</scalar><scalar dataType="xsd:integer" dictRef="cc:operatorcount">2</scalar><scalar dataType="xsd:string" dictRef="cc:largestconciseabelian">C1</scalar><scalar dataType="xsd:integer" dictRef="cc:operatorcount">1</scalar></module><module cmlx:lineCount="10" cmlx:templateRef="l202.orient"><molecule id="a4" cmlx:templateRef="atom"><atomArray><atom id="a1" elementType="I" x3="0.0" y3="0.279769" z3="0.0"><scalar dataType="xsd:integer" dictRef="cc:serial">1</scalar><scalar dataType="xsd:integer" dictRef="g:atomicType">0</scalar><scalar dataType="xsd:integer" dictRef="compchem:atomicNumber">53</scalar></atom><atom id="a2" elementType="F" x3="-2.014864" y3="0.023163" z3="0.0"><scalar dataType="xsd:integer" dictRef="cc:serial">2</scalar><scalar dataType="xsd:integer" dictRef="g:atomicType">0</scalar><scalar dataType="xsd:integer" dictRef="compchem:atomicNumber">9</scalar></atom><atom id="a3" elementType="F" x3="-2.6E-5" y3="-1.694845" z3="0.0"><scalar dataType="xsd:integer" dictRef="cc:serial">3</scalar><scalar dataType="xsd:integer" dictRef="g:atomicType">0</scalar><scalar dataType="xsd:integer" dictRef="compchem:atomicNumber">9</scalar></atom><atom id="a4" elementType="F" x3="2.01489" y3="0.024152" z3="0.0"><scalar dataType="xsd:integer" dictRef="cc:serial">4</scalar><scalar dataType="xsd:integer" dictRef="g:atomicType">0</scalar><scalar dataType="xsd:integer" dictRef="compchem:atomicNumber">9</scalar></atom></atomArray><formula formalCharge="0" concise="F 3 I 1"><atomArray elementType="F I" count="3.0 1.0"/></formula><bondArray><bond atomRefs2="a1 a2" id="a1_a2" order="S"/><bond atomRefs2="a1 a3" id="a1_a3" order="S"/><bond atomRefs2="a1 a4" id="a1_a4" order="S"/></bondArray><property dictRef="cml:molmass"><scalar dataType="xsd:double" units="unit:dalton" xmlns:unit="http://www.xml-cml.org/unit/si/">183.8996796</scalar></property></molecule></module><module cmlx:lineCount="1" cmlx:templateRef="l202.rotconst"><array dataType="xsd:double" size="3" dictRef="cc:rotconst" cmlx:templateRef="rotconst">7.8437586 3.2762201 2.3109648</array></module><scalar dataType="xsd:integer" dictRef="g:buffer" cmlx:templateRef="buffer">131072</scalar><scalar dataType="xsd:string" dictRef="g:raffenetti" cmlx:templateRef="raff">Raffenetti</scalar><scalar dataType="xsd:string" dictRef="g:twoe" cmlx:templateRef="twoe">Two-electron</scalar><module cmlx:lineCount="17" cmlx:templateRef="l301.basis"><scalar dataType="xsd:string" dictRef="cc:basis">LANL2DZ</scalar><scalar dataType="xsd:string" dictRef="cc:diffuse">(5D, 7F)</scalar><list cmlx:lineCount="2" cmlx:templateRef="symmadapt"><array dataType="xsd:integer" dictRef="cc:adapted" size="2">27 8</array><array dataType="xsd:string" dictRef="cc:symm" size="2">A' A"</array></list><scalar dataType="xsd:integer" dictRef="cc:basiscount">35</scalar><scalar dataType="xsd:integer" dictRef="g:primbasis">87</scalar><scalar dataType="xsd:integer" dictRef="cc:cartesianbasis">35</scalar><scalar dataType="xsd:integer" dictRef="cc:alphae">17</scalar><scalar dataType="xsd:integer" dictRef="cc:betae">17</scalar> Warning!  I  atom    1 may be hypervalent but has no d functions. NAtoms=    4 NActive=    4 NUniq=    4 SFac= 7.50D-01 NAtFMM=   80 NAOKFM=F Big=F</module><module cmlx:lineCount="1" cmlx:templateRef="l302.basis"><list cmlx:templateRef="onee"><scalar dataType="xsd:string" dictRef="g:onee">One-electron integrals</scalar></list></module>   1 Symmetry operations used in ECPInt. ECPInt:  NShTT=     190 NPrTT=    1412 LenC2=     188 LenP2D=    1035. LDataN:  DoStor=T MaxTD1= 4 Len=   56 NBasis=    35 RedAO= T  NBF=    27     8 NBsUse=    35 1.00D-06 NBFU=    27     8 Defaulting to unpruned grid for atomic number  53. Initial guess read from the read-write file. B after Tr=     0.000000    0.000000    0.000000         Rot=    1.000000    0.000000    0.000000    0.000000 Ang=   0.00 deg. Initial guess orbital symmetries:       Occupied  (A') (A') (A') (A') (A') (A') (A') (A') (A') (A")                 (A') (A") (A') (A") (A') (A') (A")       Virtual   (A') (A') (A') (A") (A') (A') (A") (A") (A') (A")                 (A') (A') (A') (A') (A') (A') (A') (A') Requested convergence on RMS density matrix=1.00D-08 within 128 cycles. Requested convergence on MAX density matrix=1.00D-06. Requested convergence on             energy=1.00D-06. No special actions if energy rises. Keep R1 ints in memory in canonical form, NReq=1123217. Defaulting to unpruned grid for atomic number  53. Defaulting to unpruned grid for atomic number  53. Defaulting to unpruned grid for atomic number  53. Defaulting to unpruned grid for atomic number  53. SCF Done:  E(RB3LYP) =  -310.814594852     A.U. after    9 cycles             Convg  =    0.6722D-08             -V/T =  2.0317   2 Symmetry operations used in ECPInt. ECPInt:  NShTT=     190 NPrTT=    1412 LenC2=     188 LenP2D=    1035. LDataN:  DoStor=T MaxTD1= 5 Len=  102 Calling FoFJK, ICntrl=      2127 FMM=F ISym2X=1 I1Cent= 0 IOpClX= 0 NMat=1 NMatS=1 NMatT=0. Defaulting to unpruned grid for atomic number  53. Defaulting to unpruned grid for atomic number  53. Defaulting to unpruned grid for atomic number  53. Defaulting to unpruned grid for atomic number  53. ***** Axes restored to original set ***** ------------------------------------------------------------------- Center     Atomic                   Forces (Hartrees/Bohr) Number     Number              X              Y              Z -------------------------------------------------------------------      1       53           0.000205268    0.000355535    0.000056722      2        9          -0.000023198   -0.000040181   -0.000032528      3        9          -0.000143491   -0.000248534   -0.000030271      4        9          -0.000038579   -0.000066820    0.000006077 ------------------------------------------------------------------- Cartesian Forces:  Max     0.000355535 RMS     0.000148390<module cmlx:lineCount="50" cmlx:templateRef="l103"><list cmlx:templateRef="berny"><scalar dataType="xsd:string" dictRef="g:optimization">Using GEDIIS/GDIIS optimizer.</scalar></list> Internal  Forces:  Max     0.000287123 RMS     0.000135656 Search for a local minimum. Step number   5 out of a maximum of   20 All quantities printed in internal units (Hartrees-Bohrs-Radians) Mixed Optimization -- En-DIIS/RFO-DIIS Swaping is turned off. Update second derivatives using D2CorX and points    1    2    3    4    5 DE= -3.88D-06 DEPred=-3.33D-06 R= 1.16D+00 SS=  1.41D+00  RLast= 8.05D-03 DXNew= 8.4853D-01 2.4139D-02<module cmlx:lineCount="1" cmlx:templateRef="l103.trust"> Trust test= 1.16D+00 RLast= 8.05D-03 DXMaxT set to 5.05D-01</module> The second derivative matrix:                          R1        R2        R3        A1        A2           R1           0.21972           R2          -0.02149   0.29150           R3          -0.01484  -0.01477   0.21587           A1          -0.00787   0.00407  -0.00874   0.21972           A2          -0.00112  -0.00717  -0.00477  -0.05833   0.13798           A3           0.00675  -0.01124   0.00397  -0.02805  -0.05368           D1           0.00000   0.00000   0.00000   0.00000   0.00000                          A3        D1           A3           0.22437           D1           0.00000   0.00230     Eigenvalues ---    0.00230   0.08112   0.19459   0.23229   0.24826     Eigenvalues ---    0.302891000.00000 En-DIIS/RFO-DIIS IScMMF=        0 using points:     5    4    3<module cmlx:lineCount="5" cmlx:templateRef="rfo"> DIIS coeffs:      1.77210     -1.54232      0.77021 Iteration  1 RMS(Cart)=  0.00135624 RMS(Int)=  0.00000114 Iteration  2 RMS(Cart)=  0.00000114 RMS(Int)=  0.00000000 Iteration  3 RMS(Cart)=  0.00000000 RMS(Int)=  0.00000000</module> ClnCor:  largest displacement from symmetrization is 1.01D-08 for atom     1. Variable       Old X    -DE/DX   Delta X   Delta X   Delta X     New X                                  (DIIS)     (GDIIS)  (Total)    R1        3.83829  -0.00003   0.00024  -0.00041  -0.00016   3.83813    R2        3.73148   0.00029   0.00127   0.00018   0.00145   3.73293    R3        3.83811   0.00000   0.00028  -0.00032  -0.00004   3.83807    A1        1.44411  -0.00003  -0.00076  -0.00005  -0.00081   1.44330    A2        2.88873  -0.00016  -0.00206  -0.00004  -0.00210   2.88663    A3        1.44462  -0.00014  -0.00130   0.00001  -0.00129   1.44333    D1        0.00000   0.00000   0.00000   0.00000   0.00000   0.00000<module cmlx:lineCount="5" cmlx:templateRef="l103.itemconverge"><list cmlx:lineCount="4" cmlx:templateRef="row"><array dataType="xsd:string" dictRef="g:item"/><array dataType="xsd:double" dictRef="g:value" size="4">4.5E-4 3.0E-4 0.0018 0.0012</array><array dataType="xsd:double" dictRef="g:threshold" size="4">0.0 0.0 0.0 0.0</array><array dataType="xsd:string" dictRef="g:converged" size="4">YES YES NO NO</array></list></module><module cmlx:lineCount="1" cmlx:templateRef="preddelta"><list cmlx:templateRef="predicted"><scalar dataType="xsd:double" dictRef="g:predchange">-3.172673E-7</scalar></list></module> GradGradGradGradGradGradGradGradGradGradGradGradGradGradGradGradGradGrad</module><module cmlx:lineCount="10" cmlx:templateRef="l202.orient"><molecule id="a4" cmlx:templateRef="atom"><atomArray><atom id="a1" elementType="I" x3="-0.12554" y3="1.043665" z3="0.021638"><scalar dataType="xsd:integer" dictRef="cc:serial">1</scalar><scalar dataType="xsd:integer" dictRef="g:atomicType">0</scalar><scalar dataType="xsd:integer" dictRef="compchem:atomicNumber">53</scalar></atom><atom id="a2" elementType="F" x3="-0.259651" y3="0.811379" z3="2.0349"><scalar dataType="xsd:integer" dictRef="cc:serial">2</scalar><scalar dataType="xsd:integer" dictRef="g:atomicType">0</scalar><scalar dataType="xsd:integer" dictRef="compchem:atomicNumber">9</scalar></atom><atom id="a3" elementType="F" x3="-1.11322" y3="-0.667046" z3="0.01186"><scalar dataType="xsd:integer" dictRef="cc:serial">3</scalar><scalar dataType="xsd:integer" dictRef="g:atomicType">0</scalar><scalar dataType="xsd:integer" dictRef="compchem:atomicNumber">9</scalar></atom><atom id="a4" elementType="F" x3="-0.249648" y3="0.828703" z3="-1.994156"><scalar dataType="xsd:integer" dictRef="cc:serial">4</scalar><scalar dataType="xsd:integer" dictRef="g:atomicType">0</scalar><scalar dataType="xsd:integer" dictRef="compchem:atomicNumber">9</scalar></atom></atomArray><formula formalCharge="0" concise="F 3 I 1"><atomArray elementType="F I" count="3.0 1.0"/></formula><bondArray><bond atomRefs2="a1 a2" id="a1_a2" order="S"/><bond atomRefs2="a1 a3" id="a1_a3" order="S"/><bond atomRefs2="a1 a4" id="a1_a4" order="S"/></bondArray><property dictRef="cml:molmass"><scalar dataType="xsd:double" units="unit:dalton" xmlns:unit="http://www.xml-cml.org/unit/si/">183.8996796</scalar></property></molecule></module><module cmlx:lineCount="6" cmlx:templateRef="l202.distmat"/><module cmlx:lineCount="6" cmlx:templateRef="l202.stoich"><scalar dataType="xsd:string" dictRef="cc:formula" cmlx:templateRef="stoich">F3I</scalar><scalar dataType="xsd:string" dictRef="cc:frameworkgroup" cmlx:templateRef="framework">CS[SG(F3I)]</scalar><scalar dataType="xsd:integer" dictRef="cc:degfreedom" cmlx:templateRef="degfreedom">5</scalar><scalar dataType="xsd:string" dictRef="cc:pointgroup">CS</scalar><scalar dataType="xsd:integer" dictRef="cc:operatorcount">2</scalar><scalar dataType="xsd:string" dictRef="cc:largestabelian">CS</scalar><scalar dataType="xsd:integer" dictRef="cc:operatorcount">2</scalar><scalar dataType="xsd:string" dictRef="cc:largestconciseabelian">C1</scalar><scalar dataType="xsd:integer" dictRef="cc:operatorcount">1</scalar></module><module cmlx:lineCount="10" cmlx:templateRef="l202.orient"><molecule id="a4" cmlx:templateRef="atom"><atomArray><atom id="a1" elementType="I" x3="0.0" y3="0.280331" z3="0.0"><scalar dataType="xsd:integer" dictRef="cc:serial">1</scalar><scalar dataType="xsd:integer" dictRef="g:atomicType">0</scalar><scalar dataType="xsd:integer" dictRef="compchem:atomicNumber">53</scalar></atom><atom id="a2" elementType="F" x3="2.014563" y3="0.022058" z3="0.0"><scalar dataType="xsd:integer" dictRef="cc:serial">2</scalar><scalar dataType="xsd:integer" dictRef="g:atomicType">0</scalar><scalar dataType="xsd:integer" dictRef="compchem:atomicNumber">9</scalar></atom><atom id="a3" elementType="F" x3="-1.9E-5" y3="-1.695053" z3="0.0"><scalar dataType="xsd:integer" dictRef="cc:serial">3</scalar><scalar dataType="xsd:integer" dictRef="g:atomicType">0</scalar><scalar dataType="xsd:integer" dictRef="compchem:atomicNumber">9</scalar></atom><atom id="a4" elementType="F" x3="-2.014543" y3="0.022158" z3="0.0"><scalar dataType="xsd:integer" dictRef="cc:serial">4</scalar><scalar dataType="xsd:integer" dictRef="g:atomicType">0</scalar><scalar dataType="xsd:integer" dictRef="compchem:atomicNumber">9</scalar></atom></atomArray><formula formalCharge="0" concise="F 3 I 1"><atomArray elementType="F I" count="3.0 1.0"/></formula><bondArray><bond atomRefs2="a1 a2" id="a1_a2" order="S"/><bond atomRefs2="a1 a3" id="a1_a3" order="S"/><bond atomRefs2="a1 a4" id="a1_a4" order="S"/></bondArray><property dictRef="cml:molmass"><scalar dataType="xsd:double" units="unit:dalton" xmlns:unit="http://www.xml-cml.org/unit/si/">183.8996796</scalar></property></molecule></module><module cmlx:lineCount="1" cmlx:templateRef="l202.rotconst"><array dataType="xsd:double" size="3" dictRef="cc:rotconst" cmlx:templateRef="rotconst">7.8376447 3.2772736 2.3109577</array></module><scalar dataType="xsd:integer" dictRef="g:buffer" cmlx:templateRef="buffer">131072</scalar><scalar dataType="xsd:string" dictRef="g:raffenetti" cmlx:templateRef="raff">Raffenetti</scalar><scalar dataType="xsd:string" dictRef="g:twoe" cmlx:templateRef="twoe">Two-electron</scalar><module cmlx:lineCount="17" cmlx:templateRef="l301.basis"><scalar dataType="xsd:string" dictRef="cc:basis">LANL2DZ</scalar><scalar dataType="xsd:string" dictRef="cc:diffuse">(5D, 7F)</scalar><list cmlx:lineCount="2" cmlx:templateRef="symmadapt"><array dataType="xsd:integer" dictRef="cc:adapted" size="2">27 8</array><array dataType="xsd:string" dictRef="cc:symm" size="2">A' A"</array></list><scalar dataType="xsd:integer" dictRef="cc:basiscount">35</scalar><scalar dataType="xsd:integer" dictRef="g:primbasis">87</scalar><scalar dataType="xsd:integer" dictRef="cc:cartesianbasis">35</scalar><scalar dataType="xsd:integer" dictRef="cc:alphae">17</scalar><scalar dataType="xsd:integer" dictRef="cc:betae">17</scalar> Warning!  I  atom    1 may be hypervalent but has no d functions. NAtoms=    4 NActive=    4 NUniq=    4 SFac= 7.50D-01 NAtFMM=   80 NAOKFM=F Big=F</module><module cmlx:lineCount="1" cmlx:templateRef="l302.basis"><list cmlx:templateRef="onee"><scalar dataType="xsd:string" dictRef="g:onee">One-electron integrals</scalar></list></module>   1 Symmetry operations used in ECPInt. ECPInt:  NShTT=     190 NPrTT=    1412 LenC2=     188 LenP2D=    1035. LDataN:  DoStor=T MaxTD1= 4 Len=   56 NBasis=    35 RedAO= T  NBF=    27     8 NBsUse=    35 1.00D-06 NBFU=    27     8 Defaulting to unpruned grid for atomic number  53. Initial guess read from the read-write file. B after Tr=     0.000000    0.000000    0.000000         Rot=    1.000000    0.000000    0.000000    0.000000 Ang=   0.00 deg. Initial guess orbital symmetries:       Occupied  (A') (A') (A') (A') (A') (A') (A') (A') (A') (A")                 (A') (A") (A') (A") (A') (A') (A")       Virtual   (A') (A') (A') (A") (A') (A') (A") (A") (A') (A")                 (A') (A') (A') (A') (A') (A') (A') (A') Requested convergence on RMS density matrix=1.00D-08 within 128 cycles. Requested convergence on MAX density matrix=1.00D-06. Requested convergence on             energy=1.00D-06. No special actions if energy rises. Keep R1 ints in memory in canonical form, NReq=1123217. Defaulting to unpruned grid for atomic number  53. Defaulting to unpruned grid for atomic number  53. Defaulting to unpruned grid for atomic number  53. Defaulting to unpruned grid for atomic number  53. SCF Done:  E(RB3LYP) =  -310.814595370     A.U. after   12 cycles             Convg  =    0.2421D-08             -V/T =  2.0317   2 Symmetry operations used in ECPInt. ECPInt:  NShTT=     190 NPrTT=    1412 LenC2=     188 LenP2D=    1035. LDataN:  DoStor=T MaxTD1= 5 Len=  102 Calling FoFJK, ICntrl=      2127 FMM=F ISym2X=1 I1Cent= 0 IOpClX= 0 NMat=1 NMatS=1 NMatT=0. Defaulting to unpruned grid for atomic number  53. Defaulting to unpruned grid for atomic number  53. Defaulting to unpruned grid for atomic number  53. Defaulting to unpruned grid for atomic number  53. ***** Axes restored to original set ***** ------------------------------------------------------------------- Center     Atomic                   Forces (Hartrees/Bohr) Number     Number              X              Y              Z -------------------------------------------------------------------      1       53           0.000016517    0.000028608    0.000011103      2        9           0.000000089    0.000000155   -0.000019723      3        9          -0.000015292   -0.000026486   -0.000001696      4        9          -0.000001315   -0.000002277    0.000010316 ------------------------------------------------------------------- Cartesian Forces:  Max     0.000028608 RMS     0.000014875<module cmlx:lineCount="65" cmlx:templateRef="l103"><list cmlx:templateRef="berny"><scalar dataType="xsd:string" dictRef="g:optimization">Using GEDIIS/GDIIS optimizer.</scalar></list> Internal  Forces:  Max     0.000030592 RMS     0.000014790 Search for a local minimum. Step number   6 out of a maximum of   20 All quantities printed in internal units (Hartrees-Bohrs-Radians) Mixed Optimization -- En-DIIS/RFO-DIIS Swaping is turned off. Update second derivatives using D2CorX and points    1    2    3    4    5                                                      6 DE= -5.18D-07 DEPred=-3.17D-07 R= 1.63D+00<module cmlx:lineCount="1" cmlx:templateRef="l103.trust"> Trust test= 1.63D+00 RLast= 2.98D-03 DXMaxT set to 5.05D-01</module> The second derivative matrix:                          R1        R2        R3        A1        A2           R1           0.22071           R2          -0.00680   0.21726           R3          -0.01258  -0.00978   0.21831           A1          -0.01068   0.00448  -0.01071   0.22198           A2          -0.01303   0.01863  -0.01155  -0.05307   0.14210           A3          -0.00235   0.01415  -0.00084  -0.02505  -0.05483           D1           0.00000   0.00000   0.00000   0.00000   0.00000                          A3        D1           A3           0.22022           D1           0.00000   0.00230     Eigenvalues ---    0.00230   0.08130   0.19667   0.23108   0.23272     Eigenvalues ---    0.248811000.00000 En-DIIS/RFO-DIIS IScMMF=        0 using points:     6    5    4    3<module cmlx:lineCount="4" cmlx:templateRef="rfo"> DIIS coeffs:      1.32618     -0.52378      0.38972     -0.19213 Iteration  1 RMS(Cart)=  0.00010488 RMS(Int)=  0.00000001 Iteration  2 RMS(Cart)=  0.00000001 RMS(Int)=  0.00000000</module> ClnCor:  largest displacement from symmetrization is 2.34D-10 for atom     1. Variable       Old X    -DE/DX   Delta X   Delta X   Delta X     New X                                  (DIIS)     (GDIIS)  (Total)    R1        3.83813  -0.00002  -0.00011  -0.00001  -0.00012   3.83801    R2        3.73293   0.00003   0.00017   0.00000   0.00017   3.73310    R3        3.83807  -0.00001  -0.00008   0.00001  -0.00007   3.83800    A1        1.44330   0.00000  -0.00006   0.00000  -0.00006   1.44324    A2        2.88663  -0.00001  -0.00014   0.00000  -0.00014   2.88649    A3        1.44333  -0.00001  -0.00008   0.00000  -0.00008   1.44325    D1        0.00000   0.00000   0.00000   0.00000   0.00000   0.00000<module cmlx:lineCount="5" cmlx:templateRef="l103.itemconverge"><list cmlx:lineCount="4" cmlx:templateRef="row"><array dataType="xsd:string" dictRef="g:item"/><array dataType="xsd:double" dictRef="g:value" size="4">4.5E-4 3.0E-4 0.0018 0.0012</array><array dataType="xsd:double" dictRef="g:threshold" size="4">0.0 0.0 0.0 0.0</array><array dataType="xsd:string" dictRef="g:converged" size="4">YES YES YES YES</array></list></module><module cmlx:lineCount="1" cmlx:templateRef="preddelta"><list cmlx:templateRef="predicted"><scalar dataType="xsd:double" dictRef="g:predchange">-4.441652E-9</scalar></list></module><module cmlx:lineCount="15" cmlx:templateRef="l103.optimizedparam"><list cmlx:templateRef="completed"><scalar dataType="xsd:string" dictRef="g:optimization">Optimization completed.</scalar><scalar dataType="xsd:string" dictRef="g:optimization">-- Stationary point found.</scalar></list><list cmlx:templateRef="length"><array dataType="xsd:string" size="3" dictRef="g:symbol">R1 R2 R3</array><array dataType="xsd:integer" size="3" dictRef="g:atom1">1 1 1</array><array dataType="xsd:integer" size="3" dictRef="g:atom2">2 3 4</array><array dataType="xsd:double" size="3" dictRef="cc:distance">2.0311 1.9754 2.031</array><array delimiter="|" dataType="xsd:string" size="3" dictRef="g:deriv">|-DE/DX =    0.0|-DE/DX =    0.0|-DE/DX =    0.0|</array></list><list cmlx:templateRef="angle"><array dataType="xsd:string" size="3" dictRef="g:symbol">A1 A2 A3</array><array dataType="xsd:integer" size="3" dictRef="g:atom1">2 2 3</array><array dataType="xsd:integer" size="3" dictRef="g:atom2">1 1 1</array><array dataType="xsd:integer" size="3" dictRef="g:atom3">3 4 4</array><array dataType="xsd:double" size="3" dictRef="cc:angle">82.6949 165.3915 82.6965</array><array delimiter="|" dataType="xsd:string" size="3" dictRef="g:deriv">|-DE/DX =    0.0|-DE/DX =    0.0|-DE/DX =    0.0|</array></list> ! D1    D(2,1,4,3)              0.0            -DE/DX =    0.0                 !</module> -------------------------------------------------------------------------------- GradGradGradGradGradGradGradGradGradGradGradGradGradGradGradGradGradGrad</module><module cmlx:lineCount="10" cmlx:templateRef="l202.orient"><molecule id="a4" cmlx:templateRef="atom"><atomArray><atom id="a1" elementType="I" x3="-0.12554" y3="1.043665" z3="0.021638"><scalar dataType="xsd:integer" dictRef="cc:serial">1</scalar><scalar dataType="xsd:integer" dictRef="g:atomicType">0</scalar><scalar dataType="xsd:integer" dictRef="compchem:atomicNumber">53</scalar></atom><atom id="a2" elementType="F" x3="-0.259651" y3="0.811379" z3="2.0349"><scalar dataType="xsd:integer" dictRef="cc:serial">2</scalar><scalar dataType="xsd:integer" dictRef="g:atomicType">0</scalar><scalar dataType="xsd:integer" dictRef="compchem:atomicNumber">9</scalar></atom><atom id="a3" elementType="F" x3="-1.11322" y3="-0.667046" z3="0.01186"><scalar dataType="xsd:integer" dictRef="cc:serial">3</scalar><scalar dataType="xsd:integer" dictRef="g:atomicType">0</scalar><scalar dataType="xsd:integer" dictRef="compchem:atomicNumber">9</scalar></atom><atom id="a4" elementType="F" x3="-0.249648" y3="0.828703" z3="-1.994156"><scalar dataType="xsd:integer" dictRef="cc:serial">4</scalar><scalar dataType="xsd:integer" dictRef="g:atomicType">0</scalar><scalar dataType="xsd:integer" dictRef="compchem:atomicNumber">9</scalar></atom></atomArray><formula formalCharge="0" concise="F 3 I 1"><atomArray elementType="F I" count="3.0 1.0"/></formula><bondArray><bond atomRefs2="a1 a2" id="a1_a2" order="S"/><bond atomRefs2="a1 a3" id="a1_a3" order="S"/><bond atomRefs2="a1 a4" id="a1_a4" order="S"/></bondArray><property dictRef="cml:molmass"><scalar dataType="xsd:double" units="unit:dalton" xmlns:unit="http://www.xml-cml.org/unit/si/">183.8996796</scalar></property></molecule></module><module cmlx:lineCount="6" cmlx:templateRef="l202.distmat"/><module cmlx:lineCount="6" cmlx:templateRef="l202.stoich"><scalar dataType="xsd:string" dictRef="cc:formula" cmlx:templateRef="stoich">F3I</scalar><scalar dataType="xsd:string" dictRef="cc:frameworkgroup" cmlx:templateRef="framework">CS[SG(F3I)]</scalar><scalar dataType="xsd:integer" dictRef="cc:degfreedom" cmlx:templateRef="degfreedom">5</scalar><scalar dataType="xsd:string" dictRef="cc:pointgroup">CS</scalar><scalar dataType="xsd:integer" dictRef="cc:operatorcount">2</scalar><scalar dataType="xsd:string" dictRef="cc:largestabelian">CS</scalar><scalar dataType="xsd:integer" dictRef="cc:operatorcount">2</scalar><scalar dataType="xsd:string" dictRef="cc:largestconciseabelian">C1</scalar><scalar dataType="xsd:integer" dictRef="cc:operatorcount">1</scalar></module><module cmlx:lineCount="10" cmlx:templateRef="l202.orient"><molecule id="a4" cmlx:templateRef="atom"><atomArray><atom id="a1" elementType="I" x3="0.0" y3="0.280331" z3="0.0"><scalar dataType="xsd:integer" dictRef="cc:serial">1</scalar><scalar dataType="xsd:integer" dictRef="g:atomicType">0</scalar><scalar dataType="xsd:integer" dictRef="compchem:atomicNumber">53</scalar></atom><atom id="a2" elementType="F" x3="2.014563" y3="0.022058" z3="0.0"><scalar dataType="xsd:integer" dictRef="cc:serial">2</scalar><scalar dataType="xsd:integer" dictRef="g:atomicType">0</scalar><scalar dataType="xsd:integer" dictRef="compchem:atomicNumber">9</scalar></atom><atom id="a3" elementType="F" x3="-1.9E-5" y3="-1.695053" z3="0.0"><scalar dataType="xsd:integer" dictRef="cc:serial">3</scalar><scalar dataType="xsd:integer" dictRef="g:atomicType">0</scalar><scalar dataType="xsd:integer" dictRef="compchem:atomicNumber">9</scalar></atom><atom id="a4" elementType="F" x3="-2.014543" y3="0.022158" z3="0.0"><scalar dataType="xsd:integer" dictRef="cc:serial">4</scalar><scalar dataType="xsd:integer" dictRef="g:atomicType">0</scalar><scalar dataType="xsd:integer" dictRef="compchem:atomicNumber">9</scalar></atom></atomArray><formula formalCharge="0" concise="F 3 I 1"><atomArray elementType="F I" count="3.0 1.0"/></formula><bondArray><bond atomRefs2="a1 a2" id="a1_a2" order="S"/><bond atomRefs2="a1 a3" id="a1_a3" order="S"/><bond atomRefs2="a1 a4" id="a1_a4" order="S"/></bondArray><property dictRef="cml:molmass"><scalar dataType="xsd:double" units="unit:dalton" xmlns:unit="http://www.xml-cml.org/unit/si/">183.8996796</scalar></property></molecule></module><module cmlx:lineCount="1" cmlx:templateRef="l202.rotconst"><array dataType="xsd:double" size="3" dictRef="cc:rotconst" cmlx:templateRef="rotconst">7.8376447 3.2772736 2.3109577</array></module><module cmlx:lineCount="60" cmlx:templateRef="l601.popanal"> Orbital symmetries:<module cmlx:lineCount="2" cmlx:templateRef="l4601.occupied"><list cmlx:templateRef="occ"><scalar dataType="xsd:string" dictRef="g:occorbs">(A') (A') (A') (A') (A') (A') (A') (A') (A') (A")</scalar></list><list cmlx:templateRef="occ"><scalar dataType="xsd:string" dictRef="g:occorbs">(A') (A") (A') (A") (A') (A') (A")</scalar></list></module><module cmlx:lineCount="2" cmlx:templateRef="l4601.virtual"><list cmlx:templateRef="virt"><scalar dataType="xsd:string" dictRef="g:virtorbs">(A') (A') (A') (A") (A') (A') (A") (A") (A') (A")</scalar></list><list cmlx:templateRef="virt"><scalar dataType="xsd:string" dictRef="g:virtorbs">(A') (A') (A') (A') (A') (A') (A') (A')</scalar></list></module><module cmlx:lineCount="1" cmlx:templateRef="l601.state"><scalar dataType="xsd:string" dictRef="g:l601.state">1-A'.</scalar></module><array dataType="xsd:double" size="17" dictRef="g:alphaocc">-24.74568 -24.69492 -24.69491 -1.21748 -1.15942 -1.15763 -0.79588 -0.52983 -0.52903 -0.48285 -0.44919 -0.42494 -0.41165 -0.40661 -0.39823 -0.38554 -0.33535</array><array dataType="xsd:double" size="18" dictRef="g:alphavirt">-0.18908 -0.12063 0.29689 0.3115 0.31908 0.64798 0.77031 0.7808 0.8099 0.85316 0.86097 0.92418 0.93159 1.02654 1.33727 1.43963 1.68906 9.67812</array><module cmlx:lineCount="8" cmlx:templateRef="l601.alphabetaeigen"/><module cmlx:lineCount="5" cmlx:templateRef="l601.condensed"><array dataType="xsd:double" size="4" dictRef="x:floatArr" cmlx:idx="1">5.488261 0.013006 0.059859 0.012994</array><array dataType="xsd:double" size="4" dictRef="x:floatArr" cmlx:idx="2">0.013006 9.510456 -0.015933 5.14E-4</array><array dataType="xsd:double" size="4" dictRef="x:floatArr" cmlx:idx="3">0.059859 -0.015933 9.3818 -0.015932</array></module><list cmlx:templateRef="popanal"><scalar dataType="xsd:string" dictRef="x:popanal">4  F    0.012994   0.000514  -0.015932   9.510466</scalar></list><module cmlx:lineCount="16" cmlx:templateRef="mulliken"><module cmlx:lineCount="7" cmlx:templateRef="l601.mullik"><scalar dataType="xsd:string" dictRef="g:title">Mulliken atomic charges:</scalar><scalar dataType="xsd:integer" dictRef="cc:serial">1</scalar> Sum of Mulliken atomic charges =   0.00000</module> Mulliken charges with hydrogens summed into heavy atoms:              1     1  I    1.425880     2  F   -0.508044     3  F   -0.409795     4  F   -0.508041 Sum of Mulliken charges with hydrogens summed into heavy atoms =   0.00000<scalar dataType="xsd:double" dictRef="g:electextent2">440.3308</scalar> Charge=              0.0000 electrons</module><module cmlx:lineCount="18" cmlx:templateRef="multipole"><array dataType="xsd:double" size="3" dictRef="cc:dipole">-1.0E-4 3.4295 0.0</array><scalar dataType="xsd:double" dictRef="x:dipole">3.4295</scalar><array dataType="xsd:double" size="3" dictRef="cc:quadrupole">-47.443 -34.0952 -32.95</array><array dataType="xsd:double" size="3" dictRef="cc:quadrupole">4.0E-4 0.0 0.0</array><array dataType="xsd:double" size="6" dictRef="cc:quadrupole">-9.2802 4.0675 5.2127 4.0E-4 0.0 0.0</array><array dataType="xsd:double" size="10" dictRef="cc:octapole">-7.0E-4 20.2686 0.0 1.0E-4 4.1809 0.0 -1.0E-4 2.9853 0.0 0.0</array><array dataType="xsd:double" size="15" dictRef="cc:hexadecapole">-354.7977 -133.4008 -38.5618 0.0043 0.0 0.0025 0.0 0.0 0.0 -68.1674 -53.9324 -27.5194 0.0 0.0 9.0E-4</array></module></module> Symmetry A'   KE= 2.811304907327D+02 Symmetry A"   KE= 2.013276347440D+01<module cmlx:lineCount="8" cmlx:templateRef="l9999.archive"><scalar dataType="xsd:string" dictRef="cc:hostname">GINC-CX1-7-36-1</scalar><scalar dataType="xsd:string" dictRef="g:operation">FOpt</scalar><scalar dataType="xsd:string" dictRef="cc:method">RB3LYP</scalar><scalar dataType="xsd:string" dictRef="cc:basis">LANL2DZ</scalar><scalar dataType="xsd:string" dictRef="cc:jobname">SCAN-USER-1</scalar><scalar dataType="xsd:date" dictRef="cc:date">2010-03-15T00:00:00Z</scalar><scalar dataType="xsd:string" dictRef="g:keyword">#</scalar><scalar dataType="xsd:string" dictRef="g:keyword">opt</scalar><scalar dataType="xsd:string" dictRef="g:keyword">b3lyp/lanl2dz</scalar><scalar dataType="xsd:string" dictRef="g:keyword">geom=connectivity</scalar><scalar dataType="xsd:string" dictRef="cc:title">IF3 Optimisation</scalar><molecule id="mol9999"><atomArray><atom id="a1" elementType="I" x3="-0.1255396437" y3="1.0436653386" z3="0.0216377107"><scalar dataType="xsd:integer" dictRef="compchem:atomicNumber">53</scalar></atom><atom id="a2" elementType="F" x3="-0.2596505022" y3="0.8113785209" z3="2.0348999239"><scalar dataType="xsd:integer" dictRef="compchem:atomicNumber">9</scalar></atom><atom id="a3" elementType="F" x3="-1.1132195494" y3="-0.6670464191" z3="0.011859654"><scalar dataType="xsd:integer" dictRef="compchem:atomicNumber">9</scalar></atom><atom id="a4" elementType="F" x3="-0.2496481773" y3="0.8287030553" z3="-1.9941564386"><scalar dataType="xsd:integer" dictRef="compchem:atomicNumber">9</scalar></atom></atomArray><formula formalCharge="0" concise="F 3 I 1" dictRef="cc:formula.calc"/><bondArray><bond atomRefs2="a1 a2" id="a1_a2" order="S"/><bond atomRefs2="a1 a3" id="a1_a3" order="S"/><bond atomRefs2="a1 a4" id="a1_a4" order="S"/></bondArray><property dictRef="cml:molmass"><scalar dataType="xsd:double" units="unit:dalton" xmlns:unit="http://www.xml-cml.org/unit/si/">183.8996796</scalar></property><formula concise="F 3 I 1" dictRef="cc:formula.user"/></molecule><scalar dataType="xsd:string" dictRef="cc:version">EM64L-G09RevA.02</scalar><scalar dataType="xsd:string" dictRef="cc:electronicstate">1-A'</scalar><scalar dataType="xsd:double" dictRef="cc:hfenergy" units="nonsi:hartree">-310.8145954</scalar><scalar dataType="xsd:double" dictRef="cc:rmsd" units="nonsi:unknown">2.421E-9</scalar><scalar dataType="xsd:double" dictRef="cc:rmsf" units="nonsi:unknown">1.487E-5</scalar><array dataType="xsd:double" size="3" dictRef="cc:dipole" units="nonsi:debye">0.674619 1.1684744 0.0066199</array><scalar dataType="xsd:string" dictRef="x:Quadrupole">3.6626133,3.2367779,-6.8993912,-0.3687842,0.0246495,0.0426942</scalar><scalar dataType="xsd:string" dictRef="cc:pointgroup">CS [SG(F3I1)]</scalar><scalar dataType="xsd:string" dictRef="g:archive">@</scalar></module> WE LEARN WISDOM FROM FAILURE MUCH MORE THAN FROM SUCCESS. WE DISCOVER WHAT WILL DO BY FINDING OUT WHAT WILL NOT DO... AND HE WHO NEVER MADE A MISTAKE NEVER MADE A DISCOVERY<module cmlx:lineCount="3" cmlx:templateRef="jobcpu"><scalar dictRef="cc:jobtime" dataType="xsd:string">PT32.900S</scalar><scalar dataType="xsd:date" dictRef="cc:jobdatetime.end">2010-03-15T14:09:35Z</scalar><scalar dataType="xsd:string" dictRef="cc:program">Gaussian 09</scalar></module></module>
