<?xml version="1.0" encoding="UTF-8"?>
<module cmlx:templateRef="gaussian.log" xmlns="http://www.xml-cml.org/schema" xmlns:cmlx="http://www.xml-cml.org/schema/cmlx"> Entering Gaussian System, Link 0=g03 Initial command: /apps/gaussian/g09/g09/l1.exe /home/scan-user-1/run/26157/Gau-13493.inp -scrdir=/home/scan-user-1/run/26157/ Entering Link 1 = /apps/gaussian/g09/g09/l1.exe PID=     13494.  <module cmlx:lineCount="48" cmlx:templateRef="l1.legal"><scalar dataType="xsd:string" dictRef="g:l1.legal">Copyright (c) 1988,1990,1992,1993,1995,1998,2003,2009, Gaussian, Inc.</scalar></module>  <module cmlx:lineCount="18" cmlx:templateRef="l1.citation"><list cmlx:templateRef="citation"><scalar dataType="xsd:string" dictRef="g:l1.citation">Cite this work as:</scalar></list></module> <module cmlx:lineCount="35" cmlx:templateRef="l1.end"><scalar dataType="xsd:string" dictRef="cc:run.date">15-Mar-2010</scalar><scalar dataType="xsd:string" dictRef="cc:program">Gaussian 09</scalar><scalar dataType="xsd:string" dictRef="cc:version">EM64L-G09RevA.02</scalar><scalar dataType="xsd:string" dictRef="cc:program.date">11-Jun-2009</scalar> Will use up to    4 processors via shared memory. %mem=7000MB %NoSave %Chk=chk.chk %rwf=/tmp/pbs.3645962.cx1/rwf<list cmlx:templateRef="control"><scalar dataType="xsd:string" dictRef="g:control">1/5=1,10=4,11=1,18=20,38=1,57=2/1,3</scalar><scalar dataType="xsd:string" dictRef="g:control">2/9=110,12=2,17=6,18=5,40=1/2</scalar><scalar dataType="xsd:string" dictRef="g:control">3/5=5,11=9,16=1,25=1,30=1,71=2/1,2,3</scalar><scalar dataType="xsd:string" dictRef="g:control">4//1</scalar><scalar dataType="xsd:string" dictRef="g:control">5/5=2,38=5/2</scalar><scalar dataType="xsd:string" dictRef="g:control">8/6=4,10=90,11=11/1</scalar><scalar dataType="xsd:string" dictRef="g:control">11/6=1,8=1,9=11,15=111,16=1/1,2,10</scalar><scalar dataType="xsd:string" dictRef="g:control">10/6=1,7=6,13=1/2</scalar><scalar dataType="xsd:string" dictRef="g:control">6/7=2,8=2,9=2,10=2,28=1/1</scalar><scalar dataType="xsd:string" dictRef="g:control">7/10=1,18=20,25=1/1,2,3,16</scalar><scalar dataType="xsd:string" dictRef="g:control">1/5=1,10=4,11=1,18=20/3(2)</scalar><scalar dataType="xsd:string" dictRef="g:control">2/9=110/2</scalar><scalar dataType="xsd:string" dictRef="g:control">99//99</scalar><scalar dataType="xsd:string" dictRef="g:control">2/9=110/2</scalar><scalar dataType="xsd:string" dictRef="g:control">3/5=5,11=9,16=1,25=1,30=1,71=1/1,2,3</scalar><scalar dataType="xsd:string" dictRef="g:control">4/5=5,16=3/1</scalar><scalar dataType="xsd:string" dictRef="g:control">5/5=2,38=5/2</scalar><scalar dataType="xsd:string" dictRef="g:control">7//1,2,3,16</scalar><scalar dataType="xsd:string" dictRef="g:control">1/5=1,11=1,18=20/3(-5)</scalar><scalar dataType="xsd:string" dictRef="g:control">2/9=110/2</scalar><scalar dataType="xsd:string" dictRef="g:control">6/7=2,8=2,9=2,10=2,19=2,28=1/1</scalar><scalar dataType="xsd:string" dictRef="g:control">99/9=1/99</scalar></list></module><module cmlx:lineCount="3" cmlx:templateRef="l101.title"><scalar dataType="xsd:string" dictRef="cc:title" cmlx:templateRef="title">Chair Transistion State Opt 1</scalar></module><module cmlx:lineCount="62" cmlx:templateRef="l101"><list cmlx:templateRef="rest"><scalar dataType="xsd:string" dictRef="x:l101"/></list></module><module cmlx:lineCount="77" cmlx:templateRef="l103"><list cmlx:templateRef="berny"><scalar dataType="xsd:string" dictRef="g:optimization">Initialization pass.</scalar></list><module cmlx:lineCount="69" cmlx:templateRef="l103.init"><list cmlx:templateRef="length"><array dataType="xsd:string" size="29" dictRef="g:symbol">R1 R2 R3 R4 R5 R6 R7 R8 R9 R10 R11 R12 R13 R14 R15 R16 R17 R18 R19 R20 R21 R22 R23 R24 R25 R26 R27 R28 R29</array><array dataType="xsd:integer" size="29" dictRef="g:atom1">1 1 1 1 1 1 2 2 2 2 2 3 4 4 5 5 5 5 5 7 8 8 9 9 9 10 10 13 13</array><array dataType="xsd:integer" size="29" dictRef="g:atom2">2 3 4 13 15 16 5 6 12 13 16 13 10 13 7 8 9 11 12 9 9 10 10 11 12 13 14 15 16</array><array dataType="xsd:double" size="29" dictRef="cc:distance">1.3885 1.0722 1.074 2.2 2.5796 2.121 1.3885 1.0756 2.436 2.6902 2.379 2.5994 2.5615 2.2011 1.0722 1.074 2.1526 2.577 2.0751 2.4913 2.1468 2.4646 1.3885 1.0722 1.074 1.3885 1.0756 1.0722 1.074</array><array delimiter="|" dataType="xsd:string" size="29" dictRef="g:deriv">|calculate D2E/DX2 analytically|calculate D2E/DX2 analytically|calculate D2E/DX2 analytically|calculate D2E/DX2 analytically|calculate D2E/DX2 analytically|calculate D2E/DX2 analytically|calculate D2E/DX2 analytically|calculate D2E/DX2 analytically|calculate D2E/DX2 analytically|calculate D2E/DX2 analytically|calculate D2E/DX2 analytically|calculate D2E/DX2 analytically|calculate D2E/DX2 analytically|calculate D2E/DX2 analytically|calculate D2E/DX2 analytically|calculate D2E/DX2 analytically|calculate D2E/DX2 analytically|calculate D2E/DX2 analytically|calculate D2E/DX2 analytically|calculate D2E/DX2 analytically|calculate D2E/DX2 analytically|calculate D2E/DX2 analytically|calculate D2E/DX2 analytically|calculate D2E/DX2 analytically|calculate D2E/DX2 analytically|calculate D2E/DX2 analytically|calculate D2E/DX2 analytically|calculate D2E/DX2 analytically|calculate D2E/DX2 analytically|</array></list><list cmlx:templateRef="angle"><array dataType="xsd:string" size="18" dictRef="g:symbol">A1 A2 A3 A4 A5 A6 A7 A8 A9 A10 A11 A12 A13 A14 A15 A16 A17 A18</array><array dataType="xsd:integer" size="18" dictRef="g:atom1">2 2 3 1 1 5 2 2 7 10 10 11 9 9 13 10 10 15</array><array dataType="xsd:integer" size="18" dictRef="g:atom2">1 1 1 2 2 2 5 5 5 9 9 9 10 10 10 13 13 13</array><array dataType="xsd:integer" size="18" dictRef="g:atom3">3 4 4 5 6 6 7 8 8 11 12 12 13 14 14 15 16 16</array><array dataType="xsd:double" size="18" dictRef="cc:angle">121.4197 121.1212 117.4591 124.3054 117.8473 117.8473 121.4197 121.1212 117.4591 121.4197 121.1212 117.4591 124.3054 117.8473 117.8473 121.4197 121.1212 117.4591</array><array delimiter="|" dataType="xsd:string" size="18" dictRef="g:deriv">|calculate D2E/DX2 analytically|calculate D2E/DX2 analytically|calculate D2E/DX2 analytically|calculate D2E/DX2 analytically|calculate D2E/DX2 analytically|calculate D2E/DX2 analytically|calculate D2E/DX2 analytically|calculate D2E/DX2 analytically|calculate D2E/DX2 analytically|calculate D2E/DX2 analytically|calculate D2E/DX2 analytically|calculate D2E/DX2 analytically|calculate D2E/DX2 analytically|calculate D2E/DX2 analytically|calculate D2E/DX2 analytically|calculate D2E/DX2 analytically|calculate D2E/DX2 analytically|calculate D2E/DX2 analytically|</array></list><list cmlx:templateRef="dihed"><array dataType="xsd:string" size="15" dictRef="g:symbol">D1 D2 D3 D4 D5 D6 D7 D8 D9 D10 D11 D12 D13 D14 D15</array><array dataType="xsd:integer" size="15" dictRef="g:atom1">3 3 4 4 1 1 6 6 11 11 12 12 9 9 14</array><array dataType="xsd:integer" size="15" dictRef="g:atom2">1 1 1 1 2 2 2 2 9 9 9 9 10 10 10</array><array dataType="xsd:integer" size="15" dictRef="g:atom3">2 2 2 2 5 5 5 5 10 10 10 10 13 13 13</array><array dataType="xsd:integer" size="15" dictRef="g:atom4">5 6 5 6 7 8 7 8 13 14 13 14 15 16 15</array><array dataType="xsd:double" size="15" dictRef="cc:dihed">180.0 0.0 0.0 180.0 180.0 0.0 0.0 180.0 180.0 0.0 0.0 180.0 180.0 0.0 0.0</array><array delimiter="|" dataType="xsd:string" size="15" dictRef="g:deriv">|calculate D2E/DX2 analytically|calculate D2E/DX2 analytically|calculate D2E/DX2 analytically|calculate D2E/DX2 analytically|calculate D2E/DX2 analytically|calculate D2E/DX2 analytically|calculate D2E/DX2 analytically|calculate D2E/DX2 analytically|calculate D2E/DX2 analytically|calculate D2E/DX2 analytically|calculate D2E/DX2 analytically|calculate D2E/DX2 analytically|calculate D2E/DX2 analytically|calculate D2E/DX2 analytically|calculate D2E/DX2 analytically|</array></list> ! D16   D(14,10,13,16)       -180.0            calculate D2E/DX2 analytically  !</module> --------------------------------------------------------------------------------<module cmlx:lineCount="2" cmlx:templateRef="l103.trust"><scalar dataType="xsd:double" dictRef="g:trustrad">0.3</scalar><scalar dataType="xsd:double" dictRef="g:fncerr">1.0E-7</scalar><scalar dataType="xsd:double" dictRef="g:grderr">1.0E-7</scalar><scalar dataType="xsd:integer" dictRef="g:nstep">73</scalar><scalar dataType="xsd:integer" dictRef="g:allowedstep">100</scalar></module> Search for a saddle point of order  1. GradGradGradGradGradGradGradGradGradGradGradGradGradGradGradGradGradGrad</module><module cmlx:lineCount="22" cmlx:templateRef="l202.orient"><molecule id="mol.l202.orient" cmlx:templateRef="atom"><atomArray><atom id="a1" elementType="C" x3="0.0" y3="0.0" z3="0.0"><scalar dataType="xsd:integer" dictRef="cc:serial">1</scalar><scalar dataType="xsd:integer" dictRef="g:atomicType">0</scalar><scalar dataType="xsd:integer" dictRef="compchem:atomicNumber">6</scalar></atom><atom id="a2" elementType="C" x3="0.0" y3="0.0" z3="1.388549"><scalar dataType="xsd:integer" dictRef="cc:serial">2</scalar><scalar dataType="xsd:integer" dictRef="g:atomicType">0</scalar><scalar dataType="xsd:integer" dictRef="compchem:atomicNumber">6</scalar></atom><atom id="a3" elementType="H" x3="0.915007" y3="0.0" z3="-0.558954"><scalar dataType="xsd:integer" dictRef="cc:serial">3</scalar><scalar dataType="xsd:integer" dictRef="g:atomicType">0</scalar><scalar dataType="xsd:integer" dictRef="compchem:atomicNumber">1</scalar></atom><atom id="a4" elementType="H" x3="-0.919411" y3="0.0" z3="-0.555088"><scalar dataType="xsd:integer" dictRef="cc:serial">4</scalar><scalar dataType="xsd:integer" dictRef="g:atomicType">0</scalar><scalar dataType="xsd:integer" dictRef="compchem:atomicNumber">1</scalar></atom><atom id="a5" elementType="C" x3="-1.147005" y3="0.0" z3="2.17114"><scalar dataType="xsd:integer" dictRef="cc:serial">5</scalar><scalar dataType="xsd:integer" dictRef="g:atomicType">0</scalar><scalar dataType="xsd:integer" dictRef="compchem:atomicNumber">6</scalar></atom><atom id="a6" elementType="H" x3="0.951079" y3="0.0" z3="1.891"><scalar dataType="xsd:integer" dictRef="cc:serial">6</scalar><scalar dataType="xsd:integer" dictRef="g:atomicType">0</scalar><scalar dataType="xsd:integer" dictRef="compchem:atomicNumber">1</scalar></atom><atom id="a7" elementType="H" x3="-1.093026" y3="0.0" z3="3.242006"><scalar dataType="xsd:integer" dictRef="cc:serial">7</scalar><scalar dataType="xsd:integer" dictRef="g:atomicType">0</scalar><scalar dataType="xsd:integer" dictRef="compchem:atomicNumber">1</scalar></atom><atom id="a8" elementType="H" x3="-2.123716" y3="0.0" z3="1.724515"><scalar dataType="xsd:integer" dictRef="cc:serial">8</scalar><scalar dataType="xsd:integer" dictRef="g:atomicType">0</scalar><scalar dataType="xsd:integer" dictRef="compchem:atomicNumber">1</scalar></atom><atom id="a9" elementType="C" x3="-1.672217" y3="2.080567" z3="2.000138"><scalar dataType="xsd:integer" dictRef="cc:serial">9</scalar><scalar dataType="xsd:integer" dictRef="g:atomicType">0</scalar><scalar dataType="xsd:integer" dictRef="compchem:atomicNumber">6</scalar></atom><atom id="a10" elementType="C" x3="-1.669382" y3="2.15253" z3="0.613458"><scalar dataType="xsd:integer" dictRef="cc:serial">10</scalar><scalar dataType="xsd:integer" dictRef="g:atomicType">0</scalar><scalar dataType="xsd:integer" dictRef="compchem:atomicNumber">6</scalar></atom><atom id="a11" elementType="H" x3="-2.586995" y3="2.101639" z3="2.559069"><scalar dataType="xsd:integer" dictRef="cc:serial">11</scalar><scalar dataType="xsd:integer" dictRef="g:atomicType">0</scalar><scalar dataType="xsd:integer" dictRef="compchem:atomicNumber">1</scalar></atom><atom id="a12" elementType="H" x3="-0.755316" y3="2.001517" z3="2.553746"><scalar dataType="xsd:integer" dictRef="cc:serial">12</scalar><scalar dataType="xsd:integer" dictRef="g:atomicType">0</scalar><scalar dataType="xsd:integer" dictRef="compchem:atomicNumber">1</scalar></atom><atom id="a13" elementType="C" x3="-0.522497" y3="2.130361" z3="-0.168994"><scalar dataType="xsd:integer" dictRef="cc:serial">13</scalar><scalar dataType="xsd:integer" dictRef="g:atomicType">0</scalar><scalar dataType="xsd:integer" dictRef="compchem:atomicNumber">6</scalar></atom><atom id="a14" elementType="H" x3="-2.618012" y3="2.230584" z3="0.112441"><scalar dataType="xsd:integer" dictRef="cc:serial">14</scalar><scalar dataType="xsd:integer" dictRef="g:atomicType">0</scalar><scalar dataType="xsd:integer" dictRef="compchem:atomicNumber">1</scalar></atom><atom id="a15" elementType="H" x3="-0.574209" y3="2.188812" z3="-1.238376"><scalar dataType="xsd:integer" dictRef="cc:serial">15</scalar><scalar dataType="xsd:integer" dictRef="g:atomicType">0</scalar><scalar dataType="xsd:integer" dictRef="compchem:atomicNumber">1</scalar></atom><atom id="a16" elementType="H" x3="0.451841" y3="2.053799" z3="0.276252"><scalar dataType="xsd:integer" dictRef="cc:serial">16</scalar><scalar dataType="xsd:integer" dictRef="g:atomicType">0</scalar><scalar dataType="xsd:integer" dictRef="compchem:atomicNumber">1</scalar></atom></atomArray><formula formalCharge="0" concise="C 6 H 10"><atomArray elementType="C H" count="6.0 10.0"/></formula><bondArray><bond atomRefs2="a1 a2" id="a1_a2" order="S"/><bond atomRefs2="a1 a3" id="a1_a3" order="S"/><bond atomRefs2="a1 a4" id="a1_a4" order="S"/><bond atomRefs2="a2 a5" id="a2_a5" order="S"/><bond atomRefs2="a2 a6" id="a2_a6" order="S"/><bond atomRefs2="a5 a7" id="a5_a7" order="S"/><bond atomRefs2="a5 a8" id="a5_a8" order="S"/><bond atomRefs2="a9 a10" id="a9_a10" order="S"/><bond atomRefs2="a9 a11" id="a9_a11" order="S"/><bond atomRefs2="a9 a12" id="a9_a12" order="S"/><bond atomRefs2="a10 a13" id="a10_a13" order="S"/><bond atomRefs2="a10 a14" id="a10_a14" order="S"/><bond atomRefs2="a13 a15" id="a13_a15" order="S"/><bond atomRefs2="a13 a16" id="a13_a16" order="S"/></bondArray><property dictRef="cml:molmass"><scalar dataType="xsd:double" units="unit:dalton" xmlns:unit="http://www.xml-cml.org/unit/si/">82.14359999999999</scalar></property></molecule></module><module cmlx:lineCount="39" cmlx:templateRef="l202.distmat"><array dataType="xsd:double" size="135" dictRef="cc:distance">0.0 1.388549 0.0 1.072225 2.151745 0.0 1.073983 2.150126 1.834422 0.0 2.455498 1.388549 3.421302 2.735712 0.0 2.116703 1.075643 2.45022 3.079299 2.116703 0.0 3.421302 2.151745 4.298778 3.801061 1.072225 2.45022 0.0 2.735712 2.150126 3.801061 2.578166 1.073983 3.079299 1.834422 0.0 3.335509 2.73845 4.19183 3.380038 2.152637 3.349977 2.491276 2.14676 0.0 2.792231 2.832136 3.561882 2.561512 2.707885 3.623854 3.445989 2.4646 1.388549 0.0 4.202174 3.53264 5.138382 4.110438 2.577003 4.169073 2.66744 2.308245 1.072225 2.151745 0.0 3.331395 2.436033 4.060166 3.70106 2.075061 2.712394 2.14332 2.562462 1.073983 2.150126 1.834422 0.0 2.2 2.690238 2.599408 2.201147 3.225628 3.309598 4.061879 3.269207 2.455498 1.388549 3.421302 2.735712 0.0 3.44124 3.668507 4.231843 2.882073 3.373071 4.569156 4.134642 2.796179 2.116703 1.075643 2.45022 3.079299 2.116703 0.0 2.579572 3.467182 2.733181 2.318824 4.091918 4.112225 5.013371 3.996322 3.421302 2.151745 4.298778 3.801061 1.072225 2.45022 0.0 2.120982 2.378961 2.26499 2.605676 3.219472 2.659838 3.924334 3.598478 2.735712 2.150126 3.801061 2.578166 1.073983 3.079299 1.834422</array></module><module cmlx:lineCount="6" cmlx:templateRef="l202.stoich"><scalar dataType="xsd:string" dictRef="cc:formula" cmlx:templateRef="stoich">C6H10</scalar><scalar dataType="xsd:string" dictRef="cc:frameworkgroup" cmlx:templateRef="framework">C1[X(C6H10)]</scalar><scalar dataType="xsd:integer" dictRef="cc:degfreedom" cmlx:templateRef="degfreedom">42</scalar><scalar dataType="xsd:string" dictRef="cc:pointgroup">C1</scalar><scalar dataType="xsd:integer" dictRef="cc:operatorcount">1</scalar><scalar dataType="xsd:string" dictRef="cc:largestabelian">C1</scalar><scalar dataType="xsd:integer" dictRef="cc:operatorcount">1</scalar><scalar dataType="xsd:string" dictRef="cc:largestconciseabelian">C1</scalar><scalar dataType="xsd:integer" dictRef="cc:operatorcount">1</scalar></module><module cmlx:lineCount="22" cmlx:templateRef="l202.orient"><molecule id="a16" cmlx:templateRef="atom"><atomArray><atom id="a1" elementType="C" x3="-1.459957" y3="0.774987" z3="0.300598"><scalar dataType="xsd:integer" dictRef="cc:serial">1</scalar><scalar dataType="xsd:integer" dictRef="g:atomicType">0</scalar><scalar dataType="xsd:integer" dictRef="compchem:atomicNumber">6</scalar></atom><atom id="a2" elementType="C" x3="-1.291986" y3="-0.48339" z3="-0.261844"><scalar dataType="xsd:integer" dictRef="cc:serial">2</scalar><scalar dataType="xsd:integer" dictRef="g:atomicType">0</scalar><scalar dataType="xsd:integer" dictRef="compchem:atomicNumber">6</scalar></atom><atom id="a3" elementType="H" x3="-2.067359" y3="1.521772" z3="-0.171677"><scalar dataType="xsd:integer" dictRef="cc:serial">3</scalar><scalar dataType="xsd:integer" dictRef="g:atomicType">0</scalar><scalar dataType="xsd:integer" dictRef="compchem:atomicNumber">1</scalar></atom><atom id="a4" elementType="H" x3="-0.984721" y3="1.036652" z3="1.227486"><scalar dataType="xsd:integer" dictRef="cc:serial">4</scalar><scalar dataType="xsd:integer" dictRef="g:atomicType">0</scalar><scalar dataType="xsd:integer" dictRef="compchem:atomicNumber">1</scalar></atom><atom id="a5" elementType="C" x3="-0.520669" y3="-1.493756" z3="0.296995"><scalar dataType="xsd:integer" dictRef="cc:serial">5</scalar><scalar dataType="xsd:integer" dictRef="g:atomicType">0</scalar><scalar dataType="xsd:integer" dictRef="compchem:atomicNumber">6</scalar></atom><atom id="a6" elementType="H" x3="-1.792271" y3="-0.689038" z3="-1.191592"><scalar dataType="xsd:integer" dictRef="cc:serial">6</scalar><scalar dataType="xsd:integer" dictRef="g:atomicType">0</scalar><scalar dataType="xsd:integer" dictRef="compchem:atomicNumber">1</scalar></atom><atom id="a7" elementType="H" x3="-0.422972" y3="-2.45006" z3="-0.177985"><scalar dataType="xsd:integer" dictRef="cc:serial">7</scalar><scalar dataType="xsd:integer" dictRef="g:atomicType">0</scalar><scalar dataType="xsd:integer" dictRef="compchem:atomicNumber">1</scalar></atom><atom id="a8" elementType="H" x3="0.00149" y3="-1.34543" z3="1.223703"><scalar dataType="xsd:integer" dictRef="cc:serial">8</scalar><scalar dataType="xsd:integer" dictRef="g:atomicType">0</scalar><scalar dataType="xsd:integer" dictRef="compchem:atomicNumber">1</scalar></atom><atom id="a9" elementType="C" x3="1.42949" y3="-0.787336" z3="-0.278936"><scalar dataType="xsd:integer" dictRef="cc:serial">9</scalar><scalar dataType="xsd:integer" dictRef="g:atomicType">0</scalar><scalar dataType="xsd:integer" dictRef="compchem:atomicNumber">6</scalar></atom><atom id="a10" elementType="C" x3="1.317525" y3="0.493935" z3="0.244397"><scalar dataType="xsd:integer" dictRef="cc:serial">10</scalar><scalar dataType="xsd:integer" dictRef="g:atomicType">0</scalar><scalar dataType="xsd:integer" dictRef="compchem:atomicNumber">6</scalar></atom><atom id="a11" elementType="H" x3="2.053577" y3="-1.527058" z3="0.182578"><scalar dataType="xsd:integer" dictRef="cc:serial">11</scalar><scalar dataType="xsd:integer" dictRef="g:atomicType">0</scalar><scalar dataType="xsd:integer" dictRef="compchem:atomicNumber">1</scalar></atom><atom id="a12" elementType="H" x3="0.892447" y3="-1.074509" z3="-1.163557"><scalar dataType="xsd:integer" dictRef="cc:serial">12</scalar><scalar dataType="xsd:integer" dictRef="g:atomicType">0</scalar><scalar dataType="xsd:integer" dictRef="compchem:atomicNumber">1</scalar></atom><atom id="a13" elementType="C" x3="0.528597" y3="1.496798" z3="-0.303259"><scalar dataType="xsd:integer" dictRef="cc:serial">13</scalar><scalar dataType="xsd:integer" dictRef="g:atomicType">0</scalar><scalar dataType="xsd:integer" dictRef="compchem:atomicNumber">6</scalar></atom><atom id="a14" elementType="H" x3="1.878852" y3="0.724787" z3="1.132443"><scalar dataType="xsd:integer" dictRef="cc:serial">14</scalar><scalar dataType="xsd:integer" dictRef="g:atomicType">0</scalar><scalar dataType="xsd:integer" dictRef="compchem:atomicNumber">1</scalar></atom><atom id="a15" elementType="H" x3="0.476406" y3="2.471718" z3="0.139995"><scalar dataType="xsd:integer" dictRef="cc:serial">15</scalar><scalar dataType="xsd:integer" dictRef="g:atomicType">0</scalar><scalar dataType="xsd:integer" dictRef="compchem:atomicNumber">1</scalar></atom><atom id="a16" elementType="H" x3="-0.053452" y3="1.323732" z3="-1.189096"><scalar dataType="xsd:integer" dictRef="cc:serial">16</scalar><scalar dataType="xsd:integer" dictRef="g:atomicType">0</scalar><scalar dataType="xsd:integer" dictRef="compchem:atomicNumber">1</scalar></atom></atomArray><formula formalCharge="0" concise="C 6 H 10"><atomArray elementType="C H" count="6.0 10.0"/></formula><bondArray><bond atomRefs2="a1 a2" id="a1_a2" order="S"/><bond atomRefs2="a1 a3" id="a1_a3" order="S"/><bond atomRefs2="a1 a4" id="a1_a4" order="S"/><bond atomRefs2="a2 a5" id="a2_a5" order="S"/><bond atomRefs2="a2 a6" id="a2_a6" order="S"/><bond atomRefs2="a5 a7" id="a5_a7" order="S"/><bond atomRefs2="a5 a8" id="a5_a8" order="S"/><bond atomRefs2="a9 a10" id="a9_a10" order="S"/><bond atomRefs2="a9 a11" id="a9_a11" order="S"/><bond atomRefs2="a9 a12" id="a9_a12" order="S"/><bond atomRefs2="a10 a13" id="a10_a13" order="S"/><bond atomRefs2="a10 a14" id="a10_a14" order="S"/><bond atomRefs2="a13 a15" id="a13_a15" order="S"/><bond atomRefs2="a13 a16" id="a13_a16" order="S"/></bondArray><property dictRef="cml:molmass"><scalar dataType="xsd:double" units="unit:dalton" xmlns:unit="http://www.xml-cml.org/unit/si/">82.14359999999999</scalar></property></molecule></module><module cmlx:lineCount="1" cmlx:templateRef="l202.rotconst"><array dataType="xsd:double" size="3" dictRef="cc:rotconst" cmlx:templateRef="rotconst">4.5375939 3.8827431 2.3728489</array></module><module cmlx:lineCount="9" cmlx:templateRef="l301.basis"><scalar dataType="xsd:string" dictRef="cc:basis">3-21G</scalar><scalar dataType="xsd:string" dictRef="cc:diffuse">(6D, 7F)</scalar><list cmlx:lineCount="1" cmlx:templateRef="symmadapt"><array dataType="xsd:integer" dictRef="cc:adapted" size="1">74</array><array dataType="xsd:string" dictRef="cc:symm" size="1">A</array></list> Raffenetti 1 integral format. Two-electron integral symmetry is turned on.    74 basis functions,   120 primitive gaussians,    74 cartesian basis functions    23 alpha electrons       23 beta electrons       nuclear repulsion energy       230.0892262967 Hartrees. NAtoms=   16 NActive=   16 NUniq=   16 SFac= 7.50D-01 NAtFMM=   80 NAOKFM=F Big=F</module><module cmlx:lineCount="1" cmlx:templateRef="l302.basis"><list cmlx:templateRef="onee"><scalar dataType="xsd:string" dictRef="g:onee">One-electron integrals</scalar></list></module> NBasis=    74 RedAO= T  NBF=    74 NBsUse=    74 1.00D-06 NBFU=    74 Harris functional with IExCor=  205 diagonalized for initial guess. ExpMin= 1.83D-01 ExpMax= 1.72D+02 ExpMxC= 1.72D+02 IAcc=1 IRadAn=         1 AccDes= 0.00D+00 HarFok:  IExCor=  205 AccDes= 0.00D+00 IRadAn=         1 IDoV= 1 ScaDFX=  1.000000  1.000000  1.000000  1.000000 FoFCou: FMM=F IPFlag=           0 FMFlag=      100000 FMFlg1=           0         NFxFlg=           0 DoJE=T BraDBF=F KetDBF=T FulRan=T         Omega=  0.000000  0.000000  1.000000  0.000000  0.000000 ICntrl=     500 IOpCl=  0         NMat0=    1 NMatS0=    1 NMatT0=    0 NMatD0=    1 NMtDS0=    0 NMtDT0=    0         I1Cent=           4 NGrid=           0. Petite list used in FoFCou. Initial guess orbital symmetries:       Occupied  (A) (A) (A) (A) (A) (A) (A) (A) (A) (A) (A) (A)                 (A) (A) (A) (A) (A) (A) (A) (A) (A) (A) (A)       Virtual   (A) (A) (A) (A) (A) (A) (A) (A) (A) (A) (A) (A)                 (A) (A) (A) (A) (A) (A) (A) (A) (A) (A) (A) (A)                 (A) (A) (A) (A) (A) (A) (A) (A) (A) (A) (A) (A)                 (A) (A) (A) (A) (A) (A) (A) (A) (A) (A) (A) (A)                 (A) (A) (A) The electronic state of the initial guess is 1-A. Requested convergence on RMS density matrix=1.00D-08 within 128 cycles. Requested convergence on MAX density matrix=1.00D-06. Requested convergence on             energy=1.00D-06. No special actions if energy rises. Keep R1 ints in memory in canonical form, NReq=4687320. SCF Done:  E(RHF) =  -231.562926208     A.U. after   14 cycles             Convg  =    0.1827D-08             -V/T =  2.0016<module cmlx:lineCount="1" cmlx:templateRef="l801"/> NBasis=    74 NAE=    23 NBE=    23 NFC=     0 NFV=     0 NROrb=     74 NOA=    23 NOB=    23 NVA=    51 NVB=    51 Symmetrizing basis deriv contribution to polar: IMax=3 JMax=2 DiffMx= 0.00D+00 G2DrvN: will do    17 centers at a time, making    1 passes doing MaxLOS=1. Calling FoFCou, ICntrl=  3107 FMM=F I1Cent=   0 AccDes= 0.00D+00. FoFDir/FoFCou used for L=0 through L=1. End of G2Drv Frequency-dependent properties file   721 does not exist. End of G2Drv Frequency-dependent properties file   722 does not exist.          IDoAtm=1111111111111111          Differentiating once with respect to nuclear coordinates.          Keep R1 ints in memory in canonical form, NReq=4652799.          There are    51 degrees of freedom in the 1st order CPHF.  IDoFFX=5.     45 vectors produced by pass  0 Test12= 2.30D-11 1.96D-07 XBig12= 7.25D-02 1.33D-01. AX will form    45 AO Fock derivatives at one time.     45 vectors produced by pass  1 Test12= 2.30D-11 1.96D-07 XBig12= 3.73D-03 1.78D-02.     45 vectors produced by pass  2 Test12= 2.30D-11 1.96D-07 XBig12= 3.19D-05 9.45D-04.     45 vectors produced by pass  3 Test12= 2.30D-11 1.96D-07 XBig12= 2.15D-07 8.38D-05.     45 vectors produced by pass  4 Test12= 2.30D-11 1.96D-07 XBig12= 1.38D-09 6.55D-06.      5 vectors produced by pass  5 Test12= 2.30D-11 1.96D-07 XBig12= 7.75D-12 4.51D-07. Inverted reduced A of dimension   230 with in-core refinement. End of Minotr Frequency-dependent properties file   721 does not exist. End of Minotr Frequency-dependent properties file   722 does not exist.<module cmlx:lineCount="169" cmlx:templateRef="l601.popanal"> Orbital symmetries:<module cmlx:lineCount="2" cmlx:templateRef="l4601.occupied"><list cmlx:templateRef="occ"><scalar dataType="xsd:string" dictRef="g:occorbs">(A) (A) (A) (A) (A) (A) (A) (A) (A) (A) (A) (A)</scalar></list><list cmlx:templateRef="occ"><scalar dataType="xsd:string" dictRef="g:occorbs">(A) (A) (A) (A) (A) (A) (A) (A) (A) (A) (A)</scalar></list></module><module cmlx:lineCount="5" cmlx:templateRef="l4601.virtual"><list cmlx:templateRef="virt"><scalar dataType="xsd:string" dictRef="g:virtorbs">(A) (A) (A) (A) (A) (A) (A) (A) (A) (A) (A) (A)</scalar></list><list cmlx:templateRef="virt"><scalar dataType="xsd:string" dictRef="g:virtorbs">(A) (A) (A) (A) (A) (A) (A) (A) (A) (A) (A) (A)</scalar><scalar dataType="xsd:string" dictRef="g:virtorbs">(A) (A) (A) (A) (A) (A) (A) (A) (A) (A) (A) (A)</scalar><scalar dataType="xsd:string" dictRef="g:virtorbs">(A) (A) (A) (A) (A) (A) (A) (A) (A) (A) (A) (A)</scalar><scalar dataType="xsd:string" dictRef="g:virtorbs">(A) (A) (A)</scalar></list></module><module cmlx:lineCount="1" cmlx:templateRef="l601.state"><scalar dataType="xsd:string" dictRef="g:l601.state">1-A.</scalar></module><array dataType="xsd:double" size="23" dictRef="g:alphaocc">-11.17372 -11.17155 -11.17072 -11.16756 -11.15979 -11.15884 -1.09988 -1.03249 -0.95946 -0.87243 -0.77366 -0.74625 -0.66115 -0.64269 -0.61559 -0.58615 -0.54299 -0.52324 -0.51557 -0.50266 -0.45588 -0.31169 -0.27123</array><array dataType="xsd:double" size="51" dictRef="g:alphavirt">0.13325 0.17156 0.27284 0.28414 0.29663 0.29753 0.32279 0.36276 0.36833 0.37382 0.38576 0.39405 0.41271 0.53232 0.55013 0.58545 0.58729 0.86297 0.90721 0.92147 0.93162 0.99468 1.00502 1.02693 1.06334 1.06567 1.07151 1.13672 1.17801 1.19538 1.21895 1.28352 1.30397 1.32574 1.33941 1.36988 1.37494 1.4081 1.4224 1.43091 1.48477 1.55488 1.65206 1.65834 1.72223 1.73248 1.85315 2.01879 2.22568 2.23865 2.54768</array><module cmlx:lineCount="16" cmlx:templateRef="l601.alphabetaeigen"/><module cmlx:lineCount="51" cmlx:templateRef="l601.condensed"><array dataType="xsd:double" size="16" dictRef="x:floatArr">5.37147 0.446881 0.392069 0.401232 -0.09257 -0.038654 0.00232 0.001733 -0.01096 -0.033842 5.1E-5 4.31E-4 0.031076 1.74E-4 -0.003838 -0.024492</array><array dataType="xsd:double" size="16" dictRef="x:floatArr">0.446881 5.322926 -0.047253 -0.048944 0.433966 0.404559 -0.046971 -0.048667 -0.043266 -0.038321 0.001186 -0.012346 -0.047936 3.5E-5 0.001149 -0.01421</array><array dataType="xsd:double" size="16" dictRef="x:floatArr">0.392069 -0.047253 0.456765 -0.019969 0.002318 -0.00124 -4.4E-5 -2.0E-6 5.3E-5 9.29E-4 0.0 -2.0E-6 -0.00453 -7.0E-6 -1.17E-4 -0.001179</array><array dataType="xsd:double" size="16" dictRef="x:floatArr">0.401232 -0.048944 -0.019969 0.440299 0.001656 0.001766 -4.0E-6 0.001252 3.64E-4 -0.007492 0.0 3.9E-5 -0.017591 3.48E-4 -0.001165 0.00119</array><array dataType="xsd:double" size="16" dictRef="x:floatArr">-0.09257 0.433966 0.002318 0.001656 5.407654 -0.039111 0.393074 0.40285 0.039762 -0.045923 -0.004605 -0.027842 -0.015018 2.38E-4 1.1E-4 4.87E-4</array><array dataType="xsd:double" size="16" dictRef="x:floatArr">-0.038654 0.404559 -0.00124 0.001766 -0.039111 0.451565 -0.001213 0.001771 2.44E-4 1.4E-4 -9.0E-6 5.59E-4 2.63E-4 1.0E-6 -1.0E-5 4.74E-4</array><array dataType="xsd:double" size="16" dictRef="x:floatArr">0.00232 -0.046971 -4.4E-5 -4.0E-6 0.393074 -0.001213 0.457714 -0.019514 -0.008114 0.001334 -1.5E-4 -0.002169 1.23E-4 -1.3E-5 0.0 -6.0E-6</array><array dataType="xsd:double" size="16" dictRef="x:floatArr">0.001733 -0.048667 -2.0E-6 0.001252 0.40285 0.001771 -0.019514 0.442445 -0.023023 -0.010576 -0.001219 0.001478 6.26E-4 4.18E-4 -2.0E-6 5.9E-5</array><array dataType="xsd:double" size="16" dictRef="x:floatArr">-0.01096 -0.043266 5.3E-5 3.64E-4 0.039762 2.44E-4 -0.008114 -0.023023 5.394604 0.430387 0.392371 0.405372 -0.091727 -0.039267 0.002321 0.001786</array><array dataType="xsd:double" size="16" dictRef="x:floatArr">-0.033842 -0.038321 9.29E-4 -0.007492 -0.045923 1.4E-4 0.001334 -0.010576 0.430387 5.301608 -0.046549 -0.04887 0.447724 0.40507 -0.046698 -0.049918</array><array dataType="xsd:double" size="16" dictRef="x:floatArr">5.1E-5 0.001186 0.0 0.0 -0.004605 -9.0E-6 -1.5E-4 -0.001219 0.392371 -0.046549 0.45659 -0.020179 0.002287 -0.001268 -4.3E-5 -1.0E-6</array><array dataType="xsd:double" size="16" dictRef="x:floatArr">4.31E-4 -0.012346 -2.0E-6 3.9E-5 -0.027842 5.59E-4 -0.002169 0.001478 0.405372 -0.04887 -0.020179 0.4476 0.001907 0.001768 -4.0E-6 0.001252</array><array dataType="xsd:double" size="16" dictRef="x:floatArr">0.031076 -0.047936 -0.00453 -0.017591 -0.015018 2.63E-4 1.23E-4 6.26E-4 -0.091727 0.447724 0.002287 0.001907 5.377709 -0.038083 0.392295 0.406825</array><array dataType="xsd:double" size="16" dictRef="x:floatArr">1.74E-4 3.5E-5 -7.0E-6 3.48E-4 2.38E-4 1.0E-6 -1.3E-5 4.18E-4 -0.039267 0.40507 -0.001268 0.001768 -0.038083 0.45181 -0.001324 0.001776</array><array dataType="xsd:double" size="16" dictRef="x:floatArr">-0.003838 0.001149 -1.17E-4 -0.001165 1.1E-4 -1.0E-5 0.0 -2.0E-6 0.002321 -0.046698 -4.3E-5 -4.0E-6 0.392295 -0.001324 0.458349 -0.020494</array><array dataType="xsd:double" size="12" dictRef="x:floatArr">-0.024492 -0.01421 -0.001179 0.00119 4.87E-4 4.74E-4 -6.0E-6 5.9E-5 0.001786 -0.049918 -1.0E-6 0.001252</array></module><list cmlx:templateRef="popanal"><scalar dataType="xsd:string" dictRef="x:popanal">16  H    0.406825   0.001776  -0.020494   0.450138</scalar></list><module cmlx:lineCount="68" cmlx:templateRef="mulliken"><module cmlx:lineCount="19" cmlx:templateRef="l601.mullik"><scalar dataType="xsd:string" dictRef="g:title">Mulliken atomic charges:</scalar><scalar dataType="xsd:integer" dictRef="cc:serial">1</scalar> Sum of Mulliken atomic charges =   0.00000</module> Mulliken charges with hydrogens summed into heavy atoms:              1     1  C    0.026148     2  C   -0.043895     5  C    0.016956     9  C    0.021637    10  C   -0.040679    13  C    0.019834 Sum of Mulliken charges with hydrogens summed into heavy atoms =   0.00000<module cmlx:lineCount="19" cmlx:templateRef="l601.mullik"><scalar dataType="xsd:string" dictRef="g:title">APT atomic charges:</scalar><scalar dataType="xsd:integer" dictRef="cc:serial">1</scalar><list cmlx:lineCount="16" cmlx:templateRef="row"><array dataType="xsd:integer" dictRef="cc:serial" size="16">1 2 3 4 5 6 7 8 9 10 11 12 13 14 15 16</array><array dataType="xsd:string" dictRef="cc:elementType" size="16">C C H H C H H H C C H H C H H H</array><array dataType="xsd:double" dictRef="x:charge" size="16">-0.838345 -0.522411 0.542679 0.319205 -0.833334 0.499559 0.521932 0.31465 -0.827938 -0.537079 0.546298 0.301145 -0.835915 0.511827 0.53548 0.302247</array></list><scalar dataType="xsd:string" dictRef="x:type">APT</scalar><scalar dataType="xsd:double" dictRef="x:charge.sum">0.0</scalar></module><module cmlx:lineCount="19" cmlx:templateRef="l601.mullik"><scalar dataType="xsd:string" dictRef="g:title">APT Atomic charges with hydrogens summed into heavy atoms:</scalar><scalar dataType="xsd:integer" dictRef="cc:serial">1</scalar><list cmlx:lineCount="16" cmlx:templateRef="row"><array dataType="xsd:integer" dictRef="cc:serial" size="16">1 2 3 4 5 6 7 8 9 10 11 12 13 14 15 16</array><array dataType="xsd:string" dictRef="cc:elementType" size="16">C C H H C H H H C C H H C H H H</array><array dataType="xsd:double" dictRef="x:charge" size="16">0.023539 -0.022852 0.0 0.0 0.003248 0.0 0.0 0.0 0.019505 -0.025252 0.0 0.0 0.001812 0.0 0.0 0.0</array></list><scalar dataType="xsd:string" dictRef="x:type">APT</scalar><scalar dataType="xsd:double" dictRef="x:charge.sum">0.0</scalar></module><scalar dataType="xsd:double" dictRef="g:electextent2">581.6151</scalar> Charge=              0.0000 electrons</module><module cmlx:lineCount="18" cmlx:templateRef="multipole"><array dataType="xsd:double" size="3" dictRef="cc:dipole">-0.041 -0.0248 0.0537</array><scalar dataType="xsd:double" dictRef="x:dipole">0.072</scalar><array dataType="xsd:double" size="3" dictRef="cc:quadrupole">-43.3252 -36.4749 -38.6393</array><array dataType="xsd:double" size="3" dictRef="cc:quadrupole">-3.5282 4.6007 1.9054</array><array dataType="xsd:double" size="6" dictRef="cc:quadrupole">-3.8454 3.0049 0.8405 -3.5282 4.6007 1.9054</array><array dataType="xsd:double" size="10" dictRef="cc:octapole">0.6229 0.12 0.3744 0.2017 0.5904 0.4549 -0.5179 -0.1563 -0.0104 -0.026</array><array dataType="xsd:double" size="15" dictRef="cc:hexadecapole">-402.0761 -317.2015 -87.6153 -16.9391 22.7898 -12.0928 10.2085 9.1862 3.8646 -119.1543 -79.4733 -71.7304 1.8955 8.0582 -1.5736</array></module></module><module cmlx:lineCount="2" cmlx:templateRef="l601.polariz"><list cmlx:templateRef="l601.pol"><scalar dataType="xsd:double" dictRef="g:l601.pol.exact">0.0</scalar><scalar dataType="xsd:double" dictRef="g:l601.pol">0.0</scalar><scalar dataType="xsd:double" dictRef="g:l601.pol">0.0</scalar><scalar dataType="xsd:double" dictRef="g:l601.pol">0.0</scalar><scalar dataType="xsd:double" dictRef="g:l601.pol">0.0</scalar><scalar dataType="xsd:double" dictRef="g:l601.pol">0.0</scalar></list><list cmlx:templateRef="l601.pol"><scalar dataType="xsd:double" dictRef="g:l601.pol.approx">75.015</scalar><scalar dataType="xsd:double" dictRef="g:l601.pol">-3.231</scalar><scalar dataType="xsd:double" dictRef="g:l601.pol">76.272</scalar><scalar dataType="xsd:double" dictRef="g:l601.pol">3.209</scalar><scalar dataType="xsd:double" dictRef="g:l601.pol">1.6</scalar><scalar dataType="xsd:double" dictRef="g:l601.pol">41.955</scalar></list></module> Calling FoFJK, ICntrl=    100147 FMM=F ISym2X=0 I1Cent= 0 IOpClX= 0 NMat=1 NMatS=1 NMatT=0. ***** Axes restored to original set ***** ------------------------------------------------------------------- Center     Atomic                   Forces (Hartrees/Bohr) Number     Number              X              Y              Z -------------------------------------------------------------------      1        6          -0.018415785    0.021512331    0.015681298      2        6          -0.003398022   -0.047827899   -0.006008435      3        1          -0.000151910   -0.003580107    0.000151492      4        1           0.005508047   -0.026275526    0.001122131      5        6          -0.005616676    0.021947396   -0.016857350      6        1           0.000672447    0.001836197    0.000231659      7        1          -0.000010624   -0.008275610   -0.000429903      8        1           0.004532539   -0.030757359    0.004139466      9        6           0.018953090   -0.023530246   -0.008456427     10        6           0.009430318    0.039651617   -0.002322164     11        1           0.000293846    0.003549051    0.000119445     12        1          -0.005721511    0.035711344    0.000307420     13        6          -0.001379011   -0.019800163    0.016554148     14        1          -0.000565154   -0.001983186   -0.000312044     15        1           0.000136903    0.005081451    0.000380405     16        1          -0.004268498    0.032740711   -0.004301141 ------------------------------------------------------------------- Cartesian Forces:  Max     0.047827899 RMS     0.015646014<module cmlx:lineCount="105" cmlx:templateRef="l103"><list cmlx:templateRef="berny"><scalar dataType="xsd:string" dictRef="g:optimization">Internal  Forces:  Max     0.020449167 RMS     0.008236854</scalar></list> Search for a saddle point. Step number   1 out of a maximum of   73 All quantities printed in internal units (Hartrees-Bohrs-Radians) Swaping is turned off. Second derivative matrix not updated -- analytic derivatives used.     Eigenvalues ---   -0.05292   0.00660   0.01261   0.01578   0.01701     Eigenvalues ---    0.01864   0.02180   0.02252   0.02330   0.02430     Eigenvalues ---    0.02621   0.03075   0.03563   0.03636   0.04445     Eigenvalues ---    0.05170   0.08647   0.09877   0.11234   0.11532     Eigenvalues ---    0.12296   0.12412   0.12801   0.13654   0.15881     Eigenvalues ---    0.16268   0.18986   0.21513   0.30176   0.36488     Eigenvalues ---    0.36613   0.37739   0.38158   0.39131   0.39172     Eigenvalues ---    0.39481   0.39763   0.40318   0.40415   0.47116     Eigenvalues ---    0.48955   0.495051000.000001000.000001000.00000     Eigenvalues --- 1000.000001000.000001000.000001000.000001000.00000     Eigenvalues --- 1000.000001000.000001000.000001000.000001000.00000     Eigenvalues --- 1000.000001000.000001000.000001000.000001000.00000     Eigenvalues --- 1000.000001000.000001000.00000 Eigenvectors required to have negative eigenvalues:                          R17       R4        R18       R20       R12   1                    0.39582  -0.33887   0.27132   0.24336  -0.24278                          D5        R5        D7        D10       D2   1                    0.21648  -0.21346   0.19853   0.18699   0.18189<module cmlx:lineCount="3" cmlx:templateRef="rfo"> RFO step:  Lambda0=4.798307216D-04 Lambda=-4.25840456D-02. Linear search not attempted -- option 19 set. Maximum step size (   0.300) exceeded in Quadratic search.</module>    -- Step size scaled by   0.364 Iteration  1 RMS(Cart)=  0.03265481 RMS(Int)=  0.00106024 Iteration  2 RMS(Cart)=  0.00090351 RMS(Int)=  0.00055989 Iteration  3 RMS(Cart)=  0.00000073 RMS(Int)=  0.00055989<module cmlx:lineCount="65" cmlx:templateRef="l103.deltas"><list cmlx:lineCount="63" cmlx:templateRef="delta"><array dataType="xsd:string" dictRef="cc:variable" size="63">R1 R2 R3 R4 R5 R6 R7 R8 R9 R10 R11 R12 R13 R14 R15 R16 R17 R18 R19 R20 R21 R22 R23 R24 R25 R26 R27 R28 R29 A1 A2 A3 A4 A5 A6 A7 A8 A9 A10 A11 A12 A13 A14 A15 A16 A17 A18 D1 D2 D3 D4 D5 D6 D7 D8 D9 D10 D11 D12 D13 D14 D15 D16</array><array dataType="xsd:double" dictRef="g:lastval" size="63">2.62398 2.02621 2.02953 4.1574 4.87468 4.00807 2.62398 2.03267 4.60343 5.08381 4.49558 4.91217 4.84056 4.15956 2.02621 2.02953 4.06789 4.86983 3.9213 4.70783 4.05679 4.65742 2.62398 2.02621 2.02953 2.62398 2.03267 2.02621 2.02953 2.11917 2.11396 2.05005 2.16954 2.05682 2.05682 2.11917 2.11396 2.05005 2.11917 2.11396 2.05005 2.16954 2.05682 2.05682 2.11917 2.11396 2.05005 3.14159 0.0 0.0 3.14159 3.14159 0.0 0.0 3.14159 3.14159 0.0 0.0 3.14159 3.14159 0.0 0.0 3.14159</array><array dataType="xsd:double" dictRef="cc:deriv" size="63">-0.01996 3.9E-4 -0.00862 -8.2E-4 0.00147 0.01474 -0.01376 7.0E-4 0.00273 1.7E-4 0.00817 -0.00109 -0.00105 0.01351 -0.00167 -0.00932 -0.00215 -0.00345 0.02045 0.00244 0.01467 0.00558 -0.0125 0.00185 -0.01093 -0.01791 5.0E-4 -9.0E-4 -0.00994 -0.00144 0.00243 -9.9E-4 -0.00923 0.0045 0.00472 9.4E-4 -8.8E-4 -6.0E-5 -0.00119 8.2E-4 3.7E-4 -0.01007 0.00501 0.00506 0.00114 -0.00187 7.2E-4 -2.4E-4 0.00797 -0.01634 -0.00813 -0.00129 0.01424 -0.00949 0.00603 -0.00157 -0.0093 0.01514 0.00741 -4.9E-4 -0.01322 0.00724 -0.00549</array><array dataType="xsd:double" dictRef="cc:delta.linear" size="63">0.0 0.0 0.0 0.0 0.0 0.0 0.0 0.0 0.0 0.0 0.0 0.0 0.0 0.0 0.0 0.0 0.0 0.0 0.0 0.0 0.0 0.0 0.0 0.0 0.0 0.0 0.0 0.0 0.0 0.0 0.0 0.0 0.0 0.0 0.0 0.0 0.0 0.0 0.0 0.0 0.0 0.0 0.0 0.0 0.0 0.0 0.0 0.0 0.0 0.0 0.0 0.0 0.0 0.0 0.0 0.0 0.0 0.0 0.0 0.0 0.0 0.0 0.0</array><array dataType="xsd:double" dictRef="cc:delta.quad" size="63">-0.0065 0.00165 -0.00632 -0.05716 -0.02874 0.08271 -0.01204 -1.6E-4 0.05039 -0.01528 0.07179 -0.0418 0.02567 0.07325 0.0 -0.00684 -0.02177 -0.01914 0.09828 0.00517 0.07603 0.05703 -0.011 0.00151 -0.00788 -0.00601 -2.3E-4 8.1E-4 -0.00721 0.00241 -0.00548 0.00307 -0.02074 0.00973 0.01101 0.00466 -0.00698 0.00232 0.00272 -0.00523 0.00251 -0.01982 0.01031 0.00951 0.00399 -0.00918 0.00519 0.01456 0.05758 -0.08941 -0.0464 -0.00136 0.07297 -0.04438 0.02995 -0.00635 -0.04527 0.07431 0.03539 0.01696 -0.07792 0.05588 -0.039</array><array dataType="xsd:double" dictRef="cc:delta.total" size="63">-0.0066 0.00184 -0.00628 -0.05722 -0.02868 0.08239 -0.01224 -1.6E-4 0.05097 -0.01553 0.0724 -0.04214 0.02622 0.07306 1.0E-5 -0.00678 -0.02185 -0.01935 0.09796 0.00515 0.07582 0.05733 -0.01118 0.00163 -0.00778 -0.00637 -2.3E-4 7.8E-4 -0.00711 0.00102 -0.00728 0.0018 -0.02142 0.00968 0.01097 0.00399 -0.00793 0.00166 0.00196 -0.00648 0.00184 -0.02058 0.01037 0.00958 0.00298 -0.01083 0.00414 0.01489 0.05761 -0.08894 -0.04623 -0.00149 0.07275 -0.04424 0.03001 -0.00658 -0.04528 0.07402 0.03532 0.017 -0.07756 0.05568 -0.03888</array><array dataType="xsd:double" dictRef="cc:newval" size="63">2.61738 2.02805 2.02325 4.10018 4.846 4.09046 2.61174 2.03251 4.6544 5.06829 4.56798 4.87003 4.86678 4.23262 2.02622 2.02275 4.04605 4.85048 4.01925 4.71298 4.13261 4.71475 2.6128 2.02784 2.02175 2.61761 2.03244 2.02699 2.02242 2.1202 2.10668 2.05184 2.14812 2.0665 2.0678 2.12317 2.10604 2.05171 2.12113 2.10748 2.05189 2.14896 2.06719 2.0664 2.12216 2.10313 2.05419 -3.1267 0.05761 -0.08894 3.09536 3.1401 0.07275 -0.04424 -3.11159 3.13501 -0.04528 0.07402 -3.10627 -3.1246 -0.07756 0.05568 3.10271</array></list></module><module cmlx:lineCount="5" cmlx:templateRef="l103.itemconverge"><list cmlx:lineCount="4" cmlx:templateRef="row"><array dataType="xsd:string" dictRef="g:item"/><array dataType="xsd:double" dictRef="g:value" size="4">4.5E-4 3.0E-4 0.0018 0.0012</array><array dataType="xsd:double" dictRef="g:threshold" size="4">0.0 0.0 0.0 0.0</array><array dataType="xsd:string" dictRef="g:converged" size="4">NO NO NO NO</array></list></module><module cmlx:lineCount="1" cmlx:templateRef="preddelta"><list cmlx:templateRef="predicted"><scalar dataType="xsd:double" dictRef="g:predchange">-0.01442483</scalar></list></module> GradGradGradGradGradGradGradGradGradGradGradGradGradGradGradGradGradGrad</module><module cmlx:lineCount="22" cmlx:templateRef="l202.orient"><molecule id="a16" cmlx:templateRef="atom"><atomArray><atom id="a1" elementType="C" x3="-0.022218" y3="0.016531" z3="0.006582"><scalar dataType="xsd:integer" dictRef="cc:serial">1</scalar><scalar dataType="xsd:integer" dictRef="g:atomicType">0</scalar><scalar dataType="xsd:integer" dictRef="compchem:atomicNumber">6</scalar></atom><atom id="a2" elementType="C" x3="-0.003447" y3="-0.005472" z3="1.391339"><scalar dataType="xsd:integer" dictRef="cc:serial">2</scalar><scalar dataType="xsd:integer" dictRef="g:atomicType">0</scalar><scalar dataType="xsd:integer" dictRef="compchem:atomicNumber">6</scalar></atom><atom id="a3" elementType="H" x3="0.88494" y3="-0.002287" z3="-0.566535"><scalar dataType="xsd:integer" dictRef="cc:serial">3</scalar><scalar dataType="xsd:integer" dictRef="g:atomicType">0</scalar><scalar dataType="xsd:integer" dictRef="compchem:atomicNumber">1</scalar></atom><atom id="a4" elementType="H" x3="-0.94764" y3="-0.042415" z3="-0.528611"><scalar dataType="xsd:integer" dictRef="cc:serial">4</scalar><scalar dataType="xsd:integer" dictRef="g:atomicType">0</scalar><scalar dataType="xsd:integer" dictRef="compchem:atomicNumber">1</scalar></atom><atom id="a5" elementType="C" x3="-1.151051" y3="3.8E-4" z3="2.161464"><scalar dataType="xsd:integer" dictRef="cc:serial">5</scalar><scalar dataType="xsd:integer" dictRef="g:atomicType">0</scalar><scalar dataType="xsd:integer" dictRef="compchem:atomicNumber">6</scalar></atom><atom id="a6" elementType="H" x3="0.949149" y3="0.012233" z3="1.890412"><scalar dataType="xsd:integer" dictRef="cc:serial">6</scalar><scalar dataType="xsd:integer" dictRef="g:atomicType">0</scalar><scalar dataType="xsd:integer" dictRef="compchem:atomicNumber">1</scalar></atom><atom id="a7" elementType="H" x3="-1.1098" y3="-0.018423" z3="3.232734"><scalar dataType="xsd:integer" dictRef="cc:serial">7</scalar><scalar dataType="xsd:integer" dictRef="g:atomicType">0</scalar><scalar dataType="xsd:integer" dictRef="compchem:atomicNumber">1</scalar></atom><atom id="a8" elementType="H" x3="-2.116918" y3="-0.044274" z3="1.702279"><scalar dataType="xsd:integer" dictRef="cc:serial">8</scalar><scalar dataType="xsd:integer" dictRef="g:atomicType">0</scalar><scalar dataType="xsd:integer" dictRef="compchem:atomicNumber">1</scalar></atom><atom id="a9" elementType="C" x3="-1.656074" y3="2.073998" z3="1.990396"><scalar dataType="xsd:integer" dictRef="cc:serial">9</scalar><scalar dataType="xsd:integer" dictRef="g:atomicType">0</scalar><scalar dataType="xsd:integer" dictRef="compchem:atomicNumber">6</scalar></atom><atom id="a10" elementType="C" x3="-1.665884" y3="2.153075" z3="0.610062"><scalar dataType="xsd:integer" dictRef="cc:serial">10</scalar><scalar dataType="xsd:integer" dictRef="g:atomicType">0</scalar><scalar dataType="xsd:integer" dictRef="compchem:atomicNumber">6</scalar></atom><atom id="a11" elementType="H" x3="-2.564477" y3="2.105383" z3="2.560778"><scalar dataType="xsd:integer" dictRef="cc:serial">11</scalar><scalar dataType="xsd:integer" dictRef="g:atomicType">0</scalar><scalar dataType="xsd:integer" dictRef="compchem:atomicNumber">1</scalar></atom><atom id="a12" elementType="H" x3="-0.732817" y3="2.05283" z3="2.530546"><scalar dataType="xsd:integer" dictRef="cc:serial">12</scalar><scalar dataType="xsd:integer" dictRef="g:atomicType">0</scalar><scalar dataType="xsd:integer" dictRef="compchem:atomicNumber">1</scalar></atom><atom id="a13" elementType="C" x3="-0.513573" y3="2.123461" z3="-0.158065"><scalar dataType="xsd:integer" dictRef="cc:serial">13</scalar><scalar dataType="xsd:integer" dictRef="g:atomicType">0</scalar><scalar dataType="xsd:integer" dictRef="compchem:atomicNumber">6</scalar></atom><atom id="a14" elementType="H" x3="-2.614915" y3="2.205308" z3="0.106717"><scalar dataType="xsd:integer" dictRef="cc:serial">14</scalar><scalar dataType="xsd:integer" dictRef="g:atomicType">0</scalar><scalar dataType="xsd:integer" dictRef="compchem:atomicNumber">1</scalar></atom><atom id="a15" elementType="H" x3="-0.548812" y3="2.202054" z3="-1.227238"><scalar dataType="xsd:integer" dictRef="cc:serial">15</scalar><scalar dataType="xsd:integer" dictRef="g:atomicType">0</scalar><scalar dataType="xsd:integer" dictRef="compchem:atomicNumber">1</scalar></atom><atom id="a16" elementType="H" x3="0.449679" y3="2.107427" z3="0.308042"><scalar dataType="xsd:integer" dictRef="cc:serial">16</scalar><scalar dataType="xsd:integer" dictRef="g:atomicType">0</scalar><scalar dataType="xsd:integer" dictRef="compchem:atomicNumber">1</scalar></atom></atomArray><formula formalCharge="0" concise="C 6 H 10"><atomArray elementType="C H" count="6.0 10.0"/></formula><bondArray><bond atomRefs2="a1 a2" id="a1_a2" order="S"/><bond atomRefs2="a1 a3" id="a1_a3" order="S"/><bond atomRefs2="a1 a4" id="a1_a4" order="S"/><bond atomRefs2="a2 a5" id="a2_a5" order="S"/><bond atomRefs2="a2 a6" id="a2_a6" order="S"/><bond atomRefs2="a5 a7" id="a5_a7" order="S"/><bond atomRefs2="a5 a8" id="a5_a8" order="S"/><bond atomRefs2="a9 a10" id="a9_a10" order="S"/><bond atomRefs2="a9 a11" id="a9_a11" order="S"/><bond atomRefs2="a9 a12" id="a9_a12" order="S"/><bond atomRefs2="a10 a13" id="a10_a13" order="S"/><bond atomRefs2="a10 a14" id="a10_a14" order="S"/><bond atomRefs2="a13 a15" id="a13_a15" order="S"/><bond atomRefs2="a13 a16" id="a13_a16" order="S"/></bondArray><property dictRef="cml:molmass"><scalar dataType="xsd:double" units="unit:dalton" xmlns:unit="http://www.xml-cml.org/unit/si/">82.14359999999999</scalar></property></molecule></module><module cmlx:lineCount="39" cmlx:templateRef="l202.distmat"><array dataType="xsd:double" size="135" dictRef="cc:distance">0.0 1.385059 0.0 1.073198 2.150003 0.0 1.07066 2.139877 1.833411 0.0 2.432702 1.382071 3.404004 2.698094 0.0 2.119525 1.075558 2.457828 3.074486 2.117652 0.0 3.404719 2.148237 4.291118 3.764916 1.072229 2.458056 0.0 2.69571 2.136574 3.763035 2.518747 1.070394 3.072353 1.832279 0.0 3.292138 2.722911 4.160002 3.365484 2.141076 3.323862 2.494002 2.186884 0.0 2.762362 2.834328 3.540716 2.575388 2.702961 3.613986 3.450079 2.494937 1.382633 0.0 4.165369 3.518831 5.110855 4.095305 2.566762 4.144422 2.660482 2.357616 1.073087 2.148263 0.0 3.319918 2.463002 4.053709 3.714114 2.126898 2.720812 2.219296 2.645676 1.069866 2.137504 1.832663 0.0 2.169721 2.682021 2.577109 2.239807 3.208437 3.285285 4.05471 3.27577 2.433854 1.385178 3.405678 2.698461 0.0 3.394532 3.6548 4.192341 2.869792 3.35061 4.549032 4.120963 2.802577 2.11775 1.07552 2.456612 3.072538 2.119539 0.0 2.564395 3.468075 2.711327 2.384278 4.085751 4.093769 5.01364 4.010862 3.405231 2.150795 4.292006 3.765245 1.072637 2.459314 0.0 2.164581 2.417271 2.324915 2.697092 3.230658 2.672676 3.937644 3.627827 2.695483 2.1375 3.762972 2.518095 1.070219 3.072759 1.833855</array></module><module cmlx:lineCount="6" cmlx:templateRef="l202.stoich"><scalar dataType="xsd:string" dictRef="cc:formula" cmlx:templateRef="stoich">C6H10</scalar><scalar dataType="xsd:string" dictRef="cc:frameworkgroup" cmlx:templateRef="framework">C1[X(C6H10)]</scalar><scalar dataType="xsd:integer" dictRef="cc:degfreedom" cmlx:templateRef="degfreedom">42</scalar><scalar dataType="xsd:string" dictRef="cc:pointgroup">C1</scalar><scalar dataType="xsd:integer" dictRef="cc:operatorcount">1</scalar><scalar dataType="xsd:string" dictRef="cc:largestabelian">C1</scalar><scalar dataType="xsd:integer" dictRef="cc:operatorcount">1</scalar><scalar dataType="xsd:string" dictRef="cc:largestconciseabelian">C1</scalar><scalar dataType="xsd:integer" dictRef="cc:operatorcount">1</scalar></module><module cmlx:lineCount="22" cmlx:templateRef="l202.orient"><molecule id="a16" cmlx:templateRef="atom"><atomArray><atom id="a1" elementType="C" x3="-1.364501" y3="0.886775" z3="0.298341"><scalar dataType="xsd:integer" dictRef="cc:serial">1</scalar><scalar dataType="xsd:integer" dictRef="g:atomicType">0</scalar><scalar dataType="xsd:integer" dictRef="compchem:atomicNumber">6</scalar></atom><atom id="a2" elementType="C" x3="-1.328637" y3="-0.375379" z3="-0.27093"><scalar dataType="xsd:integer" dictRef="cc:serial">2</scalar><scalar dataType="xsd:integer" dictRef="g:atomicType">0</scalar><scalar dataType="xsd:integer" dictRef="compchem:atomicNumber">6</scalar></atom><atom id="a3" elementType="H" x3="-1.913688" y3="1.690189" z3="-0.154066"><scalar dataType="xsd:integer" dictRef="cc:serial">3</scalar><scalar dataType="xsd:integer" dictRef="g:atomicType">0</scalar><scalar dataType="xsd:integer" dictRef="compchem:atomicNumber">1</scalar></atom><atom id="a4" elementType="H" x3="-0.921179" y3="1.06734" z3="1.256034"><scalar dataType="xsd:integer" dictRef="cc:serial">4</scalar><scalar dataType="xsd:integer" dictRef="g:atomicType">0</scalar><scalar dataType="xsd:integer" dictRef="compchem:atomicNumber">1</scalar></atom><atom id="a5" elementType="C" x3="-0.646649" y3="-1.437592" z3="0.291845"><scalar dataType="xsd:integer" dictRef="cc:serial">5</scalar><scalar dataType="xsd:integer" dictRef="g:atomicType">0</scalar><scalar dataType="xsd:integer" dictRef="compchem:atomicNumber">6</scalar></atom><atom id="a6" elementType="H" x3="-1.822975" y3="-0.525341" z3="-1.21431"><scalar dataType="xsd:integer" dictRef="cc:serial">6</scalar><scalar dataType="xsd:integer" dictRef="g:atomicType">0</scalar><scalar dataType="xsd:integer" dictRef="compchem:atomicNumber">1</scalar></atom><atom id="a7" elementType="H" x3="-0.635314" y3="-2.406059" z3="-0.168176"><scalar dataType="xsd:integer" dictRef="cc:serial">7</scalar><scalar dataType="xsd:integer" dictRef="g:atomicType">0</scalar><scalar dataType="xsd:integer" dictRef="compchem:atomicNumber">1</scalar></atom><atom id="a8" elementType="H" x3="-0.165349" y3="-1.335289" z3="1.242438"><scalar dataType="xsd:integer" dictRef="cc:serial">8</scalar><scalar dataType="xsd:integer" dictRef="g:atomicType">0</scalar><scalar dataType="xsd:integer" dictRef="compchem:atomicNumber">1</scalar></atom><atom id="a9" elementType="C" x3="1.344556" y3="-0.893307" z3="-0.276543"><scalar dataType="xsd:integer" dictRef="cc:serial">9</scalar><scalar dataType="xsd:integer" dictRef="g:atomicType">0</scalar><scalar dataType="xsd:integer" dictRef="compchem:atomicNumber">6</scalar></atom><atom id="a10" elementType="C" x3="1.351149" y3="0.382711" z3="0.255817"><scalar dataType="xsd:integer" dictRef="cc:serial">10</scalar><scalar dataType="xsd:integer" dictRef="g:atomicType">0</scalar><scalar dataType="xsd:integer" dictRef="compchem:atomicNumber">6</scalar></atom><atom id="a11" elementType="H" x3="1.904717" y3="-1.691301" z3="0.171721"><scalar dataType="xsd:integer" dictRef="cc:serial">11</scalar><scalar dataType="xsd:integer" dictRef="g:atomicType">0</scalar><scalar dataType="xsd:integer" dictRef="compchem:atomicNumber">1</scalar></atom><atom id="a12" elementType="H" x3="0.836339" y3="-1.100226" z3="-1.194973"><scalar dataType="xsd:integer" dictRef="cc:serial">12</scalar><scalar dataType="xsd:integer" dictRef="g:atomicType">0</scalar><scalar dataType="xsd:integer" dictRef="compchem:atomicNumber">1</scalar></atom><atom id="a13" elementType="C" x3="0.646948" y3="1.438313" z3="-0.29963"><scalar dataType="xsd:integer" dictRef="cc:serial">13</scalar><scalar dataType="xsd:integer" dictRef="g:atomicType">0</scalar><scalar dataType="xsd:integer" dictRef="compchem:atomicNumber">6</scalar></atom><atom id="a14" elementType="H" x3="1.901206" y3="0.556159" z3="1.163614"><scalar dataType="xsd:integer" dictRef="cc:serial">14</scalar><scalar dataType="xsd:integer" dictRef="g:atomicType">0</scalar><scalar dataType="xsd:integer" dictRef="compchem:atomicNumber">1</scalar></atom><atom id="a15" elementType="H" x3="0.681859" y3="2.422551" z3="0.125347"><scalar dataType="xsd:integer" dictRef="cc:serial">15</scalar><scalar dataType="xsd:integer" dictRef="g:atomicType">0</scalar><scalar dataType="xsd:integer" dictRef="compchem:atomicNumber">1</scalar></atom><atom id="a16" elementType="H" x3="0.117182" y3="1.31285" z3="-1.221029"><scalar dataType="xsd:integer" dictRef="cc:serial">16</scalar><scalar dataType="xsd:integer" dictRef="g:atomicType">0</scalar><scalar dataType="xsd:integer" dictRef="compchem:atomicNumber">1</scalar></atom></atomArray><formula formalCharge="0" concise="C 6 H 10"><atomArray elementType="C H" count="6.0 10.0"/></formula><bondArray><bond atomRefs2="a1 a2" id="a1_a2" order="S"/><bond atomRefs2="a1 a3" id="a1_a3" order="S"/><bond atomRefs2="a1 a4" id="a1_a4" order="S"/><bond atomRefs2="a2 a5" id="a2_a5" order="S"/><bond atomRefs2="a2 a6" id="a2_a6" order="S"/><bond atomRefs2="a5 a7" id="a5_a7" order="S"/><bond atomRefs2="a5 a8" id="a5_a8" order="S"/><bond atomRefs2="a9 a10" id="a9_a10" order="S"/><bond atomRefs2="a9 a11" id="a9_a11" order="S"/><bond atomRefs2="a9 a12" id="a9_a12" order="S"/><bond atomRefs2="a10 a13" id="a10_a13" order="S"/><bond atomRefs2="a10 a14" id="a10_a14" order="S"/><bond atomRefs2="a13 a15" id="a13_a15" order="S"/><bond atomRefs2="a13 a16" id="a13_a16" order="S"/></bondArray><property dictRef="cml:molmass"><scalar dataType="xsd:double" units="unit:dalton" xmlns:unit="http://www.xml-cml.org/unit/si/">82.14359999999999</scalar></property></molecule></module><module cmlx:lineCount="1" cmlx:templateRef="l202.rotconst"><array dataType="xsd:double" size="3" dictRef="cc:rotconst" cmlx:templateRef="rotconst">4.5785724 3.9119974 2.4048079</array></module><module cmlx:lineCount="9" cmlx:templateRef="l301.basis"><scalar dataType="xsd:string" dictRef="cc:basis">3-21G</scalar><scalar dataType="xsd:string" dictRef="cc:diffuse">(6D, 7F)</scalar><list cmlx:lineCount="1" cmlx:templateRef="symmadapt"><array dataType="xsd:integer" dictRef="cc:adapted" size="1">74</array><array dataType="xsd:string" dictRef="cc:symm" size="1">A</array></list> Raffenetti 1 integral format. Two-electron integral symmetry is turned on.    74 basis functions,   120 primitive gaussians,    74 cartesian basis functions    23 alpha electrons       23 beta electrons       nuclear repulsion energy       230.8822225807 Hartrees. NAtoms=   16 NActive=   16 NUniq=   16 SFac= 7.50D-01 NAtFMM=   80 NAOKFM=F Big=F</module><module cmlx:lineCount="1" cmlx:templateRef="l302.basis"><list cmlx:templateRef="onee"><scalar dataType="xsd:string" dictRef="g:onee">One-electron integrals</scalar></list></module> NBasis=    74 RedAO= T  NBF=    74 NBsUse=    74 1.00D-06 NBFU=    74 Initial guess read from the read-write file. B after Tr=     0.000000    0.000000    0.000000         Rot=    1.000000    0.000000    0.000000    0.000000 Ang=   0.00 deg. Initial guess orbital symmetries:       Occupied  (A) (A) (A) (A) (A) (A) (A) (A) (A) (A) (A) (A)                 (A) (A) (A) (A) (A) (A) (A) (A) (A) (A) (A)       Virtual   (A) (A) (A) (A) (A) (A) (A) (A) (A) (A) (A) (A)                 (A) (A) (A) (A) (A) (A) (A) (A) (A) (A) (A) (A)                 (A) (A) (A) (A) (A) (A) (A) (A) (A) (A) (A) (A)                 (A) (A) (A) (A) (A) (A) (A) (A) (A) (A) (A) (A)                 (A) (A) (A) Harris functional with IExCor=  205 diagonalized for initial guess. ExpMin= 1.83D-01 ExpMax= 1.72D+02 ExpMxC= 1.72D+02 IAcc=1 IRadAn=         1 AccDes= 0.00D+00 HarFok:  IExCor=  205 AccDes= 0.00D+00 IRadAn=         1 IDoV= 1 ScaDFX=  1.000000  1.000000  1.000000  1.000000 FoFCou: FMM=F IPFlag=           0 FMFlag=      100000 FMFlg1=           0         NFxFlg=           0 DoJE=T BraDBF=F KetDBF=T FulRan=T         Omega=  0.000000  0.000000  1.000000  0.000000  0.000000 ICntrl=     500 IOpCl=  0         NMat0=    1 NMatS0=    1 NMatT0=    0 NMatD0=    1 NMtDS0=    0 NMtDT0=    0         I1Cent=           4 NGrid=           0. Petite list used in FoFCou. Requested convergence on RMS density matrix=1.00D-08 within 128 cycles. Requested convergence on MAX density matrix=1.00D-06. Requested convergence on             energy=1.00D-06. No special actions if energy rises. Keep R1 ints in memory in canonical form, NReq=4687320. SCF Done:  E(RHF) =  -231.577293874     A.U. after   14 cycles             Convg  =    0.1769D-08             -V/T =  2.0013 Calling FoFJK, ICntrl=      2127 FMM=F ISym2X=0 I1Cent= 0 IOpClX= 0 NMat=1 NMatS=1 NMatT=0. ***** Axes restored to original set ***** ------------------------------------------------------------------- Center     Atomic                   Forces (Hartrees/Bohr) Number     Number              X              Y              Z -------------------------------------------------------------------      1        6          -0.014103077    0.020729993    0.009548898      2        6          -0.001792946   -0.042400081   -0.003923949      3        1          -0.000955610   -0.002724338    0.000178688      4        1           0.004139029   -0.023081363   -0.000483351      5        6          -0.005716081    0.019710005   -0.011675557      6        1           0.000399024    0.001718916    0.000115838      7        1          -0.000183695   -0.006674652   -0.000373812      8        1           0.002165794   -0.027099065    0.003681015      9        6           0.013825244   -0.020598190   -0.005262878     10        6           0.005839793    0.035919535   -0.001752081     11        1           0.000934803    0.002822049    0.000049458     12        1          -0.004063443    0.030905885    0.001854107     13        6           0.001094927   -0.020303508    0.011499168     14        1          -0.000347716   -0.001856740   -0.000183171     15        1           0.000471728    0.003966815    0.000706418     16        1          -0.001707773    0.028964737   -0.003978794 ------------------------------------------------------------------- Cartesian Forces:  Max     0.042400081 RMS     0.013563503<module cmlx:lineCount="105" cmlx:templateRef="l103"><list cmlx:templateRef="berny"><scalar dataType="xsd:string" dictRef="g:optimization">Internal  Forces:  Max     0.016910031 RMS     0.006452525</scalar></list> Search for a saddle point. Step number   2 out of a maximum of   73 All quantities printed in internal units (Hartrees-Bohrs-Radians) Swaping is turned off. Update second derivatives using D2CorX and points    1    2     Eigenvalues ---   -0.05301   0.00751   0.01262   0.01580   0.01698     Eigenvalues ---    0.01836   0.02178   0.02252   0.02332   0.02428     Eigenvalues ---    0.02617   0.03074   0.03557   0.03641   0.04460     Eigenvalues ---    0.05207   0.08644   0.09886   0.11216   0.11527     Eigenvalues ---    0.12290   0.12403   0.12794   0.13636   0.15873     Eigenvalues ---    0.16257   0.18984   0.21517   0.30173   0.36485     Eigenvalues ---    0.36607   0.37738   0.38157   0.39128   0.39169     Eigenvalues ---    0.39444   0.39749   0.40303   0.40409   0.47114     Eigenvalues ---    0.49041   0.495141000.000001000.000001000.00000     Eigenvalues --- 1000.000001000.000001000.000001000.000001000.00000     Eigenvalues --- 1000.000001000.000001000.000001000.000001000.00000     Eigenvalues --- 1000.000001000.000001000.000001000.000001000.00000     Eigenvalues --- 1000.000001000.000001000.00000 Eigenvectors required to have negative eigenvalues:                          R17       R4        R18       R12       R20   1                    0.39558  -0.34088   0.27082  -0.24373   0.24349                          D5        R5        D7        D10       D2   1                    0.21658  -0.21324   0.19684   0.18541   0.18297<module cmlx:lineCount="3" cmlx:templateRef="rfo"> RFO step:  Lambda0=1.459168266D-04 Lambda=-3.56030406D-02. Linear search not attempted -- option 19 set. Maximum step size (   0.300) exceeded in Quadratic search.</module>    -- Step size scaled by   0.366 Iteration  1 RMS(Cart)=  0.02967086 RMS(Int)=  0.00099016 Iteration  2 RMS(Cart)=  0.00079252 RMS(Int)=  0.00053696 Iteration  3 RMS(Cart)=  0.00000062 RMS(Int)=  0.00053696<module cmlx:lineCount="65" cmlx:templateRef="l103.deltas"><list cmlx:lineCount="63" cmlx:templateRef="delta"><array dataType="xsd:string" dictRef="cc:variable" size="63">R1 R2 R3 R4 R5 R6 R7 R8 R9 R10 R11 R12 R13 R14 R15 R16 R17 R18 R19 R20 R21 R22 R23 R24 R25 R26 R27 R28 R29 A1 A2 A3 A4 A5 A6 A7 A8 A9 A10 A11 A12 A13 A14 A15 A16 A17 A18 D1 D2 D3 D4 D5 D6 D7 D8 D9 D10 D11 D12 D13 D14 D15 D16</array><array dataType="xsd:double" dictRef="g:lastval" size="63">2.61738 2.02805 2.02325 4.10018 4.846 4.09046 2.61174 2.03251 4.6544 5.06829 4.56798 4.87003 4.86678 4.23262 2.02622 2.02275 4.04605 4.85048 4.01925 4.71298 4.13261 4.71475 2.6128 2.02784 2.02175 2.61761 2.03244 2.02699 2.02242 2.1202 2.10668 2.05184 2.14812 2.0665 2.0678 2.12317 2.10604 2.05171 2.12113 2.10748 2.05189 2.14896 2.06719 2.0664 2.12216 2.10313 2.05419 -3.1267 0.05761 -0.08894 3.09536 3.1401 0.07275 -0.04424 -3.11159 3.13501 -0.04528 0.07402 -3.10627 -3.1246 -0.07756 0.05568 3.10271</array><array dataType="xsd:double" dictRef="cc:deriv" size="63">-0.01275 3.5E-4 -0.00549 -0.00243 7.0E-5 0.01244 -0.00874 4.4E-4 0.00424 -4.2E-4 0.00865 -0.00216 9.1E-4 0.01121 -0.00105 -0.00603 -0.00278 -0.00344 0.01691 0.00151 0.01238 0.00615 -0.00795 0.00129 -0.00705 -0.01142 3.0E-4 -4.7E-4 -0.00638 -0.00115 8.8E-4 -9.4E-4 -0.00679 0.00321 0.00334 5.6E-4 -0.00115 -2.2E-4 -9.0E-4 -1.6E-4 1.0E-4 -0.00741 0.00356 0.00364 7.0E-4 -0.00195 3.4E-4 4.6E-4 0.00723 -0.01365 -0.00688 -0.00129 0.01203 -0.00807 0.00525 -0.00164 -0.00802 0.01268 0.00629 2.5E-4 -0.01128 0.00664 -0.0049</array><array dataType="xsd:double" dictRef="cc:delta.linear" size="63">0.0 0.0 0.0 0.0 0.0 0.0 0.0 0.0 0.0 0.0 0.0 0.0 0.0 0.0 0.0 0.0 0.0 0.0 0.0 0.0 0.0 0.0 0.0 0.0 0.0 0.0 0.0 0.0 0.0 0.0 0.0 0.0 0.0 0.0 0.0 0.0 0.0 0.0 0.0 0.0 0.0 0.0 0.0 0.0 0.0 0.0 0.0 0.0 0.0 0.0 0.0 0.0 0.0 0.0 0.0 0.0 0.0 0.0 0.0 0.0 0.0 0.0 0.0</array><array dataType="xsd:double" dictRef="cc:delta.quad" size="63">-0.00355 0.00127 -0.0035 -0.05623 -0.02921 0.07745 -0.00606 -2.8E-4 0.05737 -0.01683 0.07799 -0.04094 0.03431 0.06633 3.7E-4 -0.00412 -0.03377 -0.02757 0.09411 -0.00366 0.07368 0.06135 -0.00561 0.00117 -0.00465 -0.00356 -3.3E-4 7.6E-4 -0.00421 -5.5E-4 -0.00728 -5.4E-4 -0.01631 0.0072 0.00754 0.00125 -0.0069 6.7E-4 3.1E-4 -0.00622 2.0E-4 -0.01601 0.00747 0.00721 7.1E-4 -0.00893 0.00111 0.01075 0.0542 -0.08633 -0.04288 -0.00433 0.07685 -0.04783 0.03335 -0.0077 -0.04838 0.07783 0.03715 0.0124 -0.07813 0.05306 -0.03748</array><array dataType="xsd:double" dictRef="cc:delta.total" size="63">-0.00363 0.00142 -0.00347 -0.05627 -0.02917 0.07714 -0.00625 -2.8E-4 0.05788 -0.01706 0.07852 -0.04121 0.03477 0.06617 3.8E-4 -0.00408 -0.03383 -0.02777 0.09382 -0.00369 0.07351 0.06163 -0.00577 0.00129 -0.00457 -0.00385 -3.3E-4 7.4E-4 -0.00412 -0.00179 -0.00882 -0.00169 -0.01694 0.00711 0.00746 4.2E-4 -0.00798 -1.6E-4 -6.0E-4 -0.00753 -6.3E-4 -0.01669 0.00746 0.00721 -2.5E-4 -0.01041 1.1E-4 0.01097 0.05415 -0.08587 -0.04269 -0.00443 0.07658 -0.04766 0.03334 -0.00788 -0.04835 0.0775 0.03704 0.01241 -0.07778 0.05284 -0.03734</array><array dataType="xsd:double" dictRef="cc:newval" size="63">2.61376 2.02947 2.01978 4.04391 4.81683 4.16761 2.60549 2.03223 4.71228 5.05122 4.6465 4.82882 4.90155 4.29879 2.0266 2.01868 4.01222 4.82271 4.11308 4.70929 4.20612 4.77638 2.60703 2.02913 2.01718 2.61376 2.03211 2.02773 2.0183 2.11841 2.09786 2.05015 2.13118 2.07361 2.07526 2.12359 2.09805 2.05154 2.12053 2.09995 2.05126 2.13227 2.07465 2.07361 2.12191 2.09272 2.0543 -3.11573 0.11176 -0.17482 3.05268 3.13567 0.14933 -0.0919 -3.07824 3.12713 -0.09363 0.15152 -3.06924 -3.11219 -0.15534 0.10852 3.06537</array></list></module><module cmlx:lineCount="5" cmlx:templateRef="l103.itemconverge"><list cmlx:lineCount="4" cmlx:templateRef="row"><array dataType="xsd:string" dictRef="g:item"/><array dataType="xsd:double" dictRef="g:value" size="4">4.5E-4 3.0E-4 0.0018 0.0012</array><array dataType="xsd:double" dictRef="g:threshold" size="4">0.0 0.0 0.0 0.0</array><array dataType="xsd:string" dictRef="g:converged" size="4">NO NO NO NO</array></list></module><module cmlx:lineCount="1" cmlx:templateRef="preddelta"><list cmlx:templateRef="predicted"><scalar dataType="xsd:double" dictRef="g:predchange">-0.01221069</scalar></list></module> GradGradGradGradGradGradGradGradGradGradGradGradGradGradGradGradGradGrad</module><module cmlx:lineCount="22" cmlx:templateRef="l202.orient"><molecule id="a16" cmlx:templateRef="atom"><atomArray><atom id="a1" elementType="C" x3="-0.041293" y3="0.032628" z3="0.010394"><scalar dataType="xsd:integer" dictRef="cc:serial">1</scalar><scalar dataType="xsd:integer" dictRef="g:atomicType">0</scalar><scalar dataType="xsd:integer" dictRef="compchem:atomicNumber">6</scalar></atom><atom id="a2" elementType="C" x3="-0.009377" y3="-0.010601" z3="1.39249"><scalar dataType="xsd:integer" dictRef="cc:serial">2</scalar><scalar dataType="xsd:integer" dictRef="g:atomicType">0</scalar><scalar dataType="xsd:integer" dictRef="compchem:atomicNumber">6</scalar></atom><atom id="a3" elementType="H" x3="0.860895" y3="-0.002877" z3="-0.571128"><scalar dataType="xsd:integer" dictRef="cc:serial">3</scalar><scalar dataType="xsd:integer" dictRef="g:atomicType">0</scalar><scalar dataType="xsd:integer" dictRef="compchem:atomicNumber">1</scalar></atom><atom id="a4" elementType="H" x3="-0.967914" y3="-0.082005" z3="-0.509815"><scalar dataType="xsd:integer" dictRef="cc:serial">4</scalar><scalar dataType="xsd:integer" dictRef="g:atomicType">0</scalar><scalar dataType="xsd:integer" dictRef="compchem:atomicNumber">1</scalar></atom><atom id="a5" elementType="C" x3="-1.159414" y3="0.00382" z3="2.152886"><scalar dataType="xsd:integer" dictRef="cc:serial">5</scalar><scalar dataType="xsd:integer" dictRef="g:atomicType">0</scalar><scalar dataType="xsd:integer" dictRef="compchem:atomicNumber">6</scalar></atom><atom id="a6" elementType="H" x3="0.943302" y3="0.023961" z3="1.890196"><scalar dataType="xsd:integer" dictRef="cc:serial">6</scalar><scalar dataType="xsd:integer" dictRef="g:atomicType">0</scalar><scalar dataType="xsd:integer" dictRef="compchem:atomicNumber">1</scalar></atom><atom id="a7" elementType="H" x3="-1.126713" y3="-0.035357" z3="3.224103"><scalar dataType="xsd:integer" dictRef="cc:serial">7</scalar><scalar dataType="xsd:integer" dictRef="g:atomicType">0</scalar><scalar dataType="xsd:integer" dictRef="compchem:atomicNumber">1</scalar></atom><atom id="a8" elementType="H" x3="-2.1149" y3="-0.08809" z3="1.684134"><scalar dataType="xsd:integer" dictRef="cc:serial">8</scalar><scalar dataType="xsd:integer" dictRef="g:atomicType">0</scalar><scalar dataType="xsd:integer" dictRef="compchem:atomicNumber">1</scalar></atom><atom id="a9" elementType="C" x3="-1.639026" y3="2.065297" z3="1.985112"><scalar dataType="xsd:integer" dictRef="cc:serial">9</scalar><scalar dataType="xsd:integer" dictRef="g:atomicType">0</scalar><scalar dataType="xsd:integer" dictRef="compchem:atomicNumber">6</scalar></atom><atom id="a10" elementType="C" x3="-1.660299" y3="2.153541" z3="0.608521"><scalar dataType="xsd:integer" dictRef="cc:serial">10</scalar><scalar dataType="xsd:integer" dictRef="g:atomicType">0</scalar><scalar dataType="xsd:integer" dictRef="compchem:atomicNumber">6</scalar></atom><atom id="a11" elementType="H" x3="-2.542277" y3="2.108971" z3="2.564085"><scalar dataType="xsd:integer" dictRef="cc:serial">11</scalar><scalar dataType="xsd:integer" dictRef="g:atomicType">0</scalar><scalar dataType="xsd:integer" dictRef="compchem:atomicNumber">1</scalar></atom><atom id="a12" elementType="H" x3="-0.712158" y3="2.103214" z3="2.513245"><scalar dataType="xsd:integer" dictRef="cc:serial">12</scalar><scalar dataType="xsd:integer" dictRef="g:atomicType">0</scalar><scalar dataType="xsd:integer" dictRef="compchem:atomicNumber">1</scalar></atom><atom id="a13" elementType="C" x3="-0.504184" y3="2.115757" z3="-0.149798"><scalar dataType="xsd:integer" dictRef="cc:serial">13</scalar><scalar dataType="xsd:integer" dictRef="g:atomicType">0</scalar><scalar dataType="xsd:integer" dictRef="compchem:atomicNumber">6</scalar></atom><atom id="a14" elementType="H" x3="-2.609889" y3="2.180695" z3="0.104625"><scalar dataType="xsd:integer" dictRef="cc:serial">14</scalar><scalar dataType="xsd:integer" dictRef="g:atomicType">0</scalar><scalar dataType="xsd:integer" dictRef="compchem:atomicNumber">1</scalar></atom><atom id="a15" elementType="H" x3="-0.52962" y3="2.211907" z3="-1.218207"><scalar dataType="xsd:integer" dictRef="cc:serial">15</scalar><scalar dataType="xsd:integer" dictRef="g:atomicType">0</scalar><scalar dataType="xsd:integer" dictRef="compchem:atomicNumber">1</scalar></atom><atom id="a16" elementType="H" x3="0.44901" y3="2.158944" z3="0.330059"><scalar dataType="xsd:integer" dictRef="cc:serial">16</scalar><scalar dataType="xsd:integer" dictRef="g:atomicType">0</scalar><scalar dataType="xsd:integer" dictRef="compchem:atomicNumber">1</scalar></atom></atomArray><formula formalCharge="0" concise="C 6 H 10"><atomArray elementType="C H" count="6.0 10.0"/></formula><bondArray><bond atomRefs2="a1 a2" id="a1_a2" order="S"/><bond atomRefs2="a1 a3" id="a1_a3" order="S"/><bond atomRefs2="a1 a4" id="a1_a4" order="S"/><bond atomRefs2="a2 a5" id="a2_a5" order="S"/><bond atomRefs2="a2 a6" id="a2_a6" order="S"/><bond atomRefs2="a5 a7" id="a5_a7" order="S"/><bond atomRefs2="a5 a8" id="a5_a8" order="S"/><bond atomRefs2="a9 a10" id="a9_a10" order="S"/><bond atomRefs2="a9 a11" id="a9_a11" order="S"/><bond atomRefs2="a9 a12" id="a9_a12" order="S"/><bond atomRefs2="a10 a13" id="a10_a13" order="S"/><bond atomRefs2="a10 a14" id="a10_a14" order="S"/><bond atomRefs2="a13 a15" id="a13_a15" order="S"/><bond atomRefs2="a13 a16" id="a13_a16" order="S"/></bondArray><property dictRef="cml:molmass"><scalar dataType="xsd:double" units="unit:dalton" xmlns:unit="http://www.xml-cml.org/unit/si/">82.14359999999999</scalar></property></molecule></module><module cmlx:lineCount="39" cmlx:templateRef="l202.distmat"><array dataType="xsd:double" size="135" dictRef="cc:distance">0.0 1.38314 0.0 1.073951 2.147843 0.0 1.068824 2.13135 1.831546 0.0 2.416877 1.378765 3.391451 2.670957 0.0 2.122065 1.075409 2.46285 3.069858 2.119157 0.0 3.39274 2.14566 4.284322 3.737584 1.072432 2.463288 0.0 2.66755 2.127037 3.734812 2.475686 1.068237 3.067184 1.830519 0.0 3.253307 2.704868 4.130534 3.359457 2.123173 3.293096 2.49205 2.225785 0.0 2.734448 2.832607 3.521097 2.593788 2.693928 3.599519 3.452138 2.527551 1.37958 0.0 4.133698 3.504398 5.086358 4.08997 2.552069 4.117117 2.652845 2.405004 1.073769 2.145717 0.0 3.316873 2.493633 4.052588 3.738914 2.176546 2.729841 2.291432 2.730737 1.067448 2.128256 1.830833 0.0 2.139943 2.672992 2.555302 2.274821 3.192484 3.260736 4.049449 3.288563 2.418316 1.38314 3.393969 2.671181 0.0 3.34974 3.636349 4.155835 2.862416 3.322354 4.523818 4.103881 2.808424 2.119462 1.075346 2.461435 3.067382 2.122013 0.0 2.548957 3.467843 2.693977 2.440482 4.078793 4.076613 5.014063 4.028235 3.393158 2.149134 4.285687 3.737494 1.073028 2.465436 0.0 2.205403 2.458822 2.378079 2.781171 3.248735 2.690075 3.958958 3.668285 2.666057 2.127617 3.733787 2.473401 1.068039 3.067271 1.832389</array></module><module cmlx:lineCount="6" cmlx:templateRef="l202.stoich"><scalar dataType="xsd:string" dictRef="cc:formula" cmlx:templateRef="stoich">C6H10</scalar><scalar dataType="xsd:string" dictRef="cc:frameworkgroup" cmlx:templateRef="framework">C1[X(C6H10)]</scalar><scalar dataType="xsd:integer" dictRef="cc:degfreedom" cmlx:templateRef="degfreedom">42</scalar><scalar dataType="xsd:string" dictRef="cc:pointgroup">C1</scalar><scalar dataType="xsd:integer" dictRef="cc:operatorcount">1</scalar><scalar dataType="xsd:string" dictRef="cc:largestabelian">C1</scalar><scalar dataType="xsd:integer" dictRef="cc:operatorcount">1</scalar><scalar dataType="xsd:string" dictRef="cc:largestconciseabelian">C1</scalar><scalar dataType="xsd:integer" dictRef="cc:operatorcount">1</scalar></module><module cmlx:lineCount="22" cmlx:templateRef="l202.orient"><molecule id="a16" cmlx:templateRef="atom"><atomArray><atom id="a1" elementType="C" x3="1.283553" y3="-0.964894" z3="0.294262"><scalar dataType="xsd:integer" dictRef="cc:serial">1</scalar><scalar dataType="xsd:integer" dictRef="g:atomicType">0</scalar><scalar dataType="xsd:integer" dictRef="compchem:atomicNumber">6</scalar></atom><atom id="a2" elementType="C" x3="1.348516" y3="0.292211" z3="-0.278928"><scalar dataType="xsd:integer" dictRef="cc:serial">2</scalar><scalar dataType="xsd:integer" dictRef="g:atomicType">0</scalar><scalar dataType="xsd:integer" dictRef="compchem:atomicNumber">6</scalar></atom><atom id="a3" elementType="H" x3="1.786791" y3="-1.806134" z3="-0.144415"><scalar dataType="xsd:integer" dictRef="cc:serial">3</scalar><scalar dataType="xsd:integer" dictRef="g:atomicType">0</scalar><scalar dataType="xsd:integer" dictRef="compchem:atomicNumber">1</scalar></atom><atom id="a4" elementType="H" x3="0.885627" y3="-1.086977" z3="1.278708"><scalar dataType="xsd:integer" dictRef="cc:serial">4</scalar><scalar dataType="xsd:integer" dictRef="g:atomicType">0</scalar><scalar dataType="xsd:integer" dictRef="compchem:atomicNumber">1</scalar></atom><atom id="a5" elementType="C" x3="0.73334" y3="1.388511" z3="0.287357"><scalar dataType="xsd:integer" dictRef="cc:serial">5</scalar><scalar dataType="xsd:integer" dictRef="g:atomicType">0</scalar><scalar dataType="xsd:integer" dictRef="compchem:atomicNumber">6</scalar></atom><atom id="a6" elementType="H" x3="1.82797" y3="0.401552" z3="-1.235312"><scalar dataType="xsd:integer" dictRef="cc:serial">6</scalar><scalar dataType="xsd:integer" dictRef="g:atomicType">0</scalar><scalar dataType="xsd:integer" dictRef="compchem:atomicNumber">1</scalar></atom><atom id="a7" elementType="H" x3="0.792719" y3="2.361238" z3="-0.160289"><scalar dataType="xsd:integer" dictRef="cc:serial">7</scalar><scalar dataType="xsd:integer" dictRef="g:atomicType">0</scalar><scalar dataType="xsd:integer" dictRef="compchem:atomicNumber">1</scalar></atom><atom id="a8" elementType="H" x3="0.301275" y3="1.318697" z3="1.261819"><scalar dataType="xsd:integer" dictRef="cc:serial">8</scalar><scalar dataType="xsd:integer" dictRef="g:atomicType">0</scalar><scalar dataType="xsd:integer" dictRef="compchem:atomicNumber">1</scalar></atom><atom id="a9" elementType="C" x3="-1.270498" y3="0.968271" z3="-0.274687"><scalar dataType="xsd:integer" dictRef="cc:serial">9</scalar><scalar dataType="xsd:integer" dictRef="g:atomicType">0</scalar><scalar dataType="xsd:integer" dictRef="compchem:atomicNumber">6</scalar></atom><atom id="a10" elementType="C" x3="-1.367956" y3="-0.297121" z3="0.266171"><scalar dataType="xsd:integer" dictRef="cc:serial">10</scalar><scalar dataType="xsd:integer" dictRef="g:atomicType">0</scalar><scalar dataType="xsd:integer" dictRef="compchem:atomicNumber">6</scalar></atom><atom id="a11" elementType="H" x3="-1.781248" y3="1.805834" z3="0.161893"><scalar dataType="xsd:integer" dictRef="cc:serial">11</scalar><scalar dataType="xsd:integer" dictRef="g:atomicType">0</scalar><scalar dataType="xsd:integer" dictRef="compchem:atomicNumber">1</scalar></atom><atom id="a12" elementType="H" x3="-0.807311" y3="1.113747" z3="-1.225339"><scalar dataType="xsd:integer" dictRef="cc:serial">12</scalar><scalar dataType="xsd:integer" dictRef="g:atomicType">0</scalar><scalar dataType="xsd:integer" dictRef="compchem:atomicNumber">1</scalar></atom><atom id="a13" elementType="C" x3="-0.729728" y3="-1.388726" z3="-0.294311"><scalar dataType="xsd:integer" dictRef="cc:serial">13</scalar><scalar dataType="xsd:integer" dictRef="g:atomicType">0</scalar><scalar dataType="xsd:integer" dictRef="compchem:atomicNumber">6</scalar></atom><atom id="a14" elementType="H" x3="-1.898168" y3="-0.426275" z3="1.192758"><scalar dataType="xsd:integer" dictRef="cc:serial">14</scalar><scalar dataType="xsd:integer" dictRef="g:atomicType">0</scalar><scalar dataType="xsd:integer" dictRef="compchem:atomicNumber">1</scalar></atom><atom id="a15" elementType="H" x3="-0.833557" y3="-2.373538" z3="0.118914"><scalar dataType="xsd:integer" dictRef="cc:serial">15</scalar><scalar dataType="xsd:integer" dictRef="g:atomicType">0</scalar><scalar dataType="xsd:integer" dictRef="compchem:atomicNumber">1</scalar></atom><atom id="a16" elementType="H" x3="-0.257464" y3="-1.297657" z3="-1.247925"><scalar dataType="xsd:integer" dictRef="cc:serial">16</scalar><scalar dataType="xsd:integer" dictRef="g:atomicType">0</scalar><scalar dataType="xsd:integer" dictRef="compchem:atomicNumber">1</scalar></atom></atomArray><formula formalCharge="0" concise="C 6 H 10"><atomArray elementType=
[...]
9\H,-1.154068161,-0.0757204728,3.2054835065\H,-2.1506072328,-0.2827695 691,1.7191902028\C,-1.5769455856,2.0219470842,1.999110624\C,-1.6111094 201,2.210960387,0.623079405\H,-2.4930101489,2.095410173,2.5588005393\H ,-0.7084895254,2.3408904144,2.5450644792\C,-0.4549711739,2.0776371732, -0.13587854\H,-2.5599038786,2.1301208924,0.1223493789\H,-0.5156956792, 2.1936791333,-1.2038749766\H,0.4803932259,2.3998407292,0.2828183419\\V ersion=EM64L-G09RevA.02\State=1-A\HF=-231.6193223\RMSD=8.259e-10\RMSF= 3.102e-05\ZeroPoint=0.1526247\Thermal=0.1579827\Dipole=0.0000652,-0.00 00237,-0.0001176\DipoleDeriv=0.1120736,0.0261833,0.0903628,-0.1429765, 0.1443144,0.1049638,-0.0822019,0.0929251,-0.0033588,0.0196834,0.003982 3,-0.0025389,0.3238093,-0.6850441,0.1513602,0.0057882,-0.0163586,0.027 1737,-0.0484119,0.0174756,0.0944639,0.0191925,0.0925132,-0.0977982,0.0 662976,-0.0381042,0.0101072,-0.0489944,-0.0599155,-0.0703815,-0.010047 6,0.0179107,-0.0324958,-0.0091954,-0.0484659,0.001799,0.0355548,0.0901 77,-0.0231987,-0.0030072,0.1543157,-0.174259,0.1423348,-0.0247908,0.06 2926,-0.0888385,0.0185354,-0.0626597,-0.0853026,0.1738263,-0.0410822,- 0.0653584,0.0134457,-0.0025493,0.0683168,-0.0213531,-0.0153443,-0.0706 258,0.0859429,0.0786961,0.0115762,0.0440825,-0.1000336,-0.0494814,-0.0 750502,-0.0105603,-0.0311247,0.0162256,0.010548,-0.0692633,-0.0227693, 0.004053,0.1122546,0.0262149,0.0902196,-0.1429031,0.1440546,0.1048321, -0.0822258,0.0930379,-0.0034696,0.0196859,0.0037908,-0.0024202,0.32352 26,-0.6850452,0.1516367,0.0058732,-0.0164584,0.0273068,-0.0484681,0.01 74595,0.0944323,0.0191785,0.092582,-0.0977588,0.0663146,-0.0380709,0.0 101152,-0.0490226,-0.0599296,-0.0703837,-0.0099558,0.0180375,-0.032485 8,-0.0092048,-0.0485209,0.001733,0.0356391,0.0901572,-0.0234645,-0.002 9271,0.1544535,-0.1744651,0.1423769,-0.0248116,0.0627216,-0.0888162,0. 01862,-0.0626999,-0.0851927,0.1738491,-0.0410531,-0.0654164,0.0134962, -0.0026009,0.0683285,-0.0213375,-0.0152774,-0.0706512,0.0858842,0.0788 614,0.0116149,0.0441455,-0.0999615,-0.0495038,-0.07501,-0.0105497,-0.0 309887,0.0161797,0.0104997,-0.0693105,-0.0227823,0.0040381\Polar=60.19 86773,-8.0522185,56.9177957,-5.8465295,-4.5936496,67.7379407\PolarDeri v=-1.01501,1.4198646,0.4051854,2.4638826,1.222845,0.5424404,3.2940678, -4.3036147,-1.8638991,4.3264404,-4.1799307,-2.5156917,0.3126726,4.2051 202,-2.7340231,-1.8929074,-1.1953988,-1.4342499,1.2599434,-3.4989946,3 .7468811,-1.4556425,-3.117872,-0.6986309,-3.1213348,5.4060809,-6.58167 09,-2.4675632,2.5544874,0.433681,-2.4513629,-3.1195781,1.6571542,1.221 1391,0.9686055,2.805496,5.8069718,-1.5878316,0.4123598,-3.8323017,0.83 39542,2.1365644,-0.8117322,2.0163306,-0.4677509,0.0689884,-0.8559278,- 0.3808065,-2.165042,0.5234184,-0.3247857,2.8299829,-1.3308476,-3.86400 12,-2.316251,-1.6378667,-1.3548045,-2.13787,-1.1632863,-1.8947356,-1.0 266433,-0.9224394,-1.7892259,-0.9612658,-1.5693044,-0.8346375,-0.63935 2,-0.5219142,-0.872962,-1.1712344,-1.9749702,-3.7036232,-1.01884,2.337 7225,-2.1841671,0.121078,3.6273368,0.005996,3.4958961,-5.9197255,-2.14 38138,4.0367628,-0.9046809,-2.5762488,3.5447123,0.479903,1.985262,0.27 30961,-1.7870783,-3.4393109,7.181534,-1.1735478,0.131893,2.818315,-0.4 346834,1.4328942,1.1100427,1.0335979,0.0747206,0.7700473,0.5640913,0.0 247085,2.3210376,-0.4387151,0.0897811,2.5245693,-0.5890103,2.2128623,- 0.6559438,-0.8695418,-0.05289,1.6530003,-0.0576779,0.2631373,-0.494112 6,0.4194981,-0.6535505,-0.1427595,2.2454531,-0.9463597,0.132905,0.3123 429,0.6992283,-0.6755037,-2.4330808,9.5762953,-5.2714541,-2.7069218,-1 .5759736,0.1905276,0.1413725,-0.5273629,-1.7843586,-1.8333281,-1.88594 25,-0.447987,0.0947483,-0.0725859,-1.2053777,-0.4929303,-0.6341631,-1. 3803513,-1.0133038,0.0695727,1.0183743,-1.4198371,-0.4037075,-2.461741 7,-1.2241129,-0.5466116,-3.2977746,4.3118494,1.8498777,-4.3312477,4.18 47469,2.5150551,-0.3081348,-4.2120955,2.7395062,1.8943619,1.1909951,1. 4348816,-1.2569018,3.4893248,-3.7424071,1.458907,3.1171216,0.7021362,3 .1177049,-5.405415,6.5840019,2.4676285,-2.558564,-0.4317399,2.44538,3. 1281838,-1.6641363,-1.2221492,-0.9638356,-2.8075406,-5.8101692,1.58720 92,-0.4123241,3.8324262,-0.8336181,-2.1355054,0.8116985,-2.0169137,0.4 684778,-0.0688007,0.8548669,0.3803091,2.1651465,-0.5232928,0.3241369,- 2.8292278,1.3297083,3.8618279,2.3145179,1.636178,1.3529419,2.1376257,1 .1630075,1.8954872,1.0270772,0.9198682,1.7890995,0.9622309,1.5684665,0 .8340866,0.6396286,0.5215047,0.8723861,1.1708134,1.974982,3.7058159,1. 0137096,-2.32607,2.1816061,-0.1271585,-3.6267508,-0.0080748,-3.4887107 ,5.9124009,2.1572588,-4.0319304,0.9061873,2.5733611,-3.5436764,-0.4812 673,-1.9810018,-0.2761258,1.7836291,3.4401307,-7.1792523,1.1750587,-0. 1325129,-2.8197742,0.4355264,-1.4339961,-1.1080819,-1.0339378,-0.07395 53,-0.7699389,-0.5640373,-0.0248672,-2.3221544,0.4397852,-0.0902037,-2 .5257782,0.5901032,-2.2153424,0.6571377,0.8701116,0.0528582,-1.6526728 ,0.057103,-0.2607297,0.4939673,-0.4180429,0.6548078,0.1414889,-2.24706 94,0.948863,-0.1330213,-0.3133471,-0.7007794,0.6782603,2.4359143,-9.57 49444,5.2716336,2.7051418,1.5750611,-0.188601,-0.1402657,0.5269914,1.7 822944,1.8337912,1.8815647,0.4479061,-0.0935332,0.0728727,1.2066389,0. 4928823,0.6346002,1.381055,1.013588,-0.0678697\HyperPolar=-0.0099297,- 0.0012251,-0.0119153,-0.0204608,0.0016426,-0.000155,-0.0135055,0.02167 51,0.0141529,-0.0136739\PG=C01 [X(C6H10)]\NImag=1\\0.71564129,0.089534 92,0.10747650,-0.02450815,0.10285359,0.74715244,-0.13570232,0.02812405 ,-0.04174661,0.76447168,-0.00744851,-0.06034874,0.02155291,-0.00137181 ,0.21049013,0.00517358,-0.05367414,-0.36186655,0.02304613,-0.01399097, 0.73214104,-0.28882680,0.01224453,0.13611199,0.00524655,-0.00107378,-0 .00556229,0.30261619,0.01715577,-0.03690807,-0.02304210,-0.01278549,0. 00254152,0.01359559,-0.01582084,0.04308614,0.12760687,-0.01017507,-0.1 4605114,0.03664780,-0.00554530,-0.01333727,-0.14561893,0.01116617,0.15 403191,-0.26885880,-0.07815109,-0.12305307,0.00132558,0.00070037,-0.00 162783,-0.02090270,-0.00934344,-0.01635084,0.28303773,-0.08364910,-0.0 5619867,-0.06160841,0.00343656,0.00353840,0.02096037,0.00352365,0.0023 2229,0.00234958,0.07994106,0.07440472,-0.12038085,-0.04460111,-0.14193 567,-0.03422314,-0.01119020,-0.01657650,0.01569399,0.00698384,0.011484 78,0.13621955,0.04774238,0.15003019,0.01524286,-0.05257256,0.05355912, -0.30559705,0.00519371,0.07492131,0.00119201,0.00547832,-0.00215659,-0 .00027095,0.00810719,-0.00122499,0.70799378,-0.01449160,0.07257273,-0. 04963851,-0.03843305,-0.06261316,0.06050029,-0.00066187,-0.00034712,0. 00120088,0.00220509,-0.01194248,0.00091570,0.14927205,0.11343035,0.038 22482,0.02204485,-0.05005571,0.12168106,-0.01048320,-0.18983684,-0.000 83270,-0.00016924,-0.00707669,0.00126288,-0.00351295,0.00155178,-0.017 76606,-0.01106897,0.74885194,0.00221230,-0.00034419,0.00283999,-0.2971 3879,-0.01739680,-0.11925322,0.00126586,0.00054959,-0.00047627,0.00129 645,-0.00038200,0.00073695,-0.02557712,-0.00517281,-0.01716568,0.31899 010,0.00318758,0.00493906,0.00328651,-0.02605703,-0.04503994,-0.013013 48,0.00028516,-0.00517320,0.00031576,-0.00116176,0.00672220,-0.0006749 9,0.00296110,0.00476430,0.00010279,0.02129863,0.03106760,-0.03613378,- 0.00609884,-0.01588027,-0.11947956,-0.00846188,-0.13382739,0.00060396, -0.00050371,0.00130246,0.00031999,0.00240085,-0.00563137,0.02211139,0. 00336060,0.01209147,0.12947227,0.01007950,0.14169856,-0.00587880,0.000 38805,0.00259246,0.00721934,-0.00651598,0.03545000,0.00005597,0.000268 29,0.00159448,0.00002387,0.00004974,0.00024072,-0.06860376,-0.00108414 ,-0.02491414,0.00134061,0.00058334,-0.00052645,0.06581619,0.00268201,- 0.00040962,0.00464371,0.00430113,0.00311486,-0.01672635,0.00046776,0.0 0083178,0.00010283,0.00034148,0.00068689,0.00087623,-0.00923297,-0.039 41060,0.03991427,0.00001541,-0.00518798,0.00046572,-0.00005272,0.04521 659,0.00413529,-0.00115616,0.00006232,-0.00678626,0.00286521,-0.015879 25,-0.00020029,0.00039305,-0.00088121,-0.00009678,0.00008045,0.0003573 5,-0.01648835,0.02875666,-0.36374229,0.00054548,-0.00019242,0.00123978 ,0.01828152,-0.03298498,0.38866334,0.00089502,0.00237528,-0.00218142,- 0.02776483,-0.00889906,-0.01445208,0.00029560,0.00090396,0.00007547,0. 00079325,-0.00091233,0.00136363,-0.29277175,-0.08201724,-0.10380081,-0 .00290774,-0.00157114,0.00360850,0.00062960,0.00037332,0.00074485,0.31 660106,0.00197142,-0.01225250,0.00811292,0.01778210,0.00384495,-0.0097 4209,0.00009835,0.00071826,0.00002236,-0.00122064,0.00136869,-0.000181 82,-0.09902718,-0.05707456,-0.03366203,0.00141919,0.00680386,-0.001264 21,0.00515253,0.00282892,0.00210707,0.08535469,0.07486835,0.00045177,0 .00079513,0.00068187,0.01889715,0.00698218,0.01221323,-0.00029076,-0.0 0019737,0.00005581,-0.00009532,-0.00084267,-0.00014756,-0.10705226,-0. 03886271,-0.11710995,0.00328963,-0.00016898,-0.00150562,-0.03083890,-0 .01179619,-0.01055585,0.11315870,0.03946961,0.11598861,-0.00564987,0.0 1474933,-0.01024235,-0.01746867,0.01393948,0.02353065,-0.00022959,-0.0 0057546,-0.00031950,0.00038911,-0.00097551,0.00000766,-0.01309537,-0.0 3020969,-0.00755826,-0.00016852,0.00037087,-0.00031184,-0.00038624,0.0 0390968,-0.00032871,0.00193160,-0.01014827,0.00066387,0.71560980,0.014 74256,-0.07196726,0.05588132,0.06166273,-0.01527979,-0.08982771,0.0005 5993,0.00606493,0.00042176,-0.00112339,0.00880046,-0.00013497,-0.08261 892,0.09350176,0.02271909,-0.00036836,0.00071956,-0.00067876,0.0009601 8,-0.01324108,-0.00142455,0.00451874,-0.02751383,0.00303552,0.08947688 ,0.10743958,-0.01023559,0.05587788,-0.04267031,-0.03682632,0.00004302, 0.05319284,-0.00035703,-0.00473708,0.00036159,0.00076837,-0.00715612,0 .00036190,0.04525026,-0.07439164,-0.04254102,-0.00046731,0.00054558,0. 00046119,-0.00156043,0.01972816,0.00004006,-0.00013406,0.00394828,-0.0 0128738,-0.02447751,0.10276698,0.74721639,-0.01746982,0.06168871,-0.03 684541,-0.02358952,0.00854107,0.04348305,0.00030913,-0.00469691,-0.000 35662,0.00298454,-0.00837305,0.00036237,0.02484921,-0.03780956,-0.0070 0484,0.00018904,0.00026958,0.00057761,0.00009657,0.00162619,0.00079328 ,0.00060526,0.00377003,0.00096261,-0.13571417,0.02816095,-0.04166162,0 .76437120,0.01394773,-0.01527816,0.00004340,0.00853669,-0.01542291,0.0 0684980,0.00020741,-0.00227535,-0.00047073,0.00276171,-0.00049554,-0.0 0152822,0.01157921,-0.02043711,0.01002535,-0.00024596,0.00039186,-0.00 009576,-0.00021438,-0.00198057,0.00037140,0.00024536,-0.00001158,0.003 07207,-0.00745564,-0.06036376,0.02160926,-0.00151923,0.21047293,0.0235 2299,-0.08981011,0.05318079,0.04344842,0.00684019,-0.08290117,0.000609 18,0.00518901,-0.00013584,-0.00070122,0.01035976,-0.00016084,-0.067336 38,0.09901625,0.01604500,0.00056419,0.00017307,-0.00059617,-0.00009268 ,-0.00689371,-0.00021290,0.00222863,-0.01282481,0.00173695,0.00529138, -0.05360466,-0.36194267,0.02310863,-0.01409324,0.73218715,-0.00022952, 0.00056162,-0.00035860,0.00030817,0.00020820,0.00061133,-0.00002504,0. 00009545,-0.00001649,-0.00000461,-0.00007525,-0.00000566,-0.00135860,- 0.00039042,0.00023378,0.00019206,0.00000200,-0.00007297,-0.00036189,0. 00039728,-0.00052132,0.00053941,0.00013456,0.00022330,-0.28886481,0.01 224337,0.13602768,0.00523272,-0.00106971,-0.00555297,0.30266410,-0.000 57327,0.00605659,-0.00473023,-0.00468830,-0.00227434,0.00518259,0.0000 9576,-0.00069405,0.00004158,0.00007098,-0.00085233,0.00005321,0.018738 79,-0.01255269,-0.00851719,0.00004081,0.00001199,0.00029033,0.00016685 ,0.00139638,0.00038646,-0.00025827,0.00185542,-0.00092221,0.01715673,- 0.03692616,-0.02301949,-0.01278983,0.00254674,0.01358342,-0.01581365,0 .04308042,-0.00031992,0.00042451,0.00035964,-0.00035744,-0.00047034,-0 .00013367,-0.00001657,0.00004145,-0.00003660,0.00005078,-0.00001471,-0 .00002308,-0.00041937,0.00103293,0.00034902,0.00009430,0.00001017,-0.0 0000617,-0.00021514,-0.00003604,0.00016438,-0.00013747,-0.00042609,-0. 00020326,0.12752644,-0.01015352,-0.14595831,0.03664974,-0.00554455,-0. 01332297,-0.14553622,0.01114642,0.15392440,0.00038918,-0.00112336,0.00 076771,0.00298281,0.00276754,-0.00069946,-0.00000457,0.00007092,0.0000 5080,-0.00008026,0.00018816,-0.00000867,-0.00006758,0.00555073,0.00245 000,0.00014496,-0.00055016,0.00000475,0.00010305,-0.00096364,0.0004970 7,0.00008487,0.00075349,0.00036004,-0.26882049,-0.07808360,-0.12314161 ,0.00134084,0.00070859,-0.00161904,-0.02090374,-0.00933882,-0.01636172 ,0.28298841,-0.00097724,0.00881001,-0.00716499,-0.00837597,-0.00049956 ,0.01037319,-0.00007517,-0.00085439,-0.00001406,0.00018836,-0.00114127 ,0.00014196,-0.00196723,-0.02706694,-0.01168663,0.00065898,-0.00009749 ,0.00000494,-0.00032038,0.00179963,0.00042580,0.00077316,-0.00188645,0 .00034794,-0.08357850,-0.05611088,-0.06161344,0.00342958,0.00353325,0. 02098148,0.00352035,0.00231985,0.00234772,0.07985689,0.07436767,0.0000 0822,-0.00013395,0.00036096,0.00036089,-0.00152799,-0.00015885,-0.0000 0576,0.00005312,-0.00002313,-0.00000877,0.00014189,0.00004483,0.001076 92,0.00088609,0.00024964,0.00013382,-0.00002719,0.00011309,0.00016290, 0.00037947,0.00029088,-0.00015596,0.00035928,-0.00000840,-0.12046707,- 0.04459599,-0.14205628,-0.03421610,-0.01118105,-0.01658809,0.01568506, 0.00697846,0.01148569,0.13630685,0.04773300,0.15015919,-0.01314431,-0. 08257044,0.04521451,0.02481170,0.01157200,-0.06731238,-0.00136211,0.01 874943,-0.00042234,-0.00006476,-0.00199313,0.00107832,-0.04265476,0.05 436191,0.01631376,-0.00010384,0.00066038,-0.00048480,-0.00006670,-0.00 433185,-0.00059545,0.00089299,-0.00663677,0.00028055,0.01522627,-0.052 54659,0.05355155,-0.30559633,0.00524559,0.07487014,0.00119417,0.005470 09,-0.00215189,-0.00026899,0.00811129,-0.00122463,0.70806948,-0.030194 88,0.09353269,-0.07439802,-0.03778316,-0.02044348,0.09905439,-0.000383 90,-0.01257992,0.00103639,0.00555089,-0.02702260,0.00088942,0.05439853 ,-0.06794425,-0.02174574,-0.00077102,0.00071882,0.00008364,0.00055117, 0.00587379,0.00043901,-0.00090836,0.00853761,-0.00049218,-0.01451218,0 .07259083,-0.04964373,-0.03842543,-0.06261743,0.06050949,-0.00066452,- 0.00033879,0.00120292,0.00220439,-0.01195588,0.00091443,0.14908660,0.1 1333440,-0.00757346,0.02273474,-0.04256446,-0.00700065,0.01003485,0.01 605373,0.00023734,-0.00852860,0.00034986,0.00245262,-0.01168150,0.0002 5090,0.01633246,-0.02174897,-0.00969569,-0.00038674,0.00000244,0.00040 289,-0.00040261,0.00243545,0.00038470,-0.00033764,0.00360734,0.0001292 3,0.03822534,0.02205121,-0.05004120,0.12157088,-0.01048232,-0.18970381 ,-0.00083051,-0.00016581,-0.00707668,0.00126329,-0.00351845,0.00155078 ,-0.01764741,-0.01126144,0.74884079,-0.00016754,-0.00036861,-0.0004666 7,0.00018907,-0.00024635,0.00056415,0.00019200,0.00004064,0.00009431,0 .00014512,0.00065946,0.00013353,-0.00010247,-0.00076996,-0.00038646,0. 00001497,0.00005039,0.00004869,0.00006172,0.00026240,0.00002348,0.0001 8650,0.00038459,-0.00000020,0.00222491,-0.00034150,0.00284704,-0.29705 553,-0.01730529,-0.11931653,0.00126623,0.00054859,-0.00047603,0.001295 77,-0.00038199,0.00073904,-0.02557942,-0.00516153,-0.01717977,0.318898 41,0.00037070,0.00072276,0.00054327,0.00026900,0.00039185,0.00017570,0 .00000212,0.00001175,0.00001042,-0.00054953,-0.00009833,-0.00002736,0. 00066103,0.00071474,0.00000058,0.00005062,-0.00056282,0.00001386,0.000 00315,0.00002351,-0.00000746,-0.00033188,-0.00010097,-0.00044456,0.003 19566,0.00494472,0.00328763,-0.02596558,-0.04502208,-0.01296954,0.0002 8432,-0.00517603,0.00031420,-0.00116083,0.00672448,-0.00067350,0.00296 275,0.00475768,0.00010608,0.02119466,0.03105314,-0.00031238,-0.0006788 4,0.00046118,0.00057761,-0.00009557,-0.00059635,-0.00007284,0.00029062 ,-0.00000605,0.00000454,0.00000513,0.00011311,-0.00048501,0.00008474,0 .00040143,0.00004850,0.00001377,-0.00004915,0.00018302,-0.00013127,0.0 0011274,0.00007877,0.00053433,0.00007389,-0.03612724,-0.00608603,-0.01 589040,-0.11954304,-0.00841958,-0.13391862,0.00060392,-0.00050461,0.00 130233,0.00032281,0.00240270,-0.00563042,0.02210006,0.00335093,0.01209 382,0.12954018,0.01003210,0.14179661,-0.00038447,0.00095707,-0.0015545 5,0.00009657,-0.00021533,-0.00009505,-0.00036148,0.00016803,-0.0002153 6,0.00010148,-0.00031906,0.00016270,-0.00006739,0.00055264,-0.00040213 ,0.00006215,0.00000338,0.00018318,-0.00005242,0.00010212,0.00000255,0. 00000292,-0.00003792,0.00004280,-0.00588115,0.00038957,0.00259265,0.00 720902,-0.00653269,0.03545127,0.00005549,0.00026878,0.00159494,0.00002 372,0.00004964,0.00024089,-0.06858563,-0.00107665,-0.02481051,0.001340 59,0.00058183,-0.00052635,0.06579910,0.00390589,-0.01324564,0.01973141 ,0.00162263,-0.00198220,-0.00689580,0.00039745,0.00139860,-0.00003543, -0.00096469,0.00179992,0.00037633,-0.00433700,0.00587433,0.00243634,0. 00026267,0.00002297,-0.00013174,0.00010228,-0.00069335,0.00002746,0.00 010311,-0.00085085,-0.00000392,0.00268862,-0.00041530,0.00464483,0.004 30954,0.00311898,-0.01673374,0.00046823,0.00083066,0.00010226,0.000340 78,0.00068833,0.00087673,-0.00923284,-0.03942906,0.04007351,0.00001317 ,-0.00518584,0.00046420,-0.00005760,0.04523638,-0.00032295,-0.00142915 ,0.00004858,0.00079325,0.00037102,-0.00021745,-0.00052209,0.00038691,0 .00016539,0.00049509,0.00042762,0.00028896,-0.00059844,0.00044241,0.00 038606,0.00002376,-0.00000798,0.00011249,0.00000250,0.00002724,-0.0000 0996,-0.00000617,-0.00008775,-0.00003392,0.00413461,-0.00115658,0.0000 6727,-0.00677486,0.00287237,-0.01587713,-0.00019965,0.00039326,-0.0008 8057,-0.00009679,0.00008103,0.00035758,-0.01639396,0.02890823,-0.36376 315,0.00054536,-0.00019550,0.00124000,0.01817025,-0.03314725,0.3886854 1,0.00193160,0.00450671,-0.00012896,0.00060972,0.00024524,0.00222211,0 .00053899,-0.00025827,-0.00013678,0.00008494,0.00077362,-0.00015610,0. 00088894,-0.00090208,-0.00033521,0.00018750,-0.00033231,0.00007906,0.0 0000287,0.00010240,-0.00000636,-0.00001376,0.00024983,-0.00005299,0.00 089718,0.00236747,-0.00217606,-0.02776217,-0.00888939,-0.01447603,0.00 029585,0.00090475,0.00007557,0.00079202,-0.00091178,0.00136369,-0.2927 6776,-0.08190995,-0.10391264,-0.00291032,-0.00156801,0.00360745,0.0006 4149,0.00037775,0.00075008,0.31658293,-0.01016398,-0.02750168,0.003933 22,0.00375993,-0.00001760,-0.01282138,0.00013344,0.00185683,-0.0004271 3,0.00075459,-0.00189234,0.00035961,-0.00663406,0.00853069,0.00360267, 0.00038524,-0.00010079,0.00053547,-0.00003796,-0.00084913,-0.00008700, 0.00025066,-0.00113529,0.00002834,0.00196799,-0.01224379,0.00810988,0. 01778395,0.00384073,-0.00972287,0.00009816,0.00071633,0.00002266,-0.00 122109,0.00136963,-0.00018280,-0.09890842,-0.05701440,-0.03365851,0.00 142134,0.00680143,-0.00126260,0.00516619,0.00283207,0.00211411,0.08524 402,0.07480731,0.00066354,0.00302667,-0.00128367,0.00096766,0.00307607 ,0.00173046,0.00022280,-0.00092166,-0.00020386,0.00036002,0.00034833,- 0.00000878,0.00027599,-0.00048575,0.00013186,0.00000033,-0.00044453,0. 00007421,0.00004274,-0.00000454,-0.00003409,-0.00005295,0.00002761,-0. 00002765,0.00045252,0.00078689,0.00068634,0.01889431,0.00697181,0.0122 1034,-0.00029067,-0.00019619,0.00005586,-0.00009602,-0.00084219,-0.000 14747,-0.10717602,-0.03884774,-0.11721171,0.00328988,-0.00016593,-0.00 150410,-0.03083729,-0.01178518,-0.01056956,0.11328315,0.03945633,0.116 10181\\0.00003167,0.00005894,-0.00004646,0.00004097,-0.00001650,0.0000 1178,-0.00001463,-0.00000438,-0.00001019,-0.00000261,-0.00000249,-0.00 001045,0.00001045,0.00009354,0.00004470,0.00000430,0.00000103,0.000002 53,-0.00001596,-0.00000003,0.00001162,-0.00002478,0.00001285,0.0000042 5,-0.00004279,-0.00010458,0.00003986,-0.00002886,0.00003330,-0.0000304 3,-0.00000487,0.00001938,0.00002287,0.00000400,-0.00003238,0.00001110, 0.00002053,-0.00004362,-0.00004792,-0.00000782,-0.00000229,-0.00000419 ,0.00001364,0.00000635,0.00000346,0.00001676,-0.00001912,-0.00000253\\ \@ Sometimes the fool who rushes in gets the job done.                                    -- Al Bernstein<module cmlx:lineCount="3" cmlx:templateRef="jobcpu"><scalar dictRef="cc:jobtime" dataType="xsd:string">PT17.700S</scalar><scalar dataType="xsd:date" dictRef="cc:jobdatetime.end">2010-03-15T14:09:21Z</scalar><scalar dataType="xsd:string" dictRef="cc:program">Gaussian 09</scalar></module></module>
