 Entering Gaussian System, Link 0=g03
 Initial command:
 /apps/gaussian/g09/g09/l1.exe /home/scan-user-1/run/26233/Gau-20395.inp -scrdir=/home/scan-user-1/run/26233/
 Entering Link 1 = /apps/gaussian/g09/g09/l1.exe PID=     20396.
  
 Copyright (c) 1988,1990,1992,1993,1995,1998,2003,2009, Gaussian, Inc.
                  All Rights Reserved.
  
 This is part of the Gaussian(R) 09 program.  It is based on
 the Gaussian(R) 03 system (copyright 2003, Gaussian, Inc.),
 the Gaussian(R) 98 system (copyright 1998, Gaussian, Inc.),
 the Gaussian(R) 94 system (copyright 1995, Gaussian, Inc.),
 the Gaussian 92(TM) system (copyright 1992, Gaussian, Inc.),
 the Gaussian 90(TM) system (copyright 1990, Gaussian, Inc.),
 the Gaussian 88(TM) system (copyright 1988, Gaussian, Inc.),
 the Gaussian 86(TM) system (copyright 1986, Carnegie Mellon
 University), and the Gaussian 82(TM) system (copyright 1983,
 Carnegie Mellon University). Gaussian is a federally registered
 trademark of Gaussian, Inc.
  
 This software contains proprietary and confidential information,
 including trade secrets, belonging to Gaussian, Inc.
  
 This software is provided under written license and may be
 used, copied, transmitted, or stored only in accord with that
 written license.
  
 The following legend is applicable only to US Government
 contracts under FAR:
  
                    RESTRICTED RIGHTS LEGEND
  
 Use, reproduction and disclosure by the US Government is
 subject to restrictions as set forth in subparagraphs (a)
 and (c) of the Commercial Computer Software - Restricted
 Rights clause in FAR 52.227-19.
  
 Gaussian, Inc.
 340 Quinnipiac St., Bldg. 40, Wallingford CT 06492
  
  
 ---------------------------------------------------------------
 Warning -- This program may not be used in any manner that
 competes with the business of Gaussian, Inc. or will provide
 assistance to any competitor of Gaussian, Inc.  The licensee
 of this program is prohibited from giving any competitor of
 Gaussian, Inc. access to this program.  By using this program,
 the user acknowledges that Gaussian, Inc. is engaged in the
 business of creating and licensing software in the field of
 computational chemistry and represents and warrants to the
 licensee that it is not a competitor of Gaussian, Inc. and that
 it will not use this program in any manner prohibited above.
 ---------------------------------------------------------------
  

 Cite this work as:
 Gaussian 09, Revision A.02,
 M. J. Frisch, G. W. Trucks, H. B. Schlegel, G. E. Scuseria, 
 M. A. Robb, J. R. Cheeseman, G. Scalmani, V. Barone, B. Mennucci, 
 G. A. Petersson, H. Nakatsuji, M. Caricato, X. Li, H. P. Hratchian, 
 A. F. Izmaylov, J. Bloino, G. Zheng, J. L. Sonnenberg, M. Hada, 
 M. Ehara, K. Toyota, R. Fukuda, J. Hasegawa, M. Ishida, T. Nakajima, 
 Y. Honda, O. Kitao, H. Nakai, T. Vreven, J. A. Montgomery, Jr., 
 J. E. Peralta, F. Ogliaro, M. Bearpark, J. J. Heyd, E. Brothers, 
 K. N. Kudin, V. N. Staroverov, R. Kobayashi, J. Normand, 
 K. Raghavachari, A. Rendell, J. C. Burant, S. S. Iyengar, J. Tomasi, 
 M. Cossi, N. Rega, J. M. Millam, M. Klene, J. E. Knox, J. B. Cross, 
 V. Bakken, C. Adamo, J. Jaramillo, R. Gomperts, R. E. Stratmann, 
 O. Yazyev, A. J. Austin, R. Cammi, C. Pomelli, J. W. Ochterski, 
 R. L. Martin, K. Morokuma, V. G. Zakrzewski, G. A. Voth, 
 P. Salvador, J. J. Dannenberg, S. Dapprich, A. D. Daniels, 
 O. Farkas, J. B. Foresman, J. V. Ortiz, J. Cioslowski, 
 and D. J. Fox, Gaussian, Inc., Wallingford CT, 2009.
 
 ******************************************
 Gaussian 09:  EM64L-G09RevA.02 11-Jun-2009
                15-Mar-2010 
 ******************************************
 %nprocshared=4
 Will use up to    4 processors via shared memory.
 %mem=7000MB
 %NoSave
 %Chk=chk.chk
 %rwf=/tmp/pbs.3646717.cx1/rwf
 ------------------------------------------------
 # b3lyp/lanl2dz pop=(nbo,full) geom=connectivity
 ------------------------------------------------
 1/38=1,57=2/1;
 2/12=2,17=6,18=5,40=1/2;
 3/5=6,6=3,11=2,16=1,25=1,30=1,74=-5/1,2,3;
 4//1;
 5/5=2,38=5/2;
 6/7=3,28=1/1,7;
 99/5=1,9=1/99;
 -----------------------
 terminal me (same side)
 -----------------------
 Symbolic Z-matrix:
 Charge =  0 Multiplicity = 1
 Mg                    0.36496  -0.06293   0.06466 
 Br                   -1.08971  -1.34939   1.66933 
 Br                   -0.8256    0.49638  -2.09687 
 C                     2.2576    0.50793   2.69643 
 O                     1.90324  -1.24825  -0.45214 
 Mg                   -3.29077   0.40788  -0.03135 
 C                    -2.74324   2.21945   0.93708 
 C                    -4.67629  -0.96842  -0.81397 
 C                     2.74256  -0.92747  -1.64078 
 O                     1.10109   1.6507    0.82251 
 C                     4.09342  -0.34484  -1.2229 
 C                     2.09812  -2.62095   0.10715 
 C                     1.30943  -3.66908  -0.67837 
 C                     1.58885   1.79599   2.2233 
 C                     0.77127   2.97032   0.18364 
 C                     2.01432   3.60716  -0.43504 
 H                     2.67172   0.67188   3.69931 
 H                     3.07952   0.22124   2.03048 
 H                     1.5386   -0.31594   2.77067 
 H                    -2.65255   3.05797   0.22391 
 H                    -1.79725   2.14553   1.50222 
 H                    -3.52468   2.49517   1.6676 
 H                    -4.16765  -1.84861  -1.24133 
 H                    -5.37149  -1.33437  -0.03879 
 H                    -5.28582  -0.51986  -1.61757 
 H                     2.85477  -1.84481  -2.22887 
 H                     2.15263  -0.21909  -2.23082 
 H                     4.68265  -0.10627  -2.1181 
 H                     3.958     0.57703  -0.64625 
 H                     4.67261  -1.05322  -0.61848 
 H                     1.74309  -2.55966   1.13908 
 H                     3.17637  -2.82151   0.10782 
 H                     1.48634  -4.65861  -0.23646 
 H                     1.61206  -3.71102  -1.73135 
 H                     0.23624  -3.46146  -0.62675 
 H                     0.72048   2.05036   2.8435 
 H                     2.29955   2.63011   2.23253 
 H                     0.31316   3.59669   0.95686 
 H                     0.01513   2.74553  -0.57111 
 H                     1.73602   4.56609  -0.89139 
 H                     2.42868   2.96783  -1.22302 
 H                     2.79648   3.80477   0.30816 
 
                          Input orientation:                          
 ---------------------------------------------------------------------
 Center     Atomic      Atomic             Coordinates (Angstroms)
 Number     Number       Type             X           Y           Z
 ---------------------------------------------------------------------
      1         12           0        0.364960   -0.062926    0.064655
      2         35           0       -1.089706   -1.349390    1.669334
      3         35           0       -0.825603    0.496378   -2.096870
      4          6           0        2.257602    0.507929    2.696430
      5          8           0        1.903237   -1.248250   -0.452136
      6         12           0       -3.290769    0.407882   -0.031352
      7          6           0       -2.743242    2.219454    0.937083
      8          6           0       -4.676288   -0.968415   -0.813974
      9          6           0        2.742559   -0.927468   -1.640781
     10          8           0        1.101092    1.650696    0.822511
     11          6           0        4.093420   -0.344840   -1.222897
     12          6           0        2.098120   -2.620951    0.107149
     13          6           0        1.309431   -3.669076   -0.678371
     14          6           0        1.588852    1.795986    2.223297
     15          6           0        0.771266    2.970320    0.183642
     16          6           0        2.014321    3.607160   -0.435036
     17          1           0        2.671715    0.671881    3.699314
     18          1           0        3.079516    0.221244    2.030479
     19          1           0        1.538596   -0.315935    2.770674
     20          1           0       -2.652546    3.057970    0.223912
     21          1           0       -1.797253    2.145531    1.502217
     22          1           0       -3.524680    2.495173    1.667600
     23          1           0       -4.167654   -1.848609   -1.241328
     24          1           0       -5.371486   -1.334369   -0.038785
     25          1           0       -5.285824   -0.519859   -1.617571
     26          1           0        2.854774   -1.844807   -2.228874
     27          1           0        2.152628   -0.219089   -2.230816
     28          1           0        4.682647   -0.106270   -2.118098
     29          1           0        3.958001    0.577028   -0.646246
     30          1           0        4.672609   -1.053222   -0.618475
     31          1           0        1.743092   -2.559660    1.139080
     32          1           0        3.176366   -2.821511    0.107819
     33          1           0        1.486336   -4.658606   -0.236463
     34          1           0        1.612063   -3.711015   -1.731354
     35          1           0        0.236242   -3.461461   -0.626745
     36          1           0        0.720481    2.050360    2.843497
     37          1           0        2.299554    2.630106    2.232531
     38          1           0        0.313161    3.596692    0.956864
     39          1           0        0.015129    2.745532   -0.571112
     40          1           0        1.736020    4.566092   -0.891392
     41          1           0        2.428684    2.967833   -1.223022
     42          1           0        2.796483    3.804770    0.308159
 ---------------------------------------------------------------------
                    Distance matrix (angstroms):
                    1          2          3          4          5
     1  Mg   0.000000
     2  Br   2.519134   0.000000
     3  Br   2.530307   4.202488   0.000000
     4  C    3.291536   3.963462   5.699299   0.000000
     5  O    2.009568   3.669955   3.632553   3.622597   0.000000
     6  Mg   3.687171   3.290139   3.217334   6.183464   5.467863
     7  C    3.953645   4.000877   3.981357   5.570732   5.961935
     8  C    5.196738   4.378987   4.314999   7.910838   6.595406
     9  C    3.051053   5.081450   3.868738   4.594230   1.490047
    10  O    2.013141   3.810147   3.683394   2.480928   3.266810
    11  C    3.954577   6.019877   5.066386   4.411187   2.491410
    12  C    3.090168   3.770878   4.808700   4.064443   1.495021
    13  C    3.801109   4.080260   4.890963   5.453043   2.502836
    14  C    3.100516   4.168326   5.116876   1.526490   4.064991
    15  C    3.062650   4.932585   3.724395   3.819250   4.413831
    16  C    4.054579   6.215364   4.528115   4.412539   4.856711
    17  H    4.367128   4.728070   6.771838   1.097336   4.638103
    18  H    3.363634   4.469869   5.688643   1.096003   3.115513
    19  H    2.960401   3.031328   5.471953   1.096008   3.374712
    20  H    4.344042   4.894541   3.909668   6.060166   6.305215
    21  H    3.408670   3.569737   4.076424   4.533181   5.388030
    22  H    4.923678   4.550798   5.044941   6.200195   6.925950
    23  H    5.043694   4.265552   4.171357   7.895766   6.151339
    24  H    5.876570   4.609939   5.315299   8.311344   7.286966
    25  H    5.913546   5.394374   4.599569   8.750442   7.319248
    26  H    3.825513   5.567799   4.363914   5.490956   2.101928
    27  H    2.913646   5.196295   3.065892   4.981699   2.070041
    28  H    4.838255   7.014987   5.541160   5.425658   3.435792
    29  H    3.718180   5.878124   4.999368   3.750948   2.755245
    30  H    4.472493   6.206936   5.900614   4.388399   2.781209
    31  H    3.047510   3.125807   5.138962   3.478529   2.068190
    32  H    3.938992   4.775441   5.646662   4.316272   2.099895
    33  H    4.740088   4.606405   5.948112   5.990809   3.442506
    34  H    4.253171   4.943835   4.876266   6.149917   2.790411
    35  H    3.470539   3.389832   4.353536   5.557468   2.776268
    36  H    3.509179   4.026628   5.404855   2.182536   4.810503
    37  H    3.961661   5.257439   5.750053   2.172694   4.733513
    38  H    3.767164   5.190316   4.498224   4.043192   5.290282
    39  H    2.900693   4.796733   2.844901   4.551086   4.419208
    40  H    4.921548   7.038109   4.957586   5.441801   5.833308
    41  H    3.886202   6.275604   4.178766   4.630605   4.318069
    42  H    4.575005   6.597017   5.463436   4.106506   5.187384
                    6          7          8          9         10
     6  Mg   0.000000
     7  C    2.125899   0.000000
     8  C    2.103890   4.118905   0.000000
     9  C    6.385489   6.829532   7.464890   0.000000
    10  O    4.643502   3.887868   6.551026   3.925449   0.000000
    11  C    7.517487   7.614530   8.801355   1.529349   4.137618
    12  C    6.183295   6.896165   7.033630   2.517627   4.444409
    13  C    6.180782   7.328618   6.568165   3.239831   5.531367
    14  C    5.551664   4.538801   7.491255   4.866142   1.490376
    15  C    4.807540   3.671953   6.795934   4.733631   1.502780
    16  C    6.208246   5.142261   8.114415   4.748368   2.498632
    17  H    7.038379   6.272692   8.778012   5.574904   3.420662
    18  H    6.698247   6.252429   8.346179   3.861506   2.723358
    19  H    5.630100   5.303243   7.204180   4.613506   2.802568
    20  H    2.737783   1.104512   4.624339   6.961893   4.053213
    21  H    2.757145   1.104417   4.832209   6.319150   3.017825
    22  H    2.701469   1.104682   4.413712   7.870079   4.777560
    23  H    2.706422   4.829447   1.102761   6.982772   6.653138
    24  H    2.713831   4.526549   1.103694   8.280681   7.179604
    25  H    2.712386   4.527120   1.103859   8.038757   7.173424
    26  H    6.904449   7.607844   7.712775   1.095425   4.960332
    27  H    5.904346   6.320729   7.014487   1.094514   3.731572
    28  H    8.257979   8.359842   9.488609   2.160125   4.955971
    29  H    7.276769   7.078923   8.773111   2.174835   3.387025
    30  H    8.117569   8.253788   9.351325   2.187697   4.705672
    31  H    5.959528   6.558043   6.896008   3.374998   4.270770
    32  H    7.229950   7.819256   8.120828   2.614037   4.981785
    33  H    6.966499   8.159304   7.206175   4.179904   6.409144
    34  H    6.625185   7.826858   6.921474   3.005721   5.960811
    35  H    5.269356   6.602702   5.512103   3.705538   5.383536
    36  H    5.201213   3.957320   7.184373   5.750218   2.094989
    37  H    6.427687   5.222702   8.419793   5.277796   2.093731
    38  H    4.912575   3.352428   6.990756   5.754803   2.103755
    39  H    4.084717   3.187479   5.988470   4.698297   2.078501
    40  H    6.580197   5.377157   8.470800   5.635060   3.440949
    41  H    6.378524   5.654639   8.132773   3.930192   2.771562
    42  H    6.979166   5.796320   8.937829   5.118139   2.789076
                   11         12         13         14         15
    11  C    0.000000
    12  C    3.306195   0.000000
    13  C    4.370086   1.528934   0.000000
    14  C    4.767835   4.924101   6.193921   0.000000
    15  C    4.899525   5.747060   6.716716   2.491526   0.000000
    16  C    4.534499   6.252228   7.314348   3.244705   1.527584
    17  H    5.223325   4.906669   6.313783   2.148216   4.610258
    18  H    3.454404   3.569371   5.060203   2.176941   4.036861
    19  H    4.740946   3.566585   4.815805   2.182283   4.252176
    20  H    7.692882   7.404904   7.859041   4.855883   3.425170
    21  H    6.951850   6.311854   6.943782   3.479633   3.002700
    22  H    8.628794   7.760516   8.177419   5.190941   4.569797
    23  H    8.396845   6.455604   5.799093   7.643563   7.045960
    24  H    9.589877   7.581003   7.105954   7.960053   7.504214
    25  H    9.389176   7.868410   7.368653   8.208324   7.219007
    26  H    2.190008   2.575253   2.849579   5.888952   5.774659
    27  H    2.190522   3.352312   3.876013   4.921127   4.232032
    28  H    1.097948   4.237349   5.113217   5.660199   5.482911
    29  H    1.095767   3.775425   5.004533   3.915738   4.070853
    30  H    1.096627   3.100371   4.261132   5.069833   5.661516
    31  H    4.001050   1.093016   2.173015   4.491210   5.695436
    32  H    2.957312   1.096740   2.195884   5.321346   6.271807
    33  H    5.136002   2.155084   1.098065   6.908161   7.673873
    34  H    4.212695   2.191936   1.096412   6.779887   7.001028
    35  H    4.994652   2.170633   1.094305   6.131317   6.504674
    36  H    5.800798   5.586290   6.742578   1.097006   2.814913
    37  H    4.899821   5.668459   7.009521   1.095874   2.578635
    38  H    5.880254   6.524353   7.513849   2.544363   1.095479
    39  H    5.158263   5.796381   6.544763   3.344692   1.091754
    40  H    5.457516   7.265108   8.248960   4.170903   2.152426
    41  H    3.707445   5.754401   6.752624   3.735727   2.173878
    42  H    4.609278   6.466684   7.683940   3.026770   2.193927
                   16         17         18         19         20
    16  C    0.000000
    17  H    5.112815   0.000000
    18  H    4.321786   1.776059   0.000000
    19  H    5.088572   1.766950   1.791894   0.000000
    20  H    4.745047   6.791141   6.645843   5.952722   0.000000
    21  H    4.518562   5.193318   5.269233   4.335399   1.788333
    22  H    6.028111   6.771083   6.994129   5.895410   1.778087
    23  H    8.284464   8.805668   8.216476   7.141886   5.340131
    24  H    8.895272   9.093487   8.838621   7.528579   5.172455
    25  H    8.468931   9.644270   9.156223   8.116094   4.808958
    26  H    5.800703   6.442875   4.739321   5.391220   7.770711
    27  H    4.228964   6.019113   4.383110   5.039972   6.313042
    28  H    4.872599   6.204164   4.459595   5.816280   8.324811
    29  H    3.606134   4.532926   2.839573   4.280916   7.114182
    30  H    5.368362   5.061903   3.343526   4.674608   8.442121
    31  H    6.370328   4.226109   3.211549   2.781766   7.191449
    32  H    6.555368   5.035603   3.600605   4.006370   8.279975
    33  H    8.284992   6.731237   5.611612   5.282461   8.768571
    34  H    7.442979   7.058668   5.636264   5.639169   8.235843
    35  H    7.291346   6.459941   5.357925   4.809669   7.181343
    36  H    3.853106   2.537704   3.093818   2.504789   4.388031
    37  H    2.855154   2.474793   2.540036   3.089953   5.361055
    38  H    2.198054   4.651702   4.494332   4.483330   3.102073
    39  H    2.181213   5.440038   4.746659   4.781325   2.801102
    40  H    1.097845   6.092207   5.405554   6.106054   4.772614
    41  H    1.096065   5.436897   4.307273   5.246427   5.283999
    42  H    1.096889   4.618495   3.985995   4.962506   5.500611
                   21         22         23         24         25
    21  H    0.000000
    22  H    1.770199   0.000000
    23  H    5.394348   5.267231   0.000000
    24  H    5.221066   4.581248   1.777572   0.000000
    25  H    5.385862   4.794204   1.776919   1.778575   0.000000
    26  H    7.175318   8.643805   7.091527   8.528094   8.270339
    27  H    5.926932   7.402479   6.601544   7.915879   7.469746
    28  H    7.756700   9.405277   9.062687  10.340085   9.989594
    29  H    6.340272   8.063726   8.500830   9.542629   9.359217
    30  H    7.522531   9.220238   8.897800  10.064737  10.022627
    31  H    5.899554   7.319842   6.411619   7.314774   7.820842
    32  H    7.166082   8.695060   7.530031   8.677491   8.937742
    33  H    7.752499   8.939367   6.393234   7.623605   8.055981
    34  H    7.508565   8.743900   6.092110   7.568566   7.601136
    35  H    6.332925   7.408781   4.730043   6.026345   6.334664
    36  H    2.854308   4.427413   7.468709   7.541618   7.910933
    37  H    4.189511   5.853124   8.599498   8.928650   9.071027
    38  H    2.618611   4.055553   7.386545   7.590908   7.410961
    39  H    2.818408   4.195803   6.249080   6.778244   6.313316
    40  H    4.906373   6.205813   8.724919   9.276800   8.700605
    41  H    5.095258   6.634881   8.167627   8.986324   8.475453
    42  H    5.028047   6.596986   9.102791   9.656440   9.366672
                   26         27         28         29         30
    26  H    0.000000
    27  H    1.770868   0.000000
    28  H    2.525055   2.535040   0.000000
    29  H    3.096305   2.530620   1.777176   0.000000
    30  H    2.554313   3.105757   1.773609   1.780211   0.000000
    31  H    3.618006   4.123371   5.026859   4.234622   3.733688
    32  H    2.552941   3.645525   3.820487   3.567861   2.427569
    33  H    3.709419   4.912301   5.872028   5.804215   4.826703
    34  H    2.296647   3.568644   4.751026   5.006815   4.203487
    35  H    3.469452   4.093721   5.766451   5.491927   5.047874
    36  H    6.742142   5.740217   6.705762   4.983026   6.102195
    37  H    6.343284   5.297260   5.665232   3.905500   5.227478
    38  H    6.798429   5.301427   6.500748   4.997318   6.565682
    39  H    5.646501   4.014037   5.684335   4.500477   6.010399
    40  H    6.643801   4.986539   5.658479   4.572737   6.346237
    41  H    4.935058   3.353853   3.915561   2.896106   4.644304
    42  H    6.193356   4.801290   4.973990   3.560664   5.289479
                   31         32         33         34         35
    31  H    0.000000
    32  H    1.785032   0.000000
    33  H    2.522621   2.519851   0.000000
    34  H    3.095509   2.573095   1.774383   0.000000
    35  H    2.490377   3.097329   1.774320   1.781943   0.000000
    36  H    5.020264   6.103313   7.421786   7.410642   6.531251
    37  H    5.332819   5.916361   7.738383   7.509650   7.038459
    38  H    6.322861   7.078994   8.423201   7.894064   7.234035
    39  H    5.835724   6.437883   7.556302   6.751545   6.211179
    40  H    7.409400   7.592740   9.251288   8.320541   8.170739
    41  H    6.050020   5.987209   7.747509   6.747761   6.818957
    42  H    6.504309   6.640184   8.581482   7.877150   7.760605
                   36         37         38         39         40
    36  H    0.000000
    37  H    1.789653   0.000000
    38  H    2.473143   2.550955   0.000000
    39  H    3.555326   3.618333   1.774262   0.000000
    40  H    4.616235   3.718132   2.525928   2.525566   0.000000
    41  H    4.505141   3.474418   3.102065   2.509911   1.773187
    42  H    3.716945   2.308675   2.575073   3.103391   1.772883
                   41         42
    41  H    0.000000
    42  H    1.783327   0.000000
 Stoichiometry    C10H26Br2Mg2O2
 Framework group  C1[X(C10H26Br2Mg2O2)]
 Deg. of freedom   120
 Full point group                 C1      NOp   1
 Largest Abelian subgroup         C1      NOp   1
 Largest concise Abelian subgroup C1      NOp   1
                         Standard orientation:                         
 ---------------------------------------------------------------------
 Center     Atomic      Atomic             Coordinates (Angstroms)
 Number     Number       Type             X           Y           Z
 ---------------------------------------------------------------------
      1         12           0        0.364960   -0.062926    0.064655
      2         35           0       -1.089706   -1.349390    1.669334
      3         35           0       -0.825603    0.496378   -2.096870
      4          6           0        2.257602    0.507929    2.696430
      5          8           0        1.903237   -1.248250   -0.452136
      6         12           0       -3.290769    0.407882   -0.031352
      7          6           0       -2.743242    2.219454    0.937083
      8          6           0       -4.676288   -0.968416   -0.813974
      9          6           0        2.742559   -0.927468   -1.640781
     10          8           0        1.101092    1.650696    0.822511
     11          6           0        4.093420   -0.344840   -1.222897
     12          6           0        2.098120   -2.620951    0.107149
     13          6           0        1.309431   -3.669076   -0.678371
     14          6           0        1.588852    1.795986    2.223297
     15          6           0        0.771266    2.970320    0.183642
     16          6           0        2.014321    3.607160   -0.435036
     17          1           0        2.671715    0.671881    3.699314
     18          1           0        3.079516    0.221244    2.030479
     19          1           0        1.538596   -0.315935    2.770674
     20          1           0       -2.652546    3.057970    0.223912
     21          1           0       -1.797253    2.145531    1.502217
     22          1           0       -3.524680    2.495173    1.667600
     23          1           0       -4.167654   -1.848609   -1.241328
     24          1           0       -5.371486   -1.334370   -0.038785
     25          1           0       -5.285824   -0.519860   -1.617571
     26          1           0        2.854774   -1.844807   -2.228874
     27          1           0        2.152628   -0.219089   -2.230816
     28          1           0        4.682647   -0.106270   -2.118098
     29          1           0        3.958001    0.577028   -0.646246
     30          1           0        4.672609   -1.053222   -0.618475
     31          1           0        1.743092   -2.559660    1.139080
     32          1           0        3.176366   -2.821511    0.107819
     33          1           0        1.486336   -4.658606   -0.236463
     34          1           0        1.612063   -3.711015   -1.731354
     35          1           0        0.236242   -3.461461   -0.626745
     36          1           0        0.720481    2.050360    2.843497
     37          1           0        2.299554    2.630106    2.232531
     38          1           0        0.313161    3.596692    0.956864
     39          1           0        0.015129    2.745532   -0.571112
     40          1           0        1.736020    4.566092   -0.891392
     41          1           0        2.428684    2.967833   -1.223022
     42          1           0        2.796483    3.804770    0.308159
 ---------------------------------------------------------------------
 Rotational constants (GHZ):      0.2643713      0.2075444      0.1917676
 Standard basis: LANL2DZ (5D, 7F)
 There are   192 symmetry adapted basis functions of A   symmetry.
 Integral buffers will be    131072 words long.
 Raffenetti 2 integral format.
 Two-electron integral symmetry is turned on.
   192 basis functions,   452 primitive gaussians,   192 cartesian basis functions
    60 alpha electrons       60 beta electrons
       nuclear repulsion energy       970.0429847354 Hartrees.
 NAtoms=   42 NActive=   42 NUniq=   42 SFac= 7.50D-01 NAtFMM=   80 NAOKFM=F Big=F
 One-electron integrals computed using PRISM.
   1 Symmetry operations used in ECPInt.
 ECPInt:  NShTT=    8256 NPrTT=   48008 LenC2=    7851 LenP2D=   28941.
 LDataN:  DoStor=T MaxTD1= 4 Len=   56
 NBasis=   192 RedAO= T  NBF=   192
 NBsUse=   192 1.00D-06 NBFU=   192
 Harris functional with IExCor=  402 diagonalized for initial guess.
 ExpMin= 4.04D-02 ExpMax= 7.82D+03 ExpMxC= 2.73D+02 IAcc=2 IRadAn=         0 AccDes= 0.00D+00
 HarFok:  IExCor=  402 AccDes= 0.00D+00 IRadAn=         0 IDoV= 1
 ScaDFX=  1.000000  1.000000  1.000000  1.000000
 FoFCou: FMM=F IPFlag=           0 FMFlag=      100000 FMFlg1=           0
         NFxFlg=           0 DoJE=T BraDBF=F KetDBF=T FulRan=T
         Omega=  0.000000  0.000000  1.000000  0.000000  0.000000 ICntrl=     500 IOpCl=  0
         NMat0=    1 NMatS0=    1 NMatT0=    0 NMatD0=    1 NMtDS0=    0 NMtDT0=    0
         I1Cent=           4 NGrid=           0.
 Petite list used in FoFCou.
 Initial guess orbital symmetries:
       Occupied  (A) (A) (A) (A) (A) (A) (A) (A) (A) (A) (A) (A)
                 (A) (A) (A) (A) (A) (A) (A) (A) (A) (A) (A) (A)
                 (A) (A) (A) (A) (A) (A) (A) (A) (A) (A) (A) (A)
                 (A) (A) (A) (A) (A) (A) (A) (A) (A) (A) (A) (A)
                 (A) (A) (A) (A) (A) (A) (A) (A) (A) (A) (A) (A)
       Virtual   (A) (A) (A) (A) (A) (A) (A) (A) (A) (A) (A) (A)
                 (A) (A) (A) (A) (A) (A) (A) (A) (A) (A) (A) (A)
                 (A) (A) (A) (A) (A) (A) (A) (A) (A) (A) (A) (A)
                 (A) (A) (A) (A) (A) (A) (A) (A) (A) (A) (A) (A)
                 (A) (A) (A) (A) (A) (A) (A) (A) (A) (A) (A) (A)
                 (A) (A) (A) (A) (A) (A) (A) (A) (A) (A) (A) (A)
                 (A) (A) (A) (A) (A) (A) (A) (A) (A) (A) (A) (A)
                 (A) (A) (A) (A) (A) (A) (A) (A) (A) (A) (A) (A)
                 (A) (A) (A) (A) (A) (A) (A) (A) (A) (A) (A) (A)
                 (A) (A) (A) (A) (A) (A) (A) (A) (A) (A) (A) (A)
                 (A) (A) (A) (A) (A) (A) (A) (A) (A) (A) (A) (A)
 The electronic state of the initial guess is 1-A.
 Requested convergence on RMS density matrix=1.00D-08 within 128 cycles.
 Requested convergence on MAX density matrix=1.00D-06.
 Requested convergence on             energy=1.00D-06.
 No special actions if energy rises.
 Keep R1 ints in memory in canonical form, NReq=175749378.
 SCF Done:  E(RB3LYP) =  -575.318461982     A.U. after   14 cycles
             Convg  =    0.3847D-08             -V/T =  2.0402

 **********************************************************************

            Population analysis using the SCF density.

 **********************************************************************

 Orbital symmetries:
       Occupied  (A) (A) (A) (A) (A) (A) (A) (A) (A) (A) (A) (A)
                 (A) (A) (A) (A) (A) (A) (A) (A) (A) (A) (A) (A)
                 (A) (A) (A) (A) (A) (A) (A) (A) (A) (A) (A) (A)
                 (A) (A) (A) (A) (A) (A) (A) (A) (A) (A) (A) (A)
                 (A) (A) (A) (A) (A) (A) (A) (A) (A) (A) (A) (A)
       Virtual   (A) (A) (A) (A) (A) (A) (A) (A) (A) (A) (A) (A)
                 (A) (A) (A) (A) (A) (A) (A) (A) (A) (A) (A) (A)
                 (A) (A) (A) (A) (A) (A) (A) (A) (A) (A) (A) (A)
                 (A) (A) (A) (A) (A) (A) (A) (A) (A) (A) (A) (A)
                 (A) (A) (A) (A) (A) (A) (A) (A) (A) (A) (A) (A)
                 (A) (A) (A) (A) (A) (A) (A) (A) (A) (A) (A) (A)
                 (A) (A) (A) (A) (A) (A) (A) (A) (A) (A) (A) (A)
                 (A) (A) (A) (A) (A) (A) (A) (A) (A) (A) (A) (A)
                 (A) (A) (A) (A) (A) (A) (A) (A) (A) (A) (A) (A)
                 (A) (A) (A) (A) (A) (A) (A) (A) (A) (A) (A) (A)
                 (A) (A) (A) (A) (A) (A) (A) (A) (A) (A) (A) (A)
 The electronic state is 1-A.
 Alpha  occ. eigenvalues --  -19.21071 -19.20965 -10.28561 -10.28520 -10.28268
 Alpha  occ. eigenvalues --  -10.27302 -10.21969 -10.21513 -10.21129 -10.20325
 Alpha  occ. eigenvalues --  -10.09181 -10.07566  -1.07713  -1.07353  -0.81458
 Alpha  occ. eigenvalues --   -0.81394  -0.77538  -0.77417  -0.70270  -0.69797
 Alpha  occ. eigenvalues --   -0.68485  -0.67324  -0.64650  -0.63584  -0.60890
 Alpha  occ. eigenvalues --   -0.59143  -0.54436  -0.53682  -0.53451  -0.52350
 Alpha  occ. eigenvalues --   -0.50439  -0.47894  -0.46682  -0.45999  -0.45681
 Alpha  occ. eigenvalues --   -0.44565  -0.43180  -0.42470  -0.41985  -0.41220
 Alpha  occ. eigenvalues --   -0.40817  -0.40271  -0.39981  -0.39341  -0.38048
 Alpha  occ. eigenvalues --   -0.37469  -0.33557  -0.33086  -0.32969  -0.32527
 Alpha  occ. eigenvalues --   -0.31366  -0.31350  -0.30320  -0.28113  -0.27700
 Alpha  occ. eigenvalues --   -0.26002  -0.25935  -0.25186  -0.20654  -0.17466
 Alpha virt. eigenvalues --    0.00733   0.03609   0.03662   0.04197   0.04619
 Alpha virt. eigenvalues --    0.05427   0.06733   0.07113   0.08585   0.08685
 Alpha virt. eigenvalues --    0.09342   0.09676   0.10624   0.10941   0.11354
 Alpha virt. eigenvalues --    0.11951   0.12187   0.12839   0.13981   0.14707
 Alpha virt. eigenvalues --    0.15264   0.15905   0.16197   0.16945   0.17499
 Alpha virt. eigenvalues --    0.17845   0.18067   0.18340   0.18591   0.18793
 Alpha virt. eigenvalues --    0.19151   0.19539   0.19956   0.20381   0.21180
 Alpha virt. eigenvalues --    0.21855   0.22224   0.22865   0.23185   0.23964
 Alpha virt. eigenvalues --    0.24823   0.25186   0.25773   0.26457   0.27273
 Alpha virt. eigenvalues --    0.28657   0.29196   0.30445   0.30824   0.31238
 Alpha virt. eigenvalues --    0.32126   0.32598   0.33574   0.33802   0.33895
 Alpha virt. eigenvalues --    0.34640   0.35161   0.36314   0.36929   0.37408
 Alpha virt. eigenvalues --    0.37903   0.38032   0.38707   0.39228   0.39925
 Alpha virt. eigenvalues --    0.41269   0.42391   0.43255   0.43597   0.44573
 Alpha virt. eigenvalues --    0.45855   0.46683   0.47303   0.48226   0.49872
 Alpha virt. eigenvalues --    0.52469   0.53035   0.55693   0.60678   0.63501
 Alpha virt. eigenvalues --    0.67046   0.68010   0.69796   0.71775   0.81522
 Alpha virt. eigenvalues --    0.83059   0.85213   0.87999   0.90527   0.95275
 Alpha virt. eigenvalues --    0.95995   0.97640   0.99035   1.00782   1.02720
 Alpha virt. eigenvalues --    1.03081   1.04528   1.05034   1.06663   1.08967
 Alpha virt. eigenvalues --    1.09744   1.10907   1.11959   1.12702   1.14122
 Alpha virt. eigenvalues --    1.14582   1.16229   1.16529   1.16812   1.17797
 Alpha virt. eigenvalues --    1.18197   1.18766   1.19040   1.19367   1.20161
 Alpha virt. eigenvalues --    1.21205   1.22565   1.24507   1.25112   1.26760
 Alpha virt. eigenvalues --    1.30590   1.32171   1.33314   1.36839   1.45533
 Alpha virt. eigenvalues --    1.53722   1.80026   1.84719   5.09606   6.97841
 Alpha virt. eigenvalues --   19.31080  19.33787
     Molecular Orbital Coefficients:
                           1         2         3         4         5
                           O         O         O         O         O
     Eigenvalues --   -19.21071 -19.20965 -10.28561 -10.28520 -10.28268
   1 1   Mg 1S          0.00006   0.00004   0.00017  -0.00015   0.00005
   2        2S         -0.00041  -0.00028   0.00018   0.00076   0.00013
   3        3PX        -0.00017  -0.00002  -0.00010  -0.00019  -0.00022
   4        3PY         0.00013  -0.00011   0.00040  -0.00010  -0.00010
   5        3PZ         0.00001   0.00005  -0.00026   0.00010   0.00011
   6        4PX         0.00050   0.00002   0.00163   0.00094   0.00131
   7        4PY        -0.00039   0.00014  -0.00122   0.00052  -0.00052
   8        4PZ        -0.00005   0.00000   0.00035   0.00033  -0.00034
   9 2   Br 1S          0.00000   0.00000   0.00000   0.00000   0.00000
  10        2S          0.00004   0.00002  -0.00002  -0.00003   0.00003
  11        3PX         0.00002   0.00002   0.00000   0.00004   0.00005
  12        3PY        -0.00001   0.00004  -0.00004   0.00003  -0.00005
  13        3PZ        -0.00004  -0.00001   0.00003   0.00002   0.00000
  14        4PX        -0.00004  -0.00004  -0.00002  -0.00016  -0.00021
  15        4PY         0.00004  -0.00008   0.00015  -0.00012   0.00016
  16        4PZ         0.00007   0.00002  -0.00010  -0.00004   0.00006
  17 3   Br 1S          0.00000   0.00000   0.00001   0.00000   0.00000
  18        2S          0.00007   0.00002   0.00016   0.00006   0.00005
  19        3PX         0.00002   0.00001   0.00013   0.00000   0.00003
  20        3PY        -0.00003   0.00001  -0.00002   0.00003  -0.00004
  21        3PZ         0.00002   0.00003   0.00000   0.00002   0.00000
  22        4PX        -0.00004   0.00002  -0.00039   0.00001  -0.00008
  23        4PY         0.00008  -0.00003   0.00013  -0.00008   0.00010
  24        4PZ        -0.00003  -0.00004  -0.00001   0.00000   0.00005
  25 4   C  1S          0.00000   0.00001  -0.00001   0.00147  -0.00001
  26        2S         -0.00001   0.00008  -0.00008  -0.00034  -0.00005
  27        3S          0.00017  -0.00079   0.00083   0.00375   0.00054
  28        4PX         0.00001   0.00006   0.00000  -0.00005   0.00002
  29        4PY        -0.00002  -0.00010  -0.00004   0.00008  -0.00003
  30        4PZ        -0.00003   0.00006  -0.00004  -0.00004  -0.00002
  31        5PX         0.00010   0.00012   0.00019  -0.00082  -0.00006
  32        5PY         0.00021   0.00006   0.00037   0.00200   0.00027
  33        5PZ         0.00016   0.00042   0.00028  -0.00065   0.00023
  34 5   O  1S          0.99883   0.00046  -0.00001   0.00000  -0.00001
  35        2S          0.00679  -0.00001   0.00019  -0.00001   0.00019
  36        3S         -0.00508   0.00006   0.00073   0.00011   0.00069
  37        4PX         0.00058  -0.00001   0.00000  -0.00001   0.00002
  38        4PY        -0.00063   0.00002  -0.00004   0.00004   0.00003
  39        4PZ        -0.00043   0.00001   0.00005   0.00005  -0.00005
  40        5PX        -0.00100   0.00005   0.00018   0.00006  -0.00040
  41        5PY         0.00104  -0.00006   0.00066  -0.00012  -0.00048
  42        5PZ         0.00064  -0.00006  -0.00048  -0.00022   0.00052
  43 6   Mg 1S          0.00000  -0.00001   0.00001  -0.00002   0.00000
  44        2S          0.00030   0.00011   0.00055   0.00024   0.00043
  45        3PX         0.00004   0.00004   0.00007   0.00004   0.00006
  46        3PY        -0.00002   0.00001  -0.00004  -0.00003  -0.00002
  47        3PZ         0.00000  -0.00001   0.00001  -0.00001  -0.00001
  48        4PX         0.00019   0.00010   0.00033   0.00008   0.00024
  49        4PY         0.00001   0.00001   0.00011  -0.00016   0.00001
  50        4PZ         0.00003  -0.00003   0.00010  -0.00018   0.00005
  51 7   C  1S          0.00000   0.00000   0.00000   0.00000   0.00000
  52        2S          0.00000   0.00002  -0.00003  -0.00003  -0.00002
  53        3S         -0.00008   0.00008  -0.00007   0.00022  -0.00007
  54        4PX        -0.00001   0.00003  -0.00003   0.00005  -0.00002
  55        4PY         0.00000   0.00000   0.00001   0.00000   0.00001
  56        4PZ         0.00000   0.00000   0.00001   0.00001   0.00000
  57        5PX         0.00006  -0.00009   0.00021  -0.00004   0.00009
  58        5PY        -0.00002  -0.00001  -0.00004  -0.00008  -0.00007
  59        5PZ        -0.00006   0.00017  -0.00019   0.00012  -0.00007
  60 8   C  1S          0.00000   0.00000   0.00000   0.00000   0.00000
  61        2S          0.00001   0.00000  -0.00001   0.00002   0.00000
  62        3S         -0.00002   0.00001  -0.00003  -0.00003  -0.00002
  63        4PX         0.00001   0.00001   0.00001   0.00000   0.00000
  64        4PY         0.00000   0.00000   0.00000   0.00000   0.00000
  65        4PZ         0.00000   0.00000   0.00000  -0.00001   0.00000
  66        5PX        -0.00005  -0.00003  -0.00002  -0.00007  -0.00003
  67        5PY         0.00003   0.00001   0.00007   0.00001   0.00004
  68        5PZ         0.00000   0.00005  -0.00001   0.00006   0.00001
  69 9   C  1S         -0.00002   0.00000   0.99775  -0.00055   0.00181
  70        2S         -0.00015   0.00000   0.01592   0.00003  -0.00057
  71        3S          0.00210  -0.00009  -0.01720  -0.00019   0.00215
  72        4PX        -0.00017   0.00000  -0.00038   0.00001  -0.00006
  73        4PY        -0.00014   0.00003  -0.00029   0.00005  -0.00004
  74        4PZ         0.00028   0.00000   0.00055  -0.00001   0.00007
  75        5PX        -0.00030   0.00000  -0.00108   0.00009   0.00080
  76        5PY        -0.00053  -0.00016   0.00053  -0.00027  -0.00205
  77        5PZ         0.00038  -0.00003  -0.00090  -0.00018   0.00113
  78 10  O  1S         -0.00046   0.99883   0.00000  -0.00001   0.00000
  79        2S         -0.00001   0.00681   0.00001   0.00017   0.00000
  80        3S          0.00005  -0.00522   0.00002   0.00078   0.00001
  81        4PX         0.00001  -0.00002   0.00001  -0.00002   0.00002
  82        4PY        -0.00003   0.00084  -0.00004   0.00004  -0.00003
  83        4PZ        -0.00002   0.00050  -0.00003  -0.00007   0.00001
  84        5PX        -0.00001  -0.00001  -0.00001   0.00025  -0.00005
  85        5PY         0.00009  -0.00143   0.00025  -0.00057   0.00013
  86        5PZ         0.00006  -0.00081   0.00017   0.00069  -0.00007
  87 11  C  1S          0.00000   0.00000   0.00148   0.00000  -0.00001
  88        2S         -0.00008  -0.00004  -0.00058  -0.00002   0.00001
  89        3S         -0.00024   0.00022   0.00506   0.00038  -0.00058
  90        4PX         0.00011  -0.00001  -0.00017  -0.00002   0.00015
  91        4PY         0.00006   0.00000  -0.00010   0.00002   0.00011
  92        4PZ         0.00001   0.00000  -0.00003   0.00002   0.00000
  93        5PX        -0.00003  -0.00003  -0.00203   0.00007  -0.00008
  94        5PY         0.00017   0.00006  -0.00132   0.00012   0.00105
  95        5PZ         0.00003  -0.00001  -0.00062  -0.00004   0.00010
  96 12  C  1S         -0.00002   0.00000  -0.00191   0.00017   0.99775
  97        2S         -0.00016   0.00001  -0.00062   0.00004   0.01580
  98        3S          0.00214  -0.00015   0.00226  -0.00010  -0.01681
  99        4PX         0.00000   0.00000   0.00000  -0.00001   0.00010
 100        4PY         0.00031  -0.00002   0.00009   0.00001   0.00069
 101        4PZ        -0.00018   0.00000  -0.00001   0.00002  -0.00030
 102        5PX         0.00023  -0.00006   0.00126   0.00004  -0.00023
 103        5PY         0.00053   0.00012   0.00015  -0.00015   0.00041
 104        5PZ        -0.00030   0.00016  -0.00206   0.00007   0.00161
 105 13  C  1S          0.00000   0.00000  -0.00002   0.00001   0.00123
 106        2S         -0.00008  -0.00001  -0.00002   0.00005  -0.00057
 107        3S         -0.00028   0.00007  -0.00054  -0.00023   0.00489
 108        4PX        -0.00007   0.00001  -0.00010   0.00003   0.00012
 109        4PY        -0.00010   0.00000  -0.00016   0.00000   0.00015
 110        4PZ        -0.00005   0.00001  -0.00004   0.00001   0.00006
 111        5PX        -0.00016   0.00010  -0.00105  -0.00003   0.00166
 112        5PY        -0.00002   0.00006  -0.00002   0.00006   0.00164
 113        5PZ         0.00009  -0.00002   0.00029  -0.00007   0.00095
 114 14  C  1S          0.00000  -0.00003   0.00055   0.99775  -0.00017
 115        2S         -0.00002  -0.00019   0.00006   0.01576   0.00003
 116        3S         -0.00011   0.00238  -0.00056  -0.01685  -0.00031
 117        4PX         0.00002  -0.00011   0.00003  -0.00019   0.00003
 118        4PY        -0.00001   0.00001  -0.00001   0.00006   0.00000
 119        4PZ         0.00001  -0.00032   0.00002  -0.00065  -0.00002
 120        5PX        -0.00020  -0.00020  -0.00039  -0.00014  -0.00042
 121        5PY        -0.00004   0.00000   0.00010  -0.00007   0.00000
 122        5PZ        -0.00011  -0.00081  -0.00014   0.00018  -0.00014
 123 15  C  1S          0.00000  -0.00002   0.00005  -0.00042   0.00001
 124        2S          0.00001  -0.00015   0.00006  -0.00052   0.00004
 125        3S         -0.00015   0.00219  -0.00047   0.00186  -0.00033
 126        4PX         0.00000   0.00011   0.00001   0.00004   0.00001
 127        4PY         0.00001  -0.00029  -0.00001  -0.00009   0.00004
 128        4PZ         0.00000   0.00022   0.00000   0.00007   0.00000
 129        5PX        -0.00002  -0.00021  -0.00003   0.00070  -0.00016
 130        5PY        -0.00007  -0.00045   0.00000   0.00009  -0.00008
 131        5PZ        -0.00013   0.00060  -0.00007   0.00196  -0.00010
 132 16  C  1S          0.00000   0.00000  -0.00001  -0.00004   0.00000
 133        2S          0.00000  -0.00011  -0.00005  -0.00013  -0.00002
 134        3S          0.00000  -0.00011   0.00041   0.00004   0.00025
 135        4PX         0.00000   0.00008  -0.00001   0.00009   0.00000
 136        4PY         0.00000   0.00006  -0.00003   0.00009  -0.00001
 137        4PZ         0.00001  -0.00006   0.00002  -0.00010   0.00001
 138        5PX        -0.00002  -0.00005  -0.00002   0.00008  -0.00007
 139        5PY         0.00002  -0.00009   0.00006  -0.00050   0.00008
 140        5PZ         0.00007  -0.00011  -0.00005  -0.00075   0.00007
 141 17  H  1S          0.00001   0.00001   0.00001  -0.00020  -0.00001
 142        2S         -0.00017  -0.00001  -0.00043   0.00018  -0.00020
 143 18  H  1S          0.00003   0.00003   0.00007  -0.00017   0.00000
 144        2S         -0.00010   0.00021  -0.00045   0.00005  -0.00010
 145 19  H  1S          0.00000   0.00003   0.00003  -0.00018   0.00008
 146        2S          0.00009   0.00020  -0.00021   0.00020  -0.00033
 147 20  H  1S          0.00000  -0.00001   0.00000  -0.00003   0.00000
 148        2S         -0.00001   0.00006  -0.00006   0.00013   0.00002
 149 21  H  1S         -0.00002   0.00004  -0.00004   0.00007  -0.00003
 150        2S          0.00012  -0.00021   0.00017  -0.00035   0.00016
 151 22  H  1S          0.00000   0.00001  -0.00001  -0.00002  -0.00001
 152        2S          0.00007  -0.00015   0.00018  -0.00004   0.00009
 153 23  H  1S          0.00000  -0.00001  -0.00002   0.00000  -0.00001
 154        2S          0.00004   0.00004   0.00010   0.00002   0.00006
 155 24  H  1S          0.00000   0.00000  -0.00001   0.00001   0.00000
 156        2S          0.00000  -0.00002   0.00005  -0.00009   0.00000
 157 25  H  1S          0.00000   0.00000  -0.00001   0.00002   0.00000
 158        2S         -0.00001   0.00001   0.00002  -0.00006   0.00001
 159 26  H  1S         -0.00009   0.00002  -0.00016   0.00005  -0.00017
 160        2S         -0.00064  -0.00008   0.00313  -0.00026  -0.00079
 161 27  H  1S         -0.00010  -0.00001  -0.00016   0.00003  -0.00010
 162        2S         -0.00023   0.00011   0.00252  -0.00004   0.00092
 163 28  H  1S         -0.00002   0.00000  -0.00025   0.00001  -0.00002
 164        2S          0.00018  -0.00004   0.00018  -0.00019   0.00019
 165 29  H  1S          0.00002   0.00002  -0.00024   0.00006   0.00011
 166        2S         -0.00015  -0.00010   0.00024  -0.00040  -0.00078
 167 30  H  1S          0.00001  -0.00001  -0.00022   0.00000   0.00008
 168        2S         -0.00001   0.00000  -0.00008  -0.00008  -0.00001
 169 31  H  1S         -0.00008  -0.00002  -0.00006  -0.00001  -0.00014
 170        2S         -0.00036   0.00001   0.00068   0.00001   0.00219
 171 32  H  1S         -0.00010   0.00000  -0.00015   0.00002  -0.00019
 172        2S         -0.00059   0.00007  -0.00093  -0.00007   0.00325
 173 33  H  1S         -0.00002  -0.00001  -0.00003   0.00000  -0.00024
 174        2S          0.00016   0.00005   0.00023   0.00009   0.00019
 175 34  H  1S          0.00001  -0.00001   0.00009   0.00001  -0.00023
 176        2S          0.00003   0.00000  -0.00015   0.00001  -0.00004
 177 35  H  1S          0.00002  -0.00002   0.00012  -0.00003  -0.00026
 178        2S         -0.00014   0.00013  -0.00089   0.00018   0.00041
 179 36  H  1S         -0.00001  -0.00015   0.00002  -0.00021   0.00001
 180        2S          0.00001  -0.00023  -0.00007   0.00324  -0.00009
 181 37  H  1S         -0.00001  -0.00013   0.00001  -0.00021  -0.00002
 182        2S          0.00012  -0.00040   0.00017   0.00329   0.00026
 183 38  H  1S          0.00000  -0.00009   0.00002  -0.00015   0.00001
 184        2S          0.00012  -0.00068   0.00013  -0.00076   0.00008
 185 39  H  1S         -0.00002  -0.00010  -0.00006  -0.00011   0.00000
 186        2S          0.00010  -0.00039   0.00044   0.00079   0.00004
 187 40  H  1S          0.00000  -0.00003   0.00000  -0.00006   0.00000
 188        2S          0.00002   0.00020  -0.00013   0.00032  -0.00007
 189 41  H  1S         -0.00002   0.00001   0.00004   0.00008   0.00000
 190        2S          0.00009  -0.00007  -0.00018  -0.00077  -0.00004
 191 42  H  1S          0.00000  -0.00001  -0.00001   0.00006   0.00000
 192        2S         -0.00001   0.00007  -0.00004  -0.00012  -0.00006
                           6         7         8         9        10
                           O         O         O         O         O
     Eigenvalues --   -10.27302 -10.21969 -10.21513 -10.21129 -10.20325
   1 1   Mg 1S          0.00009  -0.00005   0.00013   0.00001  -0.00008
   2        2S          0.00038   0.00014   0.00001   0.00041   0.00020
   3        3PX        -0.00017  -0.00032   0.00016  -0.00006  -0.00050
   4        3PY         0.00024   0.00022  -0.00029   0.00007   0.00025
   5        3PZ        -0.00015   0.00010   0.00012   0.00004   0.00000
   6        4PX         0.00113   0.00116  -0.00045  -0.00032   0.00234
   7        4PY         0.00002  -0.00136   0.00092   0.00055  -0.00047
   8        4PZ         0.00039  -0.00066  -0.00028   0.00033   0.00011
   9 2   Br 1S          0.00000   0.00000   0.00001   0.00000   0.00001
  10        2S          0.00005   0.00002   0.00008  -0.00010   0.00012
  11        3PX         0.00003   0.00002   0.00015   0.00000   0.00007
  12        3PY         0.00002  -0.00006   0.00006   0.00005  -0.00006
  13        3PZ         0.00002  -0.00005   0.00006   0.00003  -0.00004
  14        4PX        -0.00009  -0.00010  -0.00033  -0.00002  -0.00021
  15        4PY        -0.00002   0.00020  -0.00018  -0.00017   0.00016
  16        4PZ        -0.00009   0.00016  -0.00014  -0.00005   0.00005
  17 3   Br 1S          0.00001   0.00000   0.00000   0.00000   0.00000
  18        2S          0.00003   0.00002  -0.00011   0.00001   0.00019
  19        3PX         0.00002  -0.00002   0.00001   0.00004   0.00004
  20        3PY         0.00011  -0.00002   0.00004   0.00009   0.00001
  21        3PZ         0.00005   0.00000  -0.00003   0.00002   0.00001
  22        4PX        -0.00015   0.00002  -0.00003  -0.00007  -0.00013
  23        4PY        -0.00032   0.00011  -0.00011  -0.00019  -0.00002
  24        4PZ        -0.00019   0.00003   0.00006  -0.00005   0.00001
  25 4   C  1S          0.00000  -0.00003   0.99768   0.00007  -0.00001
  26        2S         -0.00003  -0.00003   0.01660  -0.00001   0.00002
  27        3S          0.00065   0.00039  -0.02026   0.00007  -0.00001
  28        4PX         0.00001   0.00003   0.00000   0.00000   0.00002
  29        4PY        -0.00006  -0.00001   0.00016  -0.00003   0.00004
  30        4PZ        -0.00004  -0.00005   0.00003   0.00000   0.00003
  31        5PX        -0.00015   0.00013   0.00070   0.00003   0.00007
  32        5PY         0.00067   0.00030  -0.00164   0.00005  -0.00031
  33        5PZ         0.00088   0.00020   0.00007   0.00011  -0.00026
  34 5   O  1S          0.00000   0.00000   0.00000   0.00000   0.00000
  35        2S          0.00001  -0.00017   0.00002  -0.00001  -0.00017
  36        3S         -0.00003   0.00007  -0.00010   0.00003   0.00009
  37        4PX        -0.00001  -0.00009  -0.00004   0.00002   0.00003
  38        4PY         0.00003  -0.00005   0.00000  -0.00002   0.00011
  39        4PZ        -0.00001   0.00004  -0.00001   0.00000   0.00002
  40        5PX         0.00003   0.00015   0.00022  -0.00009  -0.00012
  41        5PY        -0.00010   0.00014  -0.00001   0.00011  -0.00016
  42        5PZ         0.00001  -0.00006   0.00006   0.00002  -0.00006
  43 6   Mg 1S          0.00007   0.00004   0.00001   0.00003   0.00003
  44        2S          0.00014   0.00037  -0.00039  -0.00020   0.00084
  45        3PX         0.00014   0.00005   0.00002  -0.00019   0.00013
  46        3PY        -0.00001  -0.00005   0.00006  -0.00005  -0.00010
  47        3PZ        -0.00004  -0.00003   0.00001   0.00009  -0.00002
  48        4PX        -0.00002   0.00024  -0.00020  -0.00016   0.00047
  49        4PY        -0.00024   0.00027  -0.00003   0.00001   0.00004
  50        4PZ        -0.00004   0.00016  -0.00005   0.00004   0.00000
  51 7   C  1S          0.00000   0.00000   0.00001  -0.00001   0.00000
  52        2S          0.00002  -0.00001   0.00004  -0.00003  -0.00002
  53        3S         -0.00016  -0.00010  -0.00016  -0.00038  -0.00003
  54        4PX         0.00000  -0.00004   0.00002  -0.00010  -0.00002
  55        4PY         0.00003   0.00001   0.00001  -0.00003   0.00000
  56        4PZ         0.00001   0.00000  -0.00002   0.00002   0.00000
  57        5PX        -0.00015   0.00021  -0.00019   0.00044   0.00008
  58        5PY        -0.00009  -0.00010  -0.00008   0.00013  -0.00005
  59        5PZ        -0.00019  -0.00007   0.00014  -0.00056  -0.00010
  60 8   C  1S          0.00000   0.00000   0.00000   0.00001   0.00000
  61        2S          0.00001  -0.00002  -0.00003   0.00004   0.00002
  62        3S          0.00000  -0.00003   0.00006  -0.00015  -0.00014
  63        4PX        -0.00001   0.00000  -0.00001  -0.00002   0.00000
  64        4PY        -0.00001   0.00000   0.00000   0.00000   0.00000
  65        4PZ         0.00000   0.00000   0.00000   0.00001   0.00000
  66        5PX        -0.00004   0.00003   0.00007   0.00009  -0.00006
  67        5PY         0.00005   0.00000   0.00001  -0.00004   0.00006
  68        5PZ         0.00000   0.00001   0.00004  -0.00013   0.00006
  69 9   C  1S         -0.00004  -0.00153   0.00000   0.00000   0.00003
  70        2S          0.00003  -0.00052  -0.00006  -0.00005  -0.00003
  71        3S         -0.00003   0.00450   0.00015   0.00026   0.00001
  72        4PX        -0.00003   0.00002   0.00001   0.00000   0.00004
  73        4PY         0.00004   0.00003   0.00004   0.00004   0.00008
  74        4PZ         0.00001  -0.00006   0.00000   0.00002  -0.00007
  75        5PX         0.00013   0.00302  -0.00025  -0.00010   0.00000
  76        5PY        -0.00044   0.00104  -0.00043  -0.00028  -0.00060
  77        5PZ        -0.00010   0.00098   0.00022  -0.00021  -0.00014
  78 10  O  1S         -0.00001   0.00000   0.00000   0.00000   0.00000
  79        2S          0.00023  -0.00004  -0.00002  -0.00020   0.00000
  80        3S          0.00054   0.00009  -0.00026   0.00014   0.00008
  81        4PX         0.00001   0.00000  -0.00006  -0.00002   0.00002
  82        4PY        -0.00002  -0.00002   0.00010  -0.00009  -0.00004
  83        4PZ         0.00005  -0.00001  -0.00009   0.00004  -0.00001
  84        5PX        -0.00016   0.00008   0.00021  -0.00007  -0.00006
  85        5PY         0.00043   0.00008  -0.00062   0.00020   0.00028
  86        5PZ        -0.00084  -0.00001   0.00040  -0.00008   0.00004
  87 11  C  1S          0.00000   0.99767   0.00002   0.00004   0.00005
  88        2S         -0.00002   0.01627  -0.00003  -0.00004  -0.00011
  89        3S          0.00033  -0.01861   0.00041   0.00028   0.00057
  90        4PX        -0.00002  -0.00001  -0.00002  -0.00002   0.00000
  91        4PY         0.00002  -0.00003   0.00001   0.00006   0.00003
  92        4PZ         0.00002  -0.00003   0.00009  -0.00002   0.00001
  93        5PX         0.00008   0.00112   0.00002  -0.00004  -0.00017
  94        5PY         0.00022   0.00053   0.00026  -0.00021   0.00020
  95        5PZ        -0.00008   0.00020  -0.00073   0.00031   0.00016
  96 12  C  1S         -0.00001   0.00003   0.00000   0.00000  -0.00127
  97        2S          0.00004   0.00001  -0.00003  -0.00002  -0.00051
  98        3S         -0.00019  -0.00005   0.00010   0.00016   0.00451
  99        4PX         0.00001  -0.00002   0.00001   0.00000   0.00002
 100        4PY        -0.00004  -0.00007   0.00000   0.00001  -0.00002
 101        4PZ         0.00001   0.00006  -0.00001  -0.00002   0.00005
 102        5PX        -0.00018   0.00017  -0.00059  -0.00003  -0.00188
 103        5PY        -0.00003   0.00005  -0.00005   0.00003  -0.00236
 104        5PZ         0.00020   0.00006   0.00026   0.00008  -0.00176
 105 13  C  1S          0.00000  -0.00006   0.00001  -0.00001   0.99767
 106        2S          0.00002  -0.00010   0.00002   0.00000   0.01631
 107        3S         -0.00008   0.00043  -0.00031  -0.00010  -0.01878
 108        4PX         0.00002  -0.00001   0.00003   0.00001   0.00015
 109        4PY        -0.00001  -0.00001  -0.00001  -0.00001   0.00001
 110        4PZ         0.00001  -0.00001  -0.00002   0.00001   0.00003
 111        5PX         0.00011  -0.00012   0.00008   0.00002  -0.00064
 112        5PY        -0.00001   0.00024   0.00000   0.00011  -0.00095
 113        5PZ        -0.00011  -0.00002  -0.00007  -0.00008  -0.00068
 114 14  C  1S          0.00033   0.00000  -0.00149   0.00004   0.00000
 115        2S         -0.00055   0.00001  -0.00039  -0.00012   0.00005
 116        3S          0.00227  -0.00035   0.00449   0.00031  -0.00018
 117        4PX        -0.00003   0.00006  -0.00002   0.00000   0.00003
 118        4PY         0.00003   0.00000   0.00006  -0.00004   0.00000
 119        4PZ        -0.00008  -0.00001  -0.00003   0.00012  -0.00002
 120        5PX        -0.00108  -0.00063   0.00206   0.00011  -0.00019
 121        5PY         0.00137  -0.00022  -0.00369   0.00016  -0.00017
 122        5PZ        -0.00154  -0.00004   0.00180  -0.00036   0.00044
 123 15  C  1S          0.99775   0.00000  -0.00003  -0.00165   0.00000
 124        2S          0.01593   0.00000  -0.00017  -0.00053   0.00004
 125        3S         -0.01731  -0.00019   0.00102   0.00452  -0.00045
 126        4PX         0.00023   0.00002   0.00004  -0.00008   0.00001
 127        4PY        -0.00057   0.00000  -0.00016   0.00003   0.00002
 128        4PZ         0.00051  -0.00001   0.00000  -0.00003  -0.00002
 129        5PX        -0.00162  -0.00015   0.00064   0.00330  -0.00002
 130        5PY        -0.00045  -0.00023  -0.00029   0.00155   0.00010
 131        5PZ        -0.00104   0.00023   0.00152  -0.00151   0.00030
 132 16  C  1S          0.00161  -0.00005  -0.00006   0.99767   0.00001
 133        2S         -0.00058  -0.00006  -0.00001   0.01632  -0.00003
 134        3S          0.00511   0.00057  -0.00020  -0.01900   0.00037
 135        4PX        -0.00014   0.00004   0.00004  -0.00002  -0.00001
 136        4PY        -0.00010  -0.00008   0.00000   0.00003  -0.00003
 137        4PZ         0.00012   0.00002  -0.00005   0.00002   0.00000
 138        5PX        -0.00185  -0.00043  -0.00033   0.00124  -0.00011
 139        5PY        -0.00081   0.00036   0.00000   0.00050   0.00008
 140        5PZ         0.00165  -0.00021  -0.00050  -0.00048  -0.00014
 141 17  H  1S          0.00000   0.00000  -0.00022  -0.00001  -0.00001
 142        2S         -0.00036  -0.00021   0.00360  -0.00003   0.00009
 143 18  H  1S          0.00001   0.00003  -0.00029   0.00002   0.00001
 144        2S          0.00034  -0.00018   0.00351  -0.00007  -0.00041
 145 19  H  1S          0.00001   0.00000  -0.00029   0.00001   0.00003
 146        2S          0.00005   0.00003   0.00367  -0.00001  -0.00036
 147 20  H  1S          0.00004   0.00000  -0.00001  -0.00001   0.00001
 148        2S         -0.00009   0.00001   0.00018  -0.00018  -0.00005
 149 21  H  1S         -0.00008  -0.00004  -0.00001  -0.00013  -0.00003
 150        2S          0.00036   0.00016   0.00011   0.00053   0.00017
 151 22  H  1S         -0.00003   0.00000   0.00002  -0.00004  -0.00001
 152        2S          0.00016   0.00009  -0.00010   0.00056   0.00008
 153 23  H  1S          0.00000  -0.00001  -0.00001   0.00000  -0.00002
 154        2S          0.00001   0.00007   0.00001  -0.00003   0.00015
 155 24  H  1S          0.00002  -0.00002   0.00000   0.00000   0.00000
 156        2S         -0.00008   0.00009   0.00000   0.00011   0.00001
 157 25  H  1S          0.00001  -0.00002   0.00000   0.00001   0.00000
 158        2S         -0.00008   0.00009   0.00002   0.00000   0.00003
 159 26  H  1S          0.00003  -0.00023   0.00000   0.00002   0.00008
 160        2S         -0.00033   0.00035  -0.00013  -0.00029  -0.00073
 161 27  H  1S          0.00002  -0.00023   0.00001   0.00001   0.00005
 162        2S          0.00007   0.00053   0.00002   0.00000  -0.00018
 163 28  H  1S          0.00002  -0.00025   0.00005  -0.00004  -0.00003
 164        2S         -0.00022   0.00315  -0.00055   0.00024   0.00004
 165 29  H  1S          0.00006  -0.00030   0.00006   0.00002   0.00008
 166        2S         -0.00037   0.00337  -0.00009  -0.00010  -0.00069
 167 30  H  1S          0.00001  -0.00026  -0.00003   0.00003  -0.00002
 168        2S         -0.00006   0.00330   0.00037  -0.00027  -0.00003
 169 31  H  1S          0.00002   0.00005   0.00004  -0.00001  -0.00021
 170        2S         -0.00025  -0.00034  -0.00027  -0.00002   0.00033
 171 32  H  1S          0.00002   0.00007  -0.00004  -0.00001  -0.00025
 172        2S          0.00004  -0.00043   0.00048   0.00001   0.00060
 173 33  H  1S          0.00000  -0.00003   0.00000  -0.00001  -0.00025
 174        2S          0.00002   0.00011   0.00007   0.00015   0.00321
 175 34  H  1S          0.00001  -0.00002  -0.00001  -0.00001  -0.00026
 176        2S         -0.00008  -0.00003   0.00007   0.00002   0.00325
 177 35  H  1S         -0.00002   0.00006  -0.00004  -0.00003  -0.00027
 178        2S          0.00015  -0.00054   0.00025   0.00014   0.00342
 179 36  H  1S         -0.00006   0.00000  -0.00026  -0.00002   0.00002
 180        2S         -0.00093  -0.00009   0.00087   0.00016  -0.00019
 181 37  H  1S         -0.00019  -0.00005  -0.00022   0.00005   0.00000
 182        2S         -0.00035   0.00056   0.00074  -0.00047   0.00018
 183 38  H  1S         -0.00015   0.00002  -0.00015  -0.00024   0.00003
 184        2S          0.00329   0.00000   0.00014   0.00073  -0.00007
 185 39  H  1S         -0.00020  -0.00002  -0.00009  -0.00024  -0.00003
 186        2S          0.00253   0.00023   0.00061   0.00073   0.00042
 187 40  H  1S         -0.00025   0.00004   0.00001  -0.00026   0.00001
 188        2S          0.00022  -0.00046  -0.00003   0.00336  -0.00018
 189 41  H  1S         -0.00026   0.00003   0.00002  -0.00026   0.00003
 190        2S          0.00048  -0.00008  -0.00013   0.00329  -0.00023
 191 42  H  1S         -0.00023  -0.00003   0.00000  -0.00025   0.00000
 192        2S         -0.00013   0.00022   0.00037   0.00317   0.00000
                          11        12        13        14        15
                           O         O         O         O         O
     Eigenvalues --   -10.09181 -10.07566  -1.07713  -1.07353  -0.81458
   1 1   Mg 1S          0.00002   0.00004   0.02307   0.01451  -0.00145
   2        2S         -0.00092  -0.00086   0.00156  -0.00178  -0.00176
   3        3PX         0.00023  -0.00023   0.01642   0.00335  -0.00211
   4        3PY        -0.00016  -0.00009  -0.00685   0.01437   0.00306
   5        3PZ         0.00004  -0.00007  -0.00298   0.00543  -0.00377
   6        4PX        -0.00003   0.00088  -0.02016  -0.00022   0.00594
   7        4PY         0.00041   0.00032   0.01255  -0.01056   0.00990
   8        4PZ        -0.00009   0.00026   0.00154  -0.00496  -0.00400
   9 2   Br 1S          0.00001   0.00000   0.00060   0.00023  -0.00421
  10        2S         -0.00006   0.00001   0.00052   0.00011  -0.00826
  11        3PX        -0.00011  -0.00010  -0.00023  -0.00005  -0.00137
  12        3PY         0.00006   0.00001   0.00066  -0.00047  -0.00035
  13        3PZ         0.00001  -0.00001  -0.00001  -0.00033   0.00092
  14        4PX         0.00037   0.00028   0.00241   0.00034  -0.00243
  15        4PY        -0.00021  -0.00005  -0.00228   0.00228   0.00019
  16        4PZ        -0.00001   0.00002  -0.00090   0.00091  -0.00003
  17 3   Br 1S          0.00000   0.00000   0.00055   0.00046   0.00368
  18        2S         -0.00016   0.00001  -0.00079   0.00083   0.00833
  19        3PX        -0.00009  -0.00012  -0.00024   0.00028   0.00123
  20        3PY         0.00006   0.00002   0.00032  -0.00056   0.00005
  21        3PZ        -0.00003   0.00000   0.00040  -0.00009   0.00104
  22        4PX         0.00030   0.00033   0.00195  -0.00058   0.00134
  23        4PY        -0.00017  -0.00005  -0.00166   0.00284   0.00040
  24        4PZ        -0.00002  -0.00002  -0.00089   0.00136   0.00051
  25 4   C  1S          0.00000   0.00000  -0.00316  -0.01305   0.06289
  26        2S          0.00005  -0.00003   0.00653   0.02471  -0.12313
  27        3S         -0.00048   0.00025  -0.00420   0.01793  -0.10613
  28        4PX         0.00001   0.00000  -0.00236  -0.00921   0.01429
  29        4PY         0.00000   0.00000   0.00334   0.01350  -0.02636
  30        4PZ         0.00001   0.00000  -0.00196  -0.01031   0.01045
  31        5PX        -0.00019   0.00004  -0.00321  -0.00016  -0.00391
  32        5PY        -0.00036   0.00002  -0.00917  -0.00568   0.00101
  33        5PZ        -0.00002   0.00001  -0.00610  -0.00033  -0.00204
  34 5   O  1S          0.00000   0.00000  -0.21180   0.04810   0.00725
  35        2S         -0.00001   0.00000   0.44330  -0.10046  -0.01535
  36        3S          0.00002  -0.00001   0.42591  -0.09780  -0.01920
  37        4PX         0.00001   0.00001   0.05278  -0.01237   0.04840
  38        4PY         0.00000  -0.00002  -0.05553   0.01384   0.10343
  39        4PZ         0.00000  -0.00001  -0.03870   0.00919  -0.09833
  40        5PX        -0.00004  -0.00008   0.00397  -0.00055   0.01100
  41        5PY        -0.00002   0.00010  -0.00767  -0.00075   0.02235
  42        5PZ         0.00003   0.00005  -0.00568   0.00132  -0.02176
  43 6   Mg 1S          0.00060   0.00069  -0.00002  -0.00003   0.00003
  44        2S          0.00106   0.00135  -0.00776  -0.00090   0.00269
  45        3PX         0.00087  -0.00155  -0.00082  -0.00067   0.00053
  46        3PY         0.00215  -0.00190   0.00038  -0.00020   0.00019
  47        3PZ         0.00117  -0.00102   0.00017   0.00042  -0.00025
  48        4PX         0.00082   0.00075  -0.00418  -0.00011   0.00146
  49        4PY        -0.00005  -0.00018  -0.00044   0.00060  -0.00243
  50        4PZ         0.00016  -0.00005  -0.00001   0.00152  -0.00077
  51 7   C  1S          0.99767   0.00023  -0.00001  -0.00013  -0.00037
  52        2S          0.01539  -0.00039   0.00054   0.00067   0.00071
  53        3S         -0.01483   0.00167  -0.00110  -0.00695   0.00144
  54        4PX         0.00024  -0.00006   0.00007  -0.00063   0.00077
  55        4PY         0.00073  -0.00006   0.00002   0.00004   0.00016
  56        4PZ         0.00040  -0.00002   0.00005  -0.00023  -0.00015
  57        5PX        -0.00050   0.00043  -0.00139   0.00071  -0.00194
  58        5PY        -0.00043  -0.00047   0.00077  -0.00037  -0.00013
  59        5PZ        -0.00042  -0.00039  -0.00014  -0.00508   0.00172
  60 8   C  1S         -0.00029   0.99766   0.00000   0.00000   0.00001
  61        2S         -0.00041   0.01532  -0.00003  -0.00007   0.00013
  62        3S          0.00171  -0.01471   0.00028   0.00006  -0.00011
  63        4PX         0.00008  -0.00048  -0.00004   0.00000   0.00004
  64        4PY         0.00005  -0.00051   0.00000  -0.00005  -0.00001
  65        4PZ         0.00004  -0.00029   0.00003   0.00009  -0.00001
  66        5PX         0.00057   0.00007   0.00062   0.00046  -0.00088
  67        5PY         0.00017   0.00068  -0.00031   0.00016   0.00021
  68        5PZ         0.00003   0.00034  -0.00037  -0.00103   0.00029
  69 9   C  1S          0.00000   0.00000  -0.06436   0.01469  -0.10679
  70        2S         -0.00004  -0.00002   0.12643  -0.02878   0.21973
  71        3S          0.00022   0.00014   0.07295  -0.01655   0.17229
  72        4PX        -0.00001   0.00000  -0.05070   0.01141   0.02607
  73        4PY         0.00000   0.00000  -0.02515   0.00570   0.02569
  74        4PZ         0.00001   0.00001   0.07416  -0.01700   0.01456
  75        5PX        -0.00006  -0.00010   0.01506  -0.00217  -0.00153
  76        5PY         0.00005  -0.00018   0.00146   0.00598  -0.00293
  77        5PZ        -0.00002  -0.00008  -0.01633   0.00448  -0.00490
  78 10  O  1S          0.00000   0.00000  -0.04776  -0.21191  -0.00468
  79        2S          0.00003  -0.00001   0.09994   0.44330   0.01026
  80        3S         -0.00004   0.00002   0.09607   0.42743   0.01127
  81        4PX        -0.00003   0.00001   0.00092   0.00302  -0.02856
  82        4PY         0.00003   0.00001   0.01555   0.07445   0.04645
  83        4PZ         0.00001   0.00001   0.01019   0.04713  -0.07689
  84        5PX         0.00008  -0.00006  -0.00219  -0.00706  -0.00599
  85        5PY        -0.00016  -0.00007   0.00372   0.00990   0.00932
  86        5PZ        -0.00003  -0.00003   0.00185   0.00534  -0.01642
  87 11  C  1S          0.00000   0.00000  -0.01322   0.00304  -0.09345
  88        2S         -0.00002  -0.00003   0.02585  -0.00510   0.18591
  89        3S         -0.00002   0.00019   0.00631  -0.00870   0.14416
  90        4PX         0.00001   0.00000  -0.01715   0.00434  -0.04180
  91        4PY         0.00000   0.00001  -0.00764   0.00156  -0.01578
  92        4PZ         0.00000   0.00001  -0.00023  -0.00025  -0.01477
  93        5PX        -0.00004  -0.00002  -0.00005  -0.00062   0.00977
  94        5PY        -0.00002   0.00005   0.00314  -0.00339   0.00517
  95        5PZ         0.00004  -0.00005   0.01187  -0.00016  -0.00108
  96 12  C  1S          0.00000   0.00000  -0.06233   0.01437   0.09391
  97        2S         -0.00003  -0.00002   0.12238  -0.02827  -0.19349
  98        3S          0.00007   0.00016   0.06890  -0.01716  -0.15334
  99        4PX         0.00000   0.00001  -0.00747   0.00182   0.02500
 100        4PY         0.00000   0.00001   0.08255  -0.01901  -0.00126
 101        4PZ         0.00000  -0.00001  -0.03732   0.00902   0.00945
 102        5PX         0.00005  -0.00010   0.01171  -0.00239  -0.00785
 103        5PY         0.00001  -0.00008  -0.01822   0.00306   0.00250
 104        5PZ         0.00001  -0.00002   0.00210  -0.00197  -0.00400
 105 13  C  1S          0.00000   0.00000  -0.01236   0.00288   0.06825
 106        2S         -0.00002   0.00003   0.02395  -0.00554  -0.13488
 107        3S         -0.00001  -0.00032   0.00883  -0.00134  -0.10450
 108        4PX         0.00001   0.00002   0.00765  -0.00198  -0.02055
 109        4PY         0.00000  -0.00002   0.01546  -0.00358  -0.02779
 110        4PZ         0.00001   0.00000   0.00599  -0.00144  -0.02331
 111        5PX        -0.00004  -0.00005  -0.00900   0.00154   0.00514
 112        5PY         0.00014   0.00011   0.00428  -0.00186   0.00438
 113        5PZ        -0.00002  -0.00009  -0.00445   0.00167   0.00613
 114 14  C  1S         -0.00001   0.00000  -0.01460  -0.06509   0.06711
 115        2S         -0.00006   0.00003   0.02867   0.12830  -0.13784
 116        3S          0.00066  -0.00010   0.02033   0.07220  -0.10734
 117        4PX        -0.00009   0.00001  -0.00718  -0.03077  -0.01178
 118        4PY         0.00001   0.00001  -0.00108  -0.00312   0.03099
 119        4PZ        -0.00004  -0.00001  -0.01979  -0.08886  -0.00699
 120        5PX         0.00051  -0.00011   0.01042   0.00770   0.00532
 121        5PY        -0.00003   0.00007   0.00202   0.00690  -0.01054
 122        5PZ         0.00032  -0.00001   0.00735   0.01344   0.00093
 123 15  C  1S          0.00000   0.00000  -0.01358  -0.06111  -0.05862
 124        2S          0.00001   0.00000   0.02665   0.12033   0.12010
 125        3S          0.00001   0.00014   0.01450   0.06373   0.09557
 126        4PX         0.00005  -0.00002   0.00424   0.02039   0.01540
 127        4PY         0.00000  -0.00001  -0.01654  -0.07505  -0.00674
 128        4PZ         0.00000   0.00000   0.00907   0.04282  -0.00859
 129        5PX        -0.00023   0.00020   0.00185   0.00271  -0.00250
 130        5PY        -0.00016   0.00009   0.00671   0.02358   0.00270
 131        5PZ         0.00032  -0.00011  -0.00008  -0.00506   0.00754
 132 16  C  1S          0.00000   0.00000  -0.00275  -0.01253  -0.04602
 133        2S         -0.00006   0.00004   0.00564   0.02465   0.09160
 134        3S          0.00026  -0.00017  -0.00104   0.00586   0.06855
 135        4PX        -0.00001   0.00001  -0.00252  -0.01129  -0.02108
 136        4PY         0.00000   0.00000  -0.00219  -0.01084  -0.01094
 137        4PZ        -0.00001   0.00000   0.00183   0.00878   0.00885
 138        5PX        -0.00013   0.00005   0.00302   0.01000   0.00379
 139        5PY        -0.00005   0.00008  -0.00321  -0.00739   0.00125
 140        5PZ         0.00007  -0.00012  -0.00071  -0.00312  -0.00359
 141 17  H  1S          0.00002   0.00000   0.00068   0.00318  -0.03354
 142        2S          0.00007  -0.00007   0.00492  -0.00532   0.00095
 143 18  H  1S          0.00000   0.00002   0.00077   0.00493  -0.03325
 144        2S          0.00015  -0.00017   0.00394  -0.00175   0.00088
 145 19  H  1S          0.00001   0.00002   0.00119   0.00475  -0.03329
 146        2S         -0.00006  -0.00011  -0.00177  -0.00397  -0.00205
 147 20  H  1S         -0.00042  -0.00003   0.00020   0.00040   0.00031
 148        2S          0.00306  -0.00040  -0.00064  -0.00091   0.00112
 149 21  H  1S         -0.00052  -0.00004   0.00013  -0.00101   0.00077
 150        2S          0.00355  -0.00056   0.00008   0.01133  -0.00077
 151 22  H  1S         -0.00045  -0.00009   0.00005   0.00002   0.00017
 152        2S          0.00311   0.00015  -0.00024   0.00397  -0.00162
 153 23  H  1S         -0.00005  -0.00048   0.00004   0.00004   0.00002
 154        2S         -0.00046   0.00355  -0.00053  -0.00031   0.00003
 155 24  H  1S         -0.00008  -0.00047   0.00001  -0.00007   0.00008
 156        2S          0.00001   0.00320   0.00013   0.00092  -0.00084
 157 25  H  1S         -0.00009  -0.00047   0.00000  -0.00005   0.00006
 158        2S         -0.00003   0.00318  -0.00001   0.00002  -0.00051
 159 26  H  1S         -0.00001   0.00001   0.02155  -0.00519   0.05518
 160        2S          0.00002  -0.00017  -0.00511   0.00483  -0.00243
 161 27  H  1S          0.00001   0.00002   0.02049  -0.00450   0.06188
 162        2S         -0.00011  -0.00007  -0.00129  -0.00204   0.00138
 163 28  H  1S          0.00000   0.00000   0.00311  -0.00078   0.05084
 164        2S          0.00006  -0.00006   0.00180   0.00305  -0.00207
 165 29  H  1S         -0.00001   0.00002   0.00475  -0.00154   0.05056
 166        2S          0.00004  -0.00014  -0.00167   0.00485   0.00004
 167 30  H  1S         -0.00001   0.00000   0.00478  -0.00093   0.04850
 168        2S          0.00003   0.00000   0.00037  -0.00044   0.00161
 169 31  H  1S          0.00000   0.00000   0.01947  -0.00421  -0.05535
 170        2S          0.00009  -0.00004   0.00347  -0.00080  -0.00106
 171 32  H  1S         -0.00001  -0.00001   0.02087  -0.00481  -0.04777
 172        2S          0.00001   0.00003  -0.00773   0.00182   0.00591
 173 33  H  1S         -0.00002  -0.00001   0.00280  -0.00058  -0.03540
 174        2S          0.00014   0.00017   0.00042  -0.00136  -0.00015
 175 34  H  1S         -0.00001   0.00000   0.00429  -0.00097  -0.03373
 176        2S          0.00005   0.00002   0.00214  -0.00057   0.00363
 177 35  H  1S         -0.00002  -0.00004   0.00441  -0.00067  -0.03536
 178        2S          0.00009   0.00019  -0.00319  -0.00183   0.00466
 179 36  H  1S          0.00008   0.00001   0.00460   0.02058  -0.03581
 180        2S         -0.00025  -0.00006   0.00086  -0.00124   0.00285
 181 37  H  1S          0.00000   0.00001   0.00513   0.02209  -0.03485
 182        2S         -0.00030  -0.00001  -0.00606  -0.00688   0.00186
 183 38  H  1S         -0.00001  -0.00001   0.00460   0.02061   0.02898
 184        2S         -0.00015   0.00005  -0.00211  -0.00405  -0.00286
 185 39  H  1S         -0.00003   0.00005   0.00475   0.01935   0.03303
 186        2S          0.00003  -0.00015  -0.00233   0.00192   0.00111
 187 40  H  1S         -0.00002   0.00002   0.00061   0.00303   0.02420
 188        2S          0.00004  -0.00010   0.00140   0.00011   0.00038
 189 41  H  1S         -0.00002   0.00003   0.00098   0.00475   0.02465
 190        2S          0.00008  -0.00012  -0.00090  -0.00527   0.00071
 191 42  H  1S         -0.00001   0.00001   0.00109   0.00472   0.02341
 192        2S          0.00003   0.00000  -0.00020  -0.00064  -0.00023
                          16        17        18        19        20
                           O         O         O         O         O
     Eigenvalues --    -0.81394  -0.77538  -0.77417  -0.70270  -0.69797
   1 1   Mg 1S         -0.00066  -0.01939  -0.00692   0.06448   0.01238
   2        2S          0.00274   0.00555   0.00538  -0.00446  -0.00482
   3        3PX         0.00149  -0.00776   0.00089  -0.02608  -0.00846
   4        3PY        -0.00002   0.00141  -0.00950  -0.00107  -0.02242
   5        3PZ         0.00224   0.00259  -0.00282  -0.01062   0.03736
   6        4PX         0.00509   0.00238   0.00830   0.02223   0.00888
   7        4PY         0.00296  -0.00357   0.00260  -0.00513  -0.00545
   8        4PZ         0.00552   0.00069   0.00172  -0.00295   0.01059
   9 2   Br 1S          0.00014   0.00242   0.00079   0.16166   0.22706
  10        2S         -0.00006   0.00593   0.00235   0.42862   0.60040
  11        3PX         0.00010   0.00032   0.00014   0.01672   0.02410
  12        3PY         0.00050  -0.00029   0.00003   0.01768   0.02219
  13        3PZ         0.00047  -0.00010   0.00002  -0.02285  -0.02623
  14        4PX        -0.00024   0.00235   0.00087   0.01348   0.01409
  15        4PY         0.00124  -0.00081   0.00141   0.00987   0.01254
  16        4PZ         0.00067  -0.00079   0.00123  -0.00884  -0.01607
  17 3   Br 1S         -0.00186  -0.00070   0.00184   0.22478  -0.16098
  18        2S         -0.00369  -0.00124   0.00515   0.59515  -0.42437
  19        3PX        -0.00013  -0.00009   0.00004   0.01669  -0.01297
  20        3PY        -0.00010  -0.00005   0.00034  -0.00703   0.00299
  21        3PZ        -0.00080  -0.00063   0.00037   0.04091  -0.02513
  22        4PX         0.00004   0.00023   0.00119   0.01311  -0.00602
  23        4PY        -0.00349   0.00147   0.00098   0.00014   0.00224
  24        4PZ        -0.00119   0.00067   0.00108   0.02257  -0.01660
  25 4   C  1S         -0.09693  -0.03588  -0.10133  -0.01133   0.00334
  26        2S          0.19085   0.07060   0.19976   0.02261  -0.00623
  27        3S          0.15794   0.06758   0.18553   0.02117  -0.00713
  28        4PX        -0.02148  -0.00277  -0.00797   0.00147  -0.00249
  29        4PY         0.04200   0.00972   0.02861  -0.00826  -0.00665
  30        4PZ        -0.01557  -0.00006   0.00085   0.00244  -0.00175
  31        5PX         0.00465   0.00097   0.00046   0.00234   0.00132
  32        5PY        -0.00361   0.00532  -0.00174   0.00345   0.00545
  33        5PZ         0.00091   0.00529  -0.00001  -0.00155   0.01055
  34 5   O  1S          0.00512   0.06862  -0.02416   0.00242  -0.00207
  35        2S         -0.01087  -0.14610   0.05144  -0.00496   0.00480
  36        3S         -0.01326  -0.18659   0.06597  -0.00814   0.00426
  37        4PX         0.03097   0.02099  -0.00709  -0.01326  -0.00540
  38        4PY         0.06804  -0.04401   0.01483   0.01474  -0.01522
  39        4PZ        -0.06110   0.00721  -0.00087  -0.00634   0.03300
  40        5PX         0.00747   0.01268  -0.00347   0.00128   0.00034
  41        5PY         0.01554  -0.01807   0.00599   0.00217  -0.00201
  42        5PZ        -0.01434  -0.00218   0.00064  -0.00159   0.00382
  43 6   Mg 1S         -0.00005  -0.00009   0.00020   0.01159   0.00142
  44        2S          0.00227   0.00144   0.00436   0.02393   0.00748
  45        3PX        -0.00003   0.00006   0.00130   0.00783   0.00158
  46        3PY        -0.00006   0.00039   0.00033  -0.00087  -0.00226
  47        3PZ         0.00015   0.00000  -0.00041  -0.00091   0.00407
  48        4PX         0.00094   0.00066   0.00233   0.00893   0.00339
  49        4PY        -0.00115  -0.00082  -0.00073  -0.00698  -0.00485
  50        4PZ        -0.00070  -0.00022  -0.00119  -0.00355   0.00589
  51 7   C  1S          0.00061  -0.00022  -0.00064  -0.00419  -0.00057
  52        2S         -0.00107   0.00013   0.00064   0.00837   0.00127
  53        3S         -0.00208   0.00300   0.00776   0.00224  -0.00010
  54        4PX        -0.00090   0.00051   0.00136   0.00183   0.00021
  55        4PY        -0.00037   0.00004   0.00033  -0.00046  -0.00068
  56        4PZ         0.00015  -0.00002  -0.00004  -0.00041   0.00124
[...]
       -------------------------------
            Total unit  1   82.05375  (100.0000%)
           Charge unit  1   -0.05375

 Molecular unit  2  (C4H10O)
     3. BD (   1) C   4 - C  14          1.99084    -0.65085  175(v),51(r),52(r),156(r)
                                                    66(r)
     4. BD (   1) C   4 - H  17          1.97628    -0.52978  174(v),51(r),156(r),52(r)
     5. BD (   1) C   4 - H  18          1.98345    -0.53191  185(v),51(r),174(v),156(r)
                                                    155(r),66(r),68(r)
     6. BD (   1) C   4 - H  19          1.98181    -0.53011  186(v),51(r),155(r),156(r)
                                                    68(r),75(r),76(r)
    20. BD (   1) O  10 - C  14          1.99036    -0.80673  51(r),52(r),158(v),121(v)
                                                    189(v),67(r),68(r),155(r)
                                                    76(r),86(r),163(r)
    21. BD (   1) O  10 - C  15          1.98815    -0.79349  51(r),52(r),157(v),190(v)
                                                    119(v),156(r),67(r),68(r)
                                                    61(r),163(r)
    31. BD (   1) C  14 - H  36          1.98171    -0.54952  51(r),159(v),175(v),52(r)
                                                    156(r),66(r),163(r),155(r)
    32. BD (   1) C  14 - H  37          1.98239    -0.55670  160(v),51(r),78(v),52(r)
                                                    155(r)
    33. BD (   1) C  15 - C  16          1.99347    -0.64414  52(r),174(v),51(r),101(v)
                                                    156(r),133(r),90(r)
    34. BD (   1) C  15 - H  38          1.98095    -0.54564  191(v),51(r),52(r),157(r)
                                                    126(v),175(g),156(r),90(r)
    35. BD (   1) C  15 - H  39          1.97694    -0.54043  192(v),174(v),51(r),52(r)
                                                    125(v),156(r),155(r),61(r)
                                                    163(r),66(r),143(r),68(r)
    36. BD (   1) C  16 - H  40          1.97631    -0.52318  175(v),51(r),52(r)
    37. BD (   1) C  16 - H  41          1.98597    -0.52465  188(v),51(r),156(r),155(r)
                                                    52(r),68(r)
    38. BD (   1) C  16 - H  42          1.98754    -0.52928  189(v),121(v),51(r),52(r)
    39. CR (   1) C   4                  1.99939   -10.09031  51(r),129(v),131(v),120(v)
                                                    130(v),156(r),155(r)
    44. CR (   1) O  10                  1.99986   -19.03729  51(r),52(r),122(v),118(v)
                                                    156(r),155(r),67(r)
    48. CR (   1) C  14                  1.99916   -10.17341  51(r),174(g),79(v),175(v)
                                                    149(v),148(v),52(r),155(r)
                                                    156(r)
    49. CR (   1) C  15                  1.99916   -10.16063  175(g),51(r),52(r),127(v)
                                                    174(v),151(v),150(v),156(r)
    50. CR (   1) C  16                  1.99937   -10.08691  124(v),152(v),154(v),153(v)
                                                    51(r),52(r)
    63. LP (   1) O  10                  1.95586    -0.36609  185(v),187(v),186(v),188(v)
                                                    155(r),52(r),189(v),190(r)
                                                    51(r),68(r),67(r),72(r)
                                                    86(r),164(r),89(r),66(r)
                                                    69(r),82(r),156(r),93(r)
    64. LP (   2) O  10                  1.93085    -0.66228  51(r),156(r),52(r),155(r)
                                                    68(r),189(v),122(v),118(v)
                                                    186(v),67(r),117(v),188(v)
                                                    66(r),82(r),166(r),74(r)
    77. RY*(   1) C   4                  0.00303     0.37799   
    78. RY*(   2) C   4                  0.00213     0.26395   
    79. RY*(   3) C   4                  0.00079     0.43755   
    80. RY*(   4) C   4                  0.00016     0.96257   
   101. RY*(   1) O  10                  0.00306     0.86120   
   102. RY*(   2) O  10                  0.00125     1.03006   
   103. RY*(   3) O  10                  0.00092     1.02884   
   104. RY*(   4) O  10                  0.00025     1.72799   
   117. RY*(   1) C  14                  0.00404     0.45536   
   118. RY*(   2) C  14                  0.00224     0.49782   
   119. RY*(   3) C  14                  0.00150     0.28682   
   120. RY*(   4) C  14                  0.00061     0.92121   
   121. RY*(   1) C  15                  0.00460     0.47485   
   122. RY*(   2) C  15                  0.00243     0.37036   
   123. RY*(   3) C  15                  0.00101     0.49445   
   124. RY*(   4) C  15                  0.00062     0.95263   
   125. RY*(   1) C  16                  0.00264     0.28959   
   126. RY*(   2) C  16                  0.00193     0.29575   
   127. RY*(   3) C  16                  0.00082     0.53013   
   128. RY*(   4) C  16                  0.00006     0.83050   
   129. RY*(   1) H  17                  0.00068     0.83900   
   130. RY*(   1) H  18                  0.00119     0.94792   
   131. RY*(   1) H  19                  0.00119     0.96077   
   148. RY*(   1) H  36                  0.00194     0.84909   
   149. RY*(   1) H  37                  0.00210     0.86160   
   150. RY*(   1) H  38                  0.00187     0.86502   
   151. RY*(   1) H  39                  0.00191     0.97779   
   152. RY*(   1) H  40                  0.00075     0.83613   
   153. RY*(   1) H  41                  0.00109     0.89508   
   154. RY*(   1) H  42                  0.00107     0.86612   
   157. BD*(   1) C   4 - C  14          0.00694     0.33066   
   158. BD*(   1) C   4 - H  17          0.00545     0.44941   
   159. BD*(   1) C   4 - H  18          0.00841     0.43579   
   160. BD*(   1) C   4 - H  19          0.01187     0.44448   
   174. BD*(   1) O  10 - C  14          0.03472     0.15797   
   175. BD*(   1) O  10 - C  15          0.03541     0.15394   
   185. BD*(   1) C  14 - H  36          0.01927     0.44715   
   186. BD*(   1) C  14 - H  37          0.01859     0.43686   
   187. BD*(   1) C  15 - C  16          0.01259     0.33819   
   188. BD*(   1) C  15 - H  38          0.01784     0.45390   
   189. BD*(   1) C  15 - H  39          0.01815     0.46766   
   190. BD*(   1) C  16 - H  40          0.00473     0.45024   
   191. BD*(   1) C  16 - H  41          0.00808     0.44411   
   192. BD*(   1) C  16 - H  42          0.00849     0.43743   
       -------------------------------
              Total Lewis   41.65982  ( 99.3835%)
        Valence non-Lewis    0.21054  (  0.5023%)
        Rydberg non-Lewis    0.04788  (  0.1142%)
       -------------------------------
            Total unit  2   41.91825  (100.0000%)
           Charge unit  2    0.08175

 Molecular unit  3  (C4H10O)
     7. BD (   1) O   5 - C   9          1.99015    -0.81139  52(r),51(r),176(v),180(v)
                                                    110(v),68(r),156(r),86(r)
                                                    66(r),67(r)
     8. BD (   1) O   5 - C  12          1.99026    -0.80828  52(r),182(v),51(r),173(v)
                                                    98(v),68(r),155(r),66(r)
                                                    86(r),102(r)
    17. BD (   1) C   9 - C  11          1.99366    -0.65223  52(r),162(v),81(v),51(r)
                                                    156(r),86(r)
    18. BD (   1) C   9 - H  26          1.98240    -0.55798  177(v),52(r),51(r),106(v)
                                                    86(r),164(r)
    19. BD (   1) C   9 - H  27          1.97687    -0.55265  162(v),178(v),52(r),51(r)
                                                    105(v),156(r),155(r),67(r)
                                                    66(r),68(r),86(r)
    22. BD (   1) C  11 - H  28          1.97782    -0.53327  161(v),52(r),51(r)
    23. BD (   1) C  11 - H  29          1.98595    -0.53392  172(v),51(r),52(r),155(r)
                                                    67(r)
    24. BD (   1) C  11 - H  30          1.98699    -0.53618  173(v),97(v),52(r),51(r)
    25. BD (   1) C  12 - C  13          1.99387    -0.64260  52(r),161(v),81(v),51(r)
                                                    164(r),86(r)
    26. BD (   1) C  12 - H  31          1.97746    -0.54925  161(v),183(v),52(r),113(v)
                                                    155(r),51(r),151(r),67(r)
                                                    156(r)
    27. BD (   1) C  12 - H  32          1.98374    -0.55689  184(v),52(r),114(v),162(g)
                                                    51(r),155(r)
    28. BD (   1) C  13 - H  33          1.97552    -0.51768  162(v),52(r)
    29. BD (   1) C  13 - H  34          1.98623    -0.52157  180(v),109(v),52(r)
    30. BD (   1) C  13 - H  35          1.98442    -0.51269  181(v),52(r),155(r)
    40. CR (   1) O   5                  1.99986   -19.03844  52(r),51(r),98(v),110(v)
                                                    155(r),156(r),68(r)
    43. CR (   1) C   9                  1.99918   -10.17362  52(r),161(g),162(v),107(v)
                                                    138(v),139(v),51(r),156(r)
                                                    155(r)
    45. CR (   1) C  11                  1.99937   -10.09555  140(v),142(v),141(v),100(v)
                                                    52(r),51(r)
    46. CR (   1) C  12                  1.99918   -10.17085  52(r),162(g),115(v),161(v)
                                                    144(v),143(v),51(r),155(r)
    47. CR (   1) C  13                  1.99937   -10.07892  145(v),147(v),146(v),112(v)
                                                    52(r)
    59. LP (   1) O   5                  1.95410    -0.36697  171(v),179(v),181(v),172(v)
                                                    173(v),156(r),51(r),176(r)
                                                    180(v),52(r),76(r),68(r)
                                                    155(r),73(r),75(r),86(r)
    60. LP (   2) O   5                  1.93324    -0.65529  52(r),51(r),155(r),156(r)
                                                    180(v),173(v),67(r),68(r)
                                                    98(v),110(v),172(v),181(v)
                                                    66(r),74(r),163(r),86(r)
                                                    93(r),89(r),159(r),160(r)
                                                    164(r),131(r),102(r)
    81. RY*(   1) O   5                  0.00331     0.84252   
    82. RY*(   2) O   5                  0.00120     1.08345   
    83. RY*(   3) O   5                  0.00089     0.99011   
    84. RY*(   4) O   5                  0.00028     1.68719   
    97. RY*(   1) C   9                  0.00460     0.46168   
    98. RY*(   2) C   9                  0.00254     0.38843   
    99. RY*(   3) C   9                  0.00140     0.34375   
   100. RY*(   4) C   9                  0.00071     0.99416   
   105. RY*(   1) C  11                  0.00245     0.30800   
   106. RY*(   2) C  11                  0.00176     0.28490   
   107. RY*(   3) C  11                  0.00076     0.55295   
   108. RY*(   4) C  11                  0.00009     0.78414   
   109. RY*(   1) C  12                  0.00439     0.46526   
   110. RY*(   2) C  12                  0.00214     0.38855   
   111. RY*(   3) C  12                  0.00121     0.36301   
   112. RY*(   4) C  12                  0.00056     0.97309   
   113. RY*(   1) C  13                  0.00277     0.28756   
   114. RY*(   2) C  13                  0.00185     0.31358   
   115. RY*(   3) C  13                  0.00073     0.57216   
   116. RY*(   4) C  13                  0.00007     0.81039   
   138. RY*(   1) H  26                  0.00187     0.87106   
   139. RY*(   1) H  27                  0.00147     0.93871   
   140. RY*(   1) H  28                  0.00074     0.83547   
   141. RY*(   1) H  29                  0.00098     0.92925   
   142. RY*(   1) H  30                  0.00113     0.85247   
   143. RY*(   1) H  31                  0.00165     0.94197   
   144. RY*(   1) H  32                  0.00194     0.85660   
   145. RY*(   1) H  33                  0.00074     0.84652   
   146. RY*(   1) H  34                  0.00100     0.87498   
   147. RY*(   1) H  35                  0.00100     0.93282   
   161. BD*(   1) O   5 - C   9          0.03600     0.15688   
   162. BD*(   1) O   5 - C  12          0.03794     0.15431   
   171. BD*(   1) C   9 - C  11          0.01334     0.32422   
   172. BD*(   1) C   9 - H  26          0.01761     0.44006   
   173. BD*(   1) C   9 - H  27          0.01712     0.44672   
   176. BD*(   1) C  11 - H  28          0.00490     0.44184   
   177. BD*(   1) C  11 - H  29          0.00792     0.43595   
   178. BD*(   1) C  11 - H  30          0.00842     0.43330   
   179. BD*(   1) C  12 - C  13          0.01245     0.33443   
   180. BD*(   1) C  12 - H  31          0.01566     0.45328   
   181. BD*(   1) C  12 - H  32          0.01905     0.44017   
   182. BD*(   1) C  13 - H  33          0.00472     0.45502   
   183. BD*(   1) C  13 - H  34          0.00819     0.44640   
   184. BD*(   1) C  13 - H  35          0.00794     0.46810   
       -------------------------------
              Total Lewis   41.66962  ( 99.3858%)
        Valence non-Lewis    0.21126  (  0.5039%)
        Rydberg non-Lewis    0.04624  (  0.1103%)
       -------------------------------
            Total unit  3   41.92712  (100.0000%)
           Charge unit  3    0.07288

 Molecular unit  4  (C2H6Mg)
     9. BD (   1)Mg   6 - C   7          1.94922    -0.25564  164(g),86(g),93(v),52(r)
                                                    89(g),85(g),166(g),165(g)
                                                    163(g),156(r),67(r),69(r)
                                                    66(r),155(r),73(r),98(r)
                                                    76(r),110(r),82(r),188(r)
                                                    68(r),77(r),72(r)
    10. BD (   1)Mg   6 - C   8          1.95769    -0.23643  163(g),86(g),89(v),93(g)
                                                    164(g),88(g),95(g),69(r)
                                                    168(g),73(r),169(g),170(g)
                                                    52(r),151(r),68(r),77(r)
                                                    110(r),98(r),156(r),111(r)
                                                    155(r),106(r),130(r),143(r)
                                                    141(r),126(r),71(r),101(r)
                                                    76(r),72(r),118(r),79(r)
    11. BD (   1) C   7 - H  20          1.99582    -0.43793  52(r),156(r)
    12. BD (   1) C   7 - H  21          1.99021    -0.43875  52(r),155(r),156(r),187(r)
    13. BD (   1) C   7 - H  22          1.99532    -0.43687  61(v)
    14. BD (   1) C   8 - H  23          1.99627    -0.42169  51(r)
    15. BD (   1) C   8 - H  24          1.99620    -0.42286   
    16. BD (   1) C   8 - H  25          1.99613    -0.42296   
    41. CR (   1) C   7                  1.99952    -9.97327  134(v),132(v),133(v),52(r)
    42. CR (   1) C   8                  1.99952    -9.95731  135(v),136(v),137(v)
    61. LP*(   1)Mg   6                  0.05667     0.10682   
    62. LP*(   2)Mg   6                  0.04632     0.08424   
    85. RY*(   1)Mg   6                  0.00165     0.69651   
    86. RY*(   2)Mg   6                  0.00052     2.53164   
    87. RY*(   3)Mg   6                  0.00050     0.35077   
    88. RY*(   4)Mg   6                  0.00029     0.34287   
    89. RY*(   1) C   7                  0.00133     1.25639   
    90. RY*(   2) C   7                  0.00091     0.48866   
    91. RY*(   3) C   7                  0.00041     0.43169   
    92. RY*(   4) C   7                  0.00007     0.70000   
    93. RY*(   1) C   8                  0.00129     1.29682   
    94. RY*(   2) C   8                  0.00031     0.39995   
    95. RY*(   3) C   8                  0.00025     0.51480   
    96. RY*(   4) C   8                  0.00004     0.69681   
   132. RY*(   1) H  20                  0.00049     0.91816   
   133. RY*(   1) H  21                  0.00080     1.02624   
   134. RY*(   1) H  22                  0.00043     0.91418   
   135. RY*(   1) H  23                  0.00041     0.92441   
   136. RY*(   1) H  24                  0.00035     0.92539   
   137. RY*(   1) H  25                  0.00036     0.92588   
   163. BD*(   1)Mg   6 - C   7          0.05550     0.53922   
   164. BD*(   1)Mg   6 - C   8          0.04475     0.40397   
   165. BD*(   1) C   7 - H  20          0.00212     0.52432   
   166. BD*(   1) C   7 - H  21          0.00284     0.51486   
   167. BD*(   1) C   7 - H  22          0.00246     0.53252   
   168. BD*(   1) C   8 - H  23          0.00127     0.54446   
   169. BD*(   1) C   8 - H  24          0.00134     0.54265   
   170. BD*(   1) C   8 - H  25          0.00129     0.54163   
       -------------------------------
              Total Lewis   29.87591  ( 99.2526%)
        Valence non-Lewis    0.21456  (  0.7128%)
        Rydberg non-Lewis    0.01042  (  0.0346%)
       -------------------------------
            Total unit  4   30.10089  (100.0000%)
           Charge unit  4   -0.10089
 1\1\GINC-CX1-7-36-1\SP\RB3LYP\LANL2DZ\C10H26Br2Mg2O2\SCAN-USER-1\15-Ma
 r-2010\0\\# b3lyp/lanl2dz pop=(nbo,full) geom=connectivity\\terminal m
 e (same side)\\0,1\Mg,0,0.36496,-0.062926,0.064655\Br,0,-1.089706,-1.3
 4939,1.669334\Br,0,-0.825603,0.496378,-2.09687\C,0,2.257602,0.507929,2
 .69643\O,0,1.903237,-1.24825,-0.452136\Mg,0,-3.290769,0.407882,-0.0313
 52\C,0,-2.743242,2.219454,0.937083\C,0,-4.676288,-0.968415,-0.813974\C
 ,0,2.742559,-0.927468,-1.640781\O,0,1.101092,1.650696,0.822511\C,0,4.0
 9342,-0.34484,-1.222897\C,0,2.09812,-2.620951,0.107149\C,0,1.309431,-3
 .669076,-0.678371\C,0,1.588852,1.795986,2.223297\C,0,0.771266,2.97032,
 0.183642\C,0,2.014321,3.60716,-0.435036\H,0,2.671715,0.671881,3.699314
 \H,0,3.079516,0.221244,2.030479\H,0,1.538596,-0.315935,2.770674\H,0,-2
 .652546,3.05797,0.223912\H,0,-1.797253,2.145531,1.502217\H,0,-3.52468,
 2.495173,1.6676\H,0,-4.167654,-1.848609,-1.241328\H,0,-5.371486,-1.334
 369,-0.038785\H,0,-5.285824,-0.519859,-1.617571\H,0,2.854774,-1.844807
 ,-2.228874\H,0,2.152628,-0.219089,-2.230816\H,0,4.682647,-0.10627,-2.1
 18098\H,0,3.958001,0.577028,-0.646246\H,0,4.672609,-1.053222,-0.618475
 \H,0,1.743092,-2.55966,1.13908\H,0,3.176366,-2.821511,0.107819\H,0,1.4
 86336,-4.658606,-0.236463\H,0,1.612063,-3.711015,-1.731354\H,0,0.23624
 2,-3.461461,-0.626745\H,0,0.720481,2.05036,2.843497\H,0,2.299554,2.630
 106,2.232531\H,0,0.313161,3.596692,0.956864\H,0,0.015129,2.745532,-0.5
 71112\H,0,1.73602,4.566092,-0.891392\H,0,2.428684,2.967833,-1.223022\H
 ,0,2.796483,3.80477,0.308159\\Version=EM64L-G09RevA.02\State=1-A\HF=-5
 75.318462\RMSD=3.847e-09\Dipole=5.5961589,0.6010367,0.58787\Quadrupole
 =-4.8508596,9.2215452,-4.3706856,-4.3441144,-1.6685766,5.5517279\PG=C0
 1 [X(C10H26Br2Mg2O2)]\\@


 IT IS A QUALITY OF REVOLUTIONS NOT TO GO BY OLD LINES OR OLD LAWS,
 BUT TO BREAK UP BOTH, AND MAKE NEW ONES.
                                              -- A. LINCOLN (1848)
 Job cpu time:  0 days  0 hours  4 minutes 44.5 seconds.
 File lengths (MBytes):  RWF=     22 Int=      0 D2E=      0 Chk=      2 Scr=      1
 Normal termination of Gaussian 09 at Mon Mar 15 16:59:26 2010.
