 Entering Gaussian System, Link 0=g03
 Initial command:
 /apps/gaussian/g09/g09/l1.exe /home/scan-user-1/run/26217/Gau-30193.inp -scrdir=/home/scan-user-1/run/26217/
 Entering Link 1 = /apps/gaussian/g09/g09/l1.exe PID=     30194.
  
 Copyright (c) 1988,1990,1992,1993,1995,1998,2003,2009, Gaussian, Inc.
                  All Rights Reserved.
  
 This is part of the Gaussian(R) 09 program.  It is based on
 the Gaussian(R) 03 system (copyright 2003, Gaussian, Inc.),
 the Gaussian(R) 98 system (copyright 1998, Gaussian, Inc.),
 the Gaussian(R) 94 system (copyright 1995, Gaussian, Inc.),
 the Gaussian 92(TM) system (copyright 1992, Gaussian, Inc.),
 the Gaussian 90(TM) system (copyright 1990, Gaussian, Inc.),
 the Gaussian 88(TM) system (copyright 1988, Gaussian, Inc.),
 the Gaussian 86(TM) system (copyright 1986, Carnegie Mellon
 University), and the Gaussian 82(TM) system (copyright 1983,
 Carnegie Mellon University). Gaussian is a federally registered
 trademark of Gaussian, Inc.
  
 This software contains proprietary and confidential information,
 including trade secrets, belonging to Gaussian, Inc.
  
 This software is provided under written license and may be
 used, copied, transmitted, or stored only in accord with that
 written license.
  
 The following legend is applicable only to US Government
 contracts under FAR:
  
                    RESTRICTED RIGHTS LEGEND
  
 Use, reproduction and disclosure by the US Government is
 subject to restrictions as set forth in subparagraphs (a)
 and (c) of the Commercial Computer Software - Restricted
 Rights clause in FAR 52.227-19.
  
 Gaussian, Inc.
 340 Quinnipiac St., Bldg. 40, Wallingford CT 06492
  
  
 ---------------------------------------------------------------
 Warning -- This program may not be used in any manner that
 competes with the business of Gaussian, Inc. or will provide
 assistance to any competitor of Gaussian, Inc.  The licensee
 of this program is prohibited from giving any competitor of
 Gaussian, Inc. access to this program.  By using this program,
 the user acknowledges that Gaussian, Inc. is engaged in the
 business of creating and licensing software in the field of
 computational chemistry and represents and warrants to the
 licensee that it is not a competitor of Gaussian, Inc. and that
 it will not use this program in any manner prohibited above.
 ---------------------------------------------------------------
  

 Cite this work as:
 Gaussian 09, Revision A.02,
 M. J. Frisch, G. W. Trucks, H. B. Schlegel, G. E. Scuseria, 
 M. A. Robb, J. R. Cheeseman, G. Scalmani, V. Barone, B. Mennucci, 
 G. A. Petersson, H. Nakatsuji, M. Caricato, X. Li, H. P. Hratchian, 
 A. F. Izmaylov, J. Bloino, G. Zheng, J. L. Sonnenberg, M. Hada, 
 M. Ehara, K. Toyota, R. Fukuda, J. Hasegawa, M. Ishida, T. Nakajima, 
 Y. Honda, O. Kitao, H. Nakai, T. Vreven, J. A. Montgomery, Jr., 
 J. E. Peralta, F. Ogliaro, M. Bearpark, J. J. Heyd, E. Brothers, 
 K. N. Kudin, V. N. Staroverov, R. Kobayashi, J. Normand, 
 K. Raghavachari, A. Rendell, J. C. Burant, S. S. Iyengar, J. Tomasi, 
 M. Cossi, N. Rega, J. M. Millam, M. Klene, J. E. Knox, J. B. Cross, 
 V. Bakken, C. Adamo, J. Jaramillo, R. Gomperts, R. E. Stratmann, 
 O. Yazyev, A. J. Austin, R. Cammi, C. Pomelli, J. W. Ochterski, 
 R. L. Martin, K. Morokuma, V. G. Zakrzewski, G. A. Voth, 
 P. Salvador, J. J. Dannenberg, S. Dapprich, A. D. Daniels, 
 O. Farkas, J. B. Foresman, J. V. Ortiz, J. Cioslowski, 
 and D. J. Fox, Gaussian, Inc., Wallingford CT, 2009.
 
 ******************************************
 Gaussian 09:  EM64L-G09RevA.02 11-Jun-2009
                15-Mar-2010 
 ******************************************
 %nprocshared=4
 Will use up to    4 processors via shared memory.
 %mem=7000MB
 %NoSave
 %Chk=chk.chk
 %rwf=/tmp/pbs.3646626.cx1/rwf
 -------------------------------------------------
 # rb3lyp/lanl2dz pop=(nbo,full) geom=connectivity
 -------------------------------------------------
 1/38=1,57=2/1;
 2/12=2,17=6,18=5,40=1/2;
 3/5=6,6=3,11=2,16=1,25=1,30=1,74=-5,116=1/1,2,3;
 4//1;
 5/5=2,38=5/2;
 6/7=3,28=1/1,7;
 99/5=1,9=1/99;
 ----------
 [No Title]
 ----------
 Symbolic Z-matrix:
 Charge =  0 Multiplicity = 1
 Mg                    0.91941   0.02452   0.12535 
 C                    -0.33396  -0.24629   1.88928 
 C                    -0.22944   0.01277  -1.73517 
 C                     3.6231    1.02577   1.93842 
 O                     2.19339  -1.55095  -0.04872 
 Mg                   -1.78226  -0.0027    0.02961 
 Br                   -2.59995   2.38904   0.12247 
 Br                   -2.96719  -2.20453  -0.14136 
 C                     2.9555   -1.79215  -1.30218 
 O                     2.01122   1.73936   0.20764 
 C                     4.46551  -1.84402  -1.05911 
 C                     2.00955  -2.74964   0.83361 
 C                     0.95963  -3.72196   0.29318 
 C                     3.36341   1.9731    0.76754 
 C                     1.32105   2.97792  -0.29155 
 C                     1.93929   3.49494  -1.58884 
 H                     4.62258   1.21953   2.34843 
 H                     3.58732  -0.02326   1.62461 
 H                     2.89017   1.18476   2.73717 
 H                    -0.58494  -1.28407   2.16296 
 H                    -1.13864   0.38742   2.30559 
 H                     0.5247    0.03718   2.53406 
 H                    -1.1324    0.48034  -2.16769 
 H                    -0.20541  -1.01249  -2.1424 
 H                     0.5763    0.57468  -2.25293 
 H                     2.58335  -2.71665  -1.75687 
 H                     2.68856  -0.96112  -1.9626 
 H                     4.98354  -1.97097  -2.01859 
 H                     4.82203  -0.91551  -0.59872 
 H                     4.75098  -2.68334  -0.41493 
 H                     1.70018  -2.33116   1.79504 
 H                     2.99205  -3.22085   0.95405 
 H                     0.84186  -4.5471    1.00822 
 H                     1.25308  -4.16047  -0.66788 
 H                    -0.01817  -3.24234   0.17678 
 H                     3.40435   3.01666   1.10305 
 H                     4.09569   1.8355   -0.03817 
 H                     1.37494   3.71661   0.51798 
 H                     0.2714    2.69767  -0.42317 
 H                     1.37576   4.37525  -1.923 
 H                     1.87932   2.7396   -2.38057 
 H                     2.98682   3.79439  -1.46111 
 
                          Input orientation:                          
 ---------------------------------------------------------------------
 Center     Atomic      Atomic             Coordinates (Angstroms)
 Number     Number       Type             X           Y           Z
 ---------------------------------------------------------------------
      1         12           0        0.919405    0.024517    0.125351
      2          6           0       -0.333958   -0.246289    1.889278
      3          6           0       -0.229443    0.012768   -1.735167
      4          6           0        3.623102    1.025769    1.938416
      5          8           0        2.193388   -1.550948   -0.048722
      6         12           0       -1.782262   -0.002699    0.029610
      7         35           0       -2.599948    2.389041    0.122469
      8         35           0       -2.967189   -2.204528   -0.141362
      9          6           0        2.955504   -1.792146   -1.302180
     10          8           0        2.011217    1.739355    0.207641
     11          6           0        4.465515   -1.844023   -1.059107
     12          6           0        2.009549   -2.749639    0.833605
     13          6           0        0.959628   -3.721955    0.293181
     14          6           0        3.363411    1.973101    0.767541
     15          6           0        1.321045    2.977921   -0.291553
     16          6           0        1.939290    3.494939   -1.588839
     17          1           0        4.622582    1.219525    2.348425
     18          1           0        3.587321   -0.023260    1.624607
     19          1           0        2.890166    1.184761    2.737173
     20          1           0       -0.584941   -1.284071    2.162963
     21          1           0       -1.138644    0.387417    2.305591
     22          1           0        0.524698    0.037181    2.534059
     23          1           0       -1.132395    0.480341   -2.167692
     24          1           0       -0.205408   -1.012489   -2.142395
     25          1           0        0.576297    0.574679   -2.252930
     26          1           0        2.583346   -2.716648   -1.756869
     27          1           0        2.688555   -0.961120   -1.962596
     28          1           0        4.983540   -1.970968   -2.018594
     29          1           0        4.822027   -0.915511   -0.598722
     30          1           0        4.750977   -2.683338   -0.414933
     31          1           0        1.700183   -2.331161    1.795041
     32          1           0        2.992045   -3.220848    0.954051
     33          1           0        0.841860   -4.547095    1.008217
     34          1           0        1.253083   -4.160472   -0.667881
     35          1           0       -0.018171   -3.242336    0.176776
     36          1           0        3.404347    3.016664    1.103049
     37          1           0        4.095688    1.835496   -0.038171
     38          1           0        1.374938    3.716613    0.517982
     39          1           0        0.271400    2.697668   -0.423166
     40          1           0        1.375761    4.375247   -1.923000
     41          1           0        1.879320    2.739601   -2.380566
     42          1           0        2.986815    3.794389   -1.461108
 ---------------------------------------------------------------------
                    Distance matrix (angstroms):
                    1          2          3          4          5
     1  Mg   0.000000
     2  C    2.180755   0.000000
     3  C    2.186668   3.635194   0.000000
     4  C    3.405831   4.156786   5.418809   0.000000
     5  O    2.033574   3.441723   3.340571   3.554190   0.000000
     6  Mg   2.703500   2.369659   2.350728   5.824023   4.267201
     7  Br   4.239909   3.898883   3.836245   6.624389   6.207164
     8  Br   4.488362   3.859029   3.866765   7.628383   5.202625
     9  C    3.079579   4.836904   3.686337   4.346009   1.486659
    10  O    2.034575   3.502932   3.431641   2.470417   3.305299
    11  C    4.179627   5.854970   5.093855   4.234443   2.503863
    12  C    3.063655   3.587929   4.386635   4.251807   1.499719
    13  C    3.750445   4.037468   4.413189   5.686983   2.520383
    14  C    3.191011   4.455841   4.797401   1.528341   3.801863
    15  C    3.009604   4.229727   3.644196   3.752749   4.618507
    16  C    4.002804   5.591220   4.104915   4.623154   5.281809
    17  H    4.481475   5.189096   6.455551   1.097547   4.395773
    18  H    3.060691   3.936524   5.084984   1.095545   2.660246
    19  H    3.471553   3.627920   5.577397   1.095667   3.966209
    20  H    2.850846   1.102219   4.123541   4.805560   3.561164
    21  H    3.020051   1.105631   4.158694   4.818354   4.516911
    22  H    2.440866   1.110580   4.335391   3.306388   3.460843
    23  H    3.110580   4.198154   1.105000   6.306534   4.435877
    24  H    2.735554   4.105846   1.103433   5.955250   3.229184
    25  H    2.465080   4.319773   1.110423   5.201335   3.462919
    26  H    3.718257   5.282776   3.919434   5.361148   2.104445
    27  H    2.908762   4.948081   3.084622   4.476494   2.063008
    28  H    5.009556   6.820687   5.584866   5.146761   3.441186
    29  H    4.079019   5.763869   5.260281   3.412193   2.759714
    30  H    4.722852   6.091401   5.815203   4.535177   2.820936
    31  H    2.991103   2.914327   4.656160   3.871324   2.061903
    32  H    3.938905   4.559051   5.297750   4.404652   2.105225
    33  H    4.656727   4.544860   5.428277   6.297411   3.452629
    34  H    4.272551   4.937468   4.555537   6.269519   2.842032
    35  H    3.399121   3.465355   3.780987   5.880388   2.793320
    36  H    4.010458   5.023937   5.503026   2.170105   4.863751
    37  H    3.659940   5.260290   4.990881   2.187668   3.884181
    38  H    3.740754   4.528286   4.622682   3.783189   5.360803
    39  H    2.804731   3.792194   3.029996   4.427891   4.678139
    40  H    4.830409   6.230184   4.652224   5.583912   6.269068
    41  H    3.817426   5.660893   3.506999   4.963023   4.893357
    42  H    4.582900   6.211256   4.971929   4.430224   5.585426
                    6          7          8          9         10
     6  Mg   0.000000
     7  Br   2.529358   0.000000
     8  Br   2.506259   4.615772   0.000000
     9  C    5.236622   7.097535   6.049450   0.000000
    10  O    4.178149   4.657487   6.360860   3.955090   0.000000
    11  C    6.603824   8.320800   7.497820   1.530330   4.524249
    12  C    4.750781   6.939684   5.100552   2.524520   4.532428
    13  C    4.628207   7.074178   4.232175   3.202009   5.562289
    14  C    5.561140   6.012551   7.639057   4.315926   1.482078
    15  C    4.314830   3.986525   6.728245   5.142603   1.503189
    16  C    5.357499   4.975567   7.658502   5.391487   2.512885
    17  H    6.920460   7.647718   8.690673   5.017592   3.416490
    18  H    5.601505   6.808665   7.130090   3.477676   2.756575
    19  H    5.529244   6.199058   7.354036   5.018228   2.734714
    20  H    2.761646   4.660002   3.439805   4.979971   4.438967
    21  H    2.397191   3.302716   4.006162   5.876100   4.018800
    22  H    3.405278   4.594608   4.937247   4.896119   3.243356
    23  H    2.341750   3.322903   3.831580   4.756493   4.136378
    24  H    2.867708   4.736437   3.612828   3.362319   4.243671
    25  H    3.332590   4.361532   4.973832   3.488038   3.077316
    26  H    5.442018   7.514420   5.803496   1.095421   4.903325
    27  H    4.987551   6.598435   6.070453   1.094539   3.530054
    28  H    7.337936   9.005727   8.172677   2.158276   5.249507
    29  H    6.696616   8.156341   7.908390   2.178819   3.949581
    30  H    7.075780   8.947286   7.737841   2.192066   5.239666
    31  H    4.545977   6.600677   5.054706   3.385136   4.380146
    32  H    5.831388   7.964469   6.143721   2.670787   5.111043
    33  H    5.338092   7.793624   4.617143   4.170752   6.444204
    34  H    5.194891   7.639805   4.681200   2.984885   6.012426
    35  H    3.691737   6.195234   3.142446   3.623963   5.379276
    36  H    6.096699   6.116127   8.331019   5.395483   2.091431
    37  H    6.159046   6.720399   8.137363   4.007184   2.101115
    38  H    4.903030   4.209346   7.372158   6.013119   2.100169
    39  H    3.422647   2.938981   5.882125   5.304292   2.084045
    40  H    5.740401   4.892363   8.082629   6.396698   3.448385
    41  H    5.170720   5.143143   7.276475   4.780985   2.777896
    42  H    6.275684   5.974499   8.554467   5.588883   2.821290
                   11         12         13         14         15
    11  C    0.000000
    12  C    3.230212   0.000000
    13  C    4.200780   1.529637   0.000000
    14  C    4.372838   4.913408   6.199746   0.000000
    15  C    5.807579   5.877496   6.735048   2.510498   0.000000
    16  C    5.930172   6.698352   7.522320   3.145892   1.527248
    17  H    4.584896   4.987673   6.485328   2.156985   4.578383
    18  H    3.359870   3.247798   4.728405   2.184068   4.220754
    19  H    5.105585   4.458538   5.811707   2.173681   3.853666
    20  H    6.016842   3.262891   3.438758   5.305267   5.274657
    21  H    6.907034   4.681771   5.033833   5.014827   4.416553
    22  H    5.655069   3.586460   4.397932   3.863504   4.155262
    23  H    6.161836   5.414090   5.300165   5.572809   3.972049
    24  H    4.866465   4.096377   3.824990   5.487982   4.656076
    25  H    4.733006   4.757310   5.009061   4.341294   3.190176
    26  H    2.188814   2.653467   2.801751   5.382833   6.014039
    27  H    2.180229   3.388007   3.962314   4.064324   4.492050
    28  H    1.097761   4.193565   4.960053   5.093432   6.394376
    29  H    1.095988   3.650427   4.856928   3.512594   5.245001
    30  H    1.095855   3.013083   3.994306   5.000601   6.620386
    31  H    4.003814   1.093248   2.176767   4.727447   5.716990
    32  H    2.849485   1.096286   2.195126   5.210547   6.539764
    33  H    4.971046   2.150543   1.098181   6.994934   7.651463
    34  H    3.979788   2.194801   1.096382   6.643391   7.148629
    35  H    4.856555   2.187652   1.095297   6.243788   6.380002
    36  H    5.424691   5.938713   7.213981   1.096934   2.507302
    37  H    3.836397   5.112282   6.389830   1.097423   3.011309
    38  H    6.554353   6.504980   7.453544   2.656339   1.097232
    39  H    6.214658   5.854382   6.496027   3.391653   1.094358
    40  H    6.998015   7.665805   8.405314   4.118260   2.148752
    41  H    5.426257   6.362359   7.053117   3.563794   2.175418
    42  H    5.842931   7.003218   7.980128   2.902721   2.193004
                   16         17         18         19         20
    16  C    0.000000
    17  H    5.280115   0.000000
    18  H    5.041822   1.772059   0.000000
    19  H    4.995545   1.775837   1.784136   0.000000
    20  H    6.579263   5.781063   4.391724   4.301304   0.000000
    21  H    5.856360   5.821165   4.792404   4.129568   1.766579
    22  H    5.563762   4.269081   3.195374   2.636974   1.764856
    23  H    4.342594   7.352650   6.075431   6.382390   4.708230
    24  H    5.022257   6.961238   5.436329   6.182287   4.330578
    25  H    3.290393   6.161227   4.945613   5.534195   4.929862
    26  H    6.247148   6.041968   4.438095   5.959156   5.239790
    27  H    4.534044   5.203900   3.815152   5.170424   5.276392
    28  H    6.271227   5.420368   4.360723   6.079322   6.997516
    29  H    5.361210   3.644699   2.695144   4.389923   6.082602
    30  H    6.888741   4.783824   3.548216   5.325465   6.088967
    31  H    6.741755   4.631849   2.986092   3.829540   2.540385
    32  H    7.257849   4.931515   3.320929   4.753871   4.243513
    33  H    8.521934   7.024523   5.327530   6.327639   3.743865
    34  H    7.741083   7.028228   5.274532   6.545682   4.434602
    35  H    7.234634   6.794178   5.045616   5.883302   2.846220
    36  H    3.101838   2.502952   3.089764   2.508109   5.961053
    37  H    3.131832   2.520492   2.545239   3.095040   6.040280
    38  H    2.192334   4.486999   4.483961   3.692018   5.617288
    39  H    2.185473   5.366508   4.753121   4.374307   4.824482
    40  H    1.097347   6.224588   6.068227   5.847208   7.250333
    41  H    1.095885   5.674458   5.156751   5.443399   6.550280
    42  H    1.096948   4.880389   4.945370   4.944195   7.189025
                   21         22         23         24         25
    21  H    0.000000
    22  H    1.715100   0.000000
    23  H    4.474252   5.004879   0.000000
    24  H    4.755549   4.848101   1.757409   0.000000
    25  H    4.874034   4.817347   1.713416   1.772677   0.000000
    26  H    6.323924   5.498515   4.918968   3.290887   3.886792
    27  H    5.889263   5.089085   4.088953   2.899998   2.627662
    28  H    7.857588   6.681361   6.590585   5.278181   5.095000
    29  H    6.757385   5.402682   6.313890   5.259984   4.794089
    30  H    7.177633   5.827453   6.906164   5.508322   5.605431
    31  H    3.963618   2.745352   5.624171   4.568761   5.108140
    32  H    5.648790   4.381664   6.360431   4.968756   5.525087
    33  H    5.473115   4.841939   6.265716   4.849388   6.077678
    34  H    5.936766   5.329470   5.429280   3.769772   5.039055
    35  H    4.354586   4.075135   4.538320   3.222705   4.563602
    36  H    5.384962   4.383775   6.141067   6.308511   5.022325
    37  H    5.915098   4.754185   5.805528   5.571194   4.345219
    38  H    4.538412   4.280852   4.896225   5.651505   4.264684
    39  H    3.843384   3.985917   3.151278   4.116838   2.819234
    40  H    6.332930   6.277619   4.639075   5.619246   3.897732
    41  H    6.049871   5.769889   3.770941   4.298953   2.530029
    42  H    6.543309   6.011655   5.333860   5.810380   4.099282
                   26         27         28         29         30
    26  H    0.000000
    27  H    1.770670   0.000000
    28  H    2.526949   2.507964   0.000000
    29  H    3.097917   2.532575   1.776545   0.000000
    30  H    2.549613   3.100787   1.770109   1.778775   0.000000
    31  H    3.680305   4.119918   5.045194   4.180918   3.783564
    32  H    2.787533   3.702068   3.790102   3.327840   2.292788
    33  H    3.745532   5.009514   5.740342   5.622489   4.558524
    34  H    2.245022   3.738010   4.531519   4.824097   3.805413
    35  H    3.283782   4.136088   5.608310   5.426143   4.838116
    36  H    6.459415   5.072800   6.092206   4.513074   6.050430
    37  H    5.095401   3.674846   4.381726   2.899970   4.581617
    38  H    6.929794   5.455277   7.197555   5.880988   7.295707
    39  H    6.036446   4.647495   6.822449   5.813268   7.001564
    40  H    7.195890   5.495617   7.300661   6.451557   7.968059
    41  H    5.536723   3.811154   5.653023   5.019396   6.443477
    42  H    6.530227   4.791171   6.126748   5.127852   6.794682
                   31         32         33         34         35
    31  H    0.000000
    32  H    1.779807   0.000000
    33  H    2.503233   2.526888   0.000000
    34  H    3.100365   2.556862   1.768583   0.000000
    35  H    2.530170   3.109022   1.770125   1.781153   0.000000
    36  H    5.655286   6.252899   7.986600   7.699053   7.193517
    37  H    5.143942   5.269644   7.240151   6.665476   6.538686
    38  H    6.189688   7.136775   8.295383   7.966780   7.105220
    39  H    5.678995   6.657888   7.406813   6.932364   5.977243
    40  H    7.674958   8.281936   9.406661   8.628376   8.023695
    41  H    6.571180   6.919883   8.102846   7.136979   6.776728
    42  H    7.055515   7.419338   8.959841   8.180150   7.824839
                   36         37         38         39         40
    36  H    0.000000
    37  H    1.781991   0.000000
    38  H    2.225024   3.354160   0.000000
    39  H    3.499492   3.939129   1.772514   0.000000
    40  H    3.888172   4.171441   2.528279   2.506668   0.000000
    41  H    3.812879   3.349105   3.100086   2.533492   1.771518
    42  H    2.711843   2.663008   2.553624   3.107024   1.773763
                   41         42
    41  H    0.000000
    42  H    1.784524   0.000000
 Stoichiometry    C10H26Br2Mg2O2
 Framework group  C1[X(C10H26Br2Mg2O2)]
 Deg. of freedom   120
 Full point group                 C1      NOp   1
 Largest Abelian subgroup         C1      NOp   1
 Largest concise Abelian subgroup C1      NOp   1
                         Standard orientation:                         
 ---------------------------------------------------------------------
 Center     Atomic      Atomic             Coordinates (Angstroms)
 Number     Number       Type             X           Y           Z
 ---------------------------------------------------------------------
      1         12           0        0.919405    0.024517    0.125351
      2          6           0       -0.333958   -0.246289    1.889278
      3          6           0       -0.229443    0.012768   -1.735167
      4          6           0        3.623102    1.025769    1.938416
      5          8           0        2.193388   -1.550948   -0.048722
      6         12           0       -1.782262   -0.002699    0.029610
      7         35           0       -2.599948    2.389041    0.122469
      8         35           0       -2.967189   -2.204528   -0.141362
      9          6           0        2.955504   -1.792146   -1.302180
     10          8           0        2.011217    1.739355    0.207641
     11          6           0        4.465515   -1.844023   -1.059107
     12          6           0        2.009549   -2.749639    0.833605
     13          6           0        0.959628   -3.721955    0.293181
     14          6           0        3.363411    1.973101    0.767541
     15          6           0        1.321045    2.977921   -0.291553
     16          6           0        1.939290    3.494939   -1.588839
     17          1           0        4.622582    1.219525    2.348425
     18          1           0        3.587321   -0.023260    1.624607
     19          1           0        2.890166    1.184761    2.737173
     20          1           0       -0.584941   -1.284071    2.162963
     21          1           0       -1.138644    0.387417    2.305591
     22          1           0        0.524698    0.037181    2.534059
     23          1           0       -1.132395    0.480341   -2.167692
     24          1           0       -0.205408   -1.012489   -2.142395
     25          1           0        0.576297    0.574679   -2.252930
     26          1           0        2.583346   -2.716648   -1.756869
     27          1           0        2.688555   -0.961120   -1.962596
     28          1           0        4.983540   -1.970968   -2.018594
     29          1           0        4.822027   -0.915511   -0.598722
     30          1           0        4.750977   -2.683338   -0.414933
     31          1           0        1.700183   -2.331161    1.795041
     32          1           0        2.992045   -3.220848    0.954051
     33          1           0        0.841860   -4.547095    1.008217
     34          1           0        1.253083   -4.160472   -0.667881
     35          1           0       -0.018171   -3.242336    0.176776
     36          1           0        3.404347    3.016664    1.103049
     37          1           0        4.095688    1.835496   -0.038171
     38          1           0        1.374938    3.716613    0.517982
     39          1           0        0.271400    2.697668   -0.423166
     40          1           0        1.375761    4.375247   -1.923000
     41          1           0        1.879320    2.739601   -2.380566
     42          1           0        2.986815    3.794389   -1.461108
 ---------------------------------------------------------------------
 Rotational constants (GHZ):      0.2497383      0.1883713      0.1222754
 Standard basis: LANL2DZ (5D, 7F)
 There are   192 symmetry adapted basis functions of A   symmetry.
 Integral buffers will be    131072 words long.
 Raffenetti 2 integral format.
 Two-electron integral symmetry is turned on.
   192 basis functions,   452 primitive gaussians,   192 cartesian basis functions
    60 alpha electrons       60 beta electrons
       nuclear repulsion energy       994.3156895321 Hartrees.
 NAtoms=   42 NActive=   42 NUniq=   42 SFac= 7.50D-01 NAtFMM=   80 NAOKFM=F Big=F
 One-electron integrals computed using PRISM.
   1 Symmetry operations used in ECPInt.
 ECPInt:  NShTT=    8256 NPrTT=   48008 LenC2=    8030 LenP2D=   30297.
 LDataN:  DoStor=T MaxTD1= 4 Len=   56
 NBasis=   192 RedAO= T  NBF=   192
 NBsUse=   192 1.00D-06 NBFU=   192
 Harris functional with IExCor=  402 diagonalized for initial guess.
 ExpMin= 4.04D-02 ExpMax= 7.82D+03 ExpMxC= 2.73D+02 IAcc=2 IRadAn=         0 AccDes= 0.00D+00
 HarFok:  IExCor=  402 AccDes= 0.00D+00 IRadAn=         0 IDoV= 1
 ScaDFX=  1.000000  1.000000  1.000000  1.000000
 FoFCou: FMM=F IPFlag=           0 FMFlag=      100000 FMFlg1=           0
         NFxFlg=           0 DoJE=T BraDBF=F KetDBF=T FulRan=T
         Omega=  0.000000  0.000000  1.000000  0.000000  0.000000 ICntrl=     500 IOpCl=  0
         NMat0=    1 NMatS0=    1 NMatT0=    0 NMatD0=    1 NMtDS0=    0 NMtDT0=    0
         I1Cent=           4 NGrid=           0.
 Petite list used in FoFCou.
 Initial guess orbital symmetries:
       Occupied  (A) (A) (A) (A) (A) (A) (A) (A) (A) (A) (A) (A)
                 (A) (A) (A) (A) (A) (A) (A) (A) (A) (A) (A) (A)
                 (A) (A) (A) (A) (A) (A) (A) (A) (A) (A) (A) (A)
                 (A) (A) (A) (A) (A) (A) (A) (A) (A) (A) (A) (A)
                 (A) (A) (A) (A) (A) (A) (A) (A) (A) (A) (A) (A)
       Virtual   (A) (A) (A) (A) (A) (A) (A) (A) (A) (A) (A) (A)
                 (A) (A) (A) (A) (A) (A) (A) (A) (A) (A) (A) (A)
                 (A) (A) (A) (A) (A) (A) (A) (A) (A) (A) (A) (A)
                 (A) (A) (A) (A) (A) (A) (A) (A) (A) (A) (A) (A)
                 (A) (A) (A) (A) (A) (A) (A) (A) (A) (A) (A) (A)
                 (A) (A) (A) (A) (A) (A) (A) (A) (A) (A) (A) (A)
                 (A) (A) (A) (A) (A) (A) (A) (A) (A) (A) (A) (A)
                 (A) (A) (A) (A) (A) (A) (A) (A) (A) (A) (A) (A)
                 (A) (A) (A) (A) (A) (A) (A) (A) (A) (A) (A) (A)
                 (A) (A) (A) (A) (A) (A) (A) (A) (A) (A) (A) (A)
                 (A) (A) (A) (A) (A) (A) (A) (A) (A) (A) (A) (A)
 The electronic state of the initial guess is 1-A.
 Requested convergence on RMS density matrix=1.00D-08 within 128 cycles.
 Requested convergence on MAX density matrix=1.00D-06.
 Requested convergence on             energy=1.00D-06.
 No special actions if energy rises.
 Keep R1 ints in memory in canonical form, NReq=175748300.
 SCF Done:  E(RB3LYP) =  -575.323087736     A.U. after   12 cycles
             Convg  =    0.9498D-08             -V/T =  2.0400

 **********************************************************************

            Population analysis using the SCF density.

 **********************************************************************

 Orbital symmetries:
       Occupied  (A) (A) (A) (A) (A) (A) (A) (A) (A) (A) (A) (A)
                 (A) (A) (A) (A) (A) (A) (A) (A) (A) (A) (A) (A)
                 (A) (A) (A) (A) (A) (A) (A) (A) (A) (A) (A) (A)
                 (A) (A) (A) (A) (A) (A) (A) (A) (A) (A) (A) (A)
                 (A) (A) (A) (A) (A) (A) (A) (A) (A) (A) (A) (A)
       Virtual   (A) (A) (A) (A) (A) (A) (A) (A) (A) (A) (A) (A)
                 (A) (A) (A) (A) (A) (A) (A) (A) (A) (A) (A) (A)
                 (A) (A) (A) (A) (A) (A) (A) (A) (A) (A) (A) (A)
                 (A) (A) (A) (A) (A) (A) (A) (A) (A) (A) (A) (A)
                 (A) (A) (A) (A) (A) (A) (A) (A) (A) (A) (A) (A)
                 (A) (A) (A) (A) (A) (A) (A) (A) (A) (A) (A) (A)
                 (A) (A) (A) (A) (A) (A) (A) (A) (A) (A) (A) (A)
                 (A) (A) (A) (A) (A) (A) (A) (A) (A) (A) (A) (A)
                 (A) (A) (A) (A) (A) (A) (A) (A) (A) (A) (A) (A)
                 (A) (A) (A) (A) (A) (A) (A) (A) (A) (A) (A) (A)
                 (A) (A) (A) (A) (A) (A) (A) (A) (A) (A) (A) (A)
 The electronic state is 1-A.
 Alpha  occ. eigenvalues --  -19.21743 -19.21282 -10.29654 -10.29610 -10.28844
 Alpha  occ. eigenvalues --  -10.27691 -10.22928 -10.22637 -10.21160 -10.20334
 Alpha  occ. eigenvalues --  -10.13574 -10.13441  -1.08331  -1.07844  -0.82190
 Alpha  occ. eigenvalues --   -0.82144  -0.78194  -0.77867  -0.69450  -0.68621
 Alpha  occ. eigenvalues --   -0.67075  -0.66419  -0.65883  -0.65699  -0.64676
 Alpha  occ. eigenvalues --   -0.63842  -0.55264  -0.54504  -0.54014  -0.53187
 Alpha  occ. eigenvalues --   -0.50803  -0.48239  -0.47736  -0.46865  -0.46469
 Alpha  occ. eigenvalues --   -0.44494  -0.43670  -0.43435  -0.42718  -0.42199
 Alpha  occ. eigenvalues --   -0.41280  -0.41180  -0.40303  -0.39846  -0.39065
 Alpha  occ. eigenvalues --   -0.38548  -0.38279  -0.37946  -0.37678  -0.37479
 Alpha  occ. eigenvalues --   -0.33584  -0.32992  -0.30428  -0.25687  -0.24751
 Alpha  occ. eigenvalues --   -0.23663  -0.22204  -0.22019  -0.21736  -0.21693
 Alpha virt. eigenvalues --    0.00042   0.01806   0.02314   0.03280   0.03911
 Alpha virt. eigenvalues --    0.05213   0.06713   0.07234   0.08065   0.08364
 Alpha virt. eigenvalues --    0.08675   0.09537   0.09762   0.10487   0.10638
 Alpha virt. eigenvalues --    0.11898   0.12478   0.12595   0.13544   0.13634
 Alpha virt. eigenvalues --    0.14254   0.14735   0.15176   0.15473   0.15596
 Alpha virt. eigenvalues --    0.16467   0.16851   0.17317   0.18093   0.18283
 Alpha virt. eigenvalues --    0.18600   0.18677   0.19053   0.19855   0.20591
 Alpha virt. eigenvalues --    0.20808   0.21174   0.21537   0.22876   0.23049
 Alpha virt. eigenvalues --    0.24019   0.25070   0.26090   0.26831   0.27314
 Alpha virt. eigenvalues --    0.28238   0.28894   0.29269   0.30019   0.30125
 Alpha virt. eigenvalues --    0.30781   0.32000   0.32569   0.33136   0.33820
 Alpha virt. eigenvalues --    0.34081   0.34770   0.35038   0.36465   0.37218
 Alpha virt. eigenvalues --    0.37698   0.38472   0.39718   0.40256   0.40931
 Alpha virt. eigenvalues --    0.41732   0.43254   0.44110   0.45007   0.46654
 Alpha virt. eigenvalues --    0.47064   0.47820   0.50488   0.52298   0.52458
 Alpha virt. eigenvalues --    0.54820   0.56419   0.58270   0.61731   0.62961
 Alpha virt. eigenvalues --    0.64736   0.67990   0.68955   0.71770   0.80469
 Alpha virt. eigenvalues --    0.84512   0.86921   0.88290   0.90138   0.94988
 Alpha virt. eigenvalues --    0.95717   0.97115   0.98732   1.01145   1.01651
 Alpha virt. eigenvalues --    1.02823   1.04288   1.06776   1.07548   1.08504
 Alpha virt. eigenvalues --    1.09219   1.10092   1.10511   1.11422   1.11615
 Alpha virt. eigenvalues --    1.13490   1.15376   1.15641   1.16313   1.17488
 Alpha virt. eigenvalues --    1.18358   1.19182   1.19773   1.21429   1.23024
 Alpha virt. eigenvalues --    1.23672   1.24414   1.25763   1.28745   1.30284
 Alpha virt. eigenvalues --    1.31688   1.34741   1.35609   1.38480   1.44868
 Alpha virt. eigenvalues --    1.54410   1.82974   1.84505   5.78623   8.23751
 Alpha virt. eigenvalues --   18.77013  19.43395
     Molecular Orbital Coefficients:
                           1         2         3         4         5
                           O         O         O         O         O
     Eigenvalues --   -19.21743 -19.21282 -10.29654 -10.29610 -10.28844
   1 1   Mg 1S          0.00015   0.00010   0.00012  -0.00005   0.00016
   2        2S         -0.00011  -0.00074  -0.00010  -0.00091   0.00062
   3        3PX        -0.00021  -0.00006   0.00003  -0.00025  -0.00024
   4        3PY        -0.00007  -0.00016   0.00003  -0.00025  -0.00045
   5        3PZ        -0.00012   0.00005  -0.00048  -0.00017   0.00014
   6        4PX         0.00067   0.00056   0.00111   0.00259   0.00105
   7        4PY        -0.00066   0.00023  -0.00173   0.00023  -0.00094
   8        4PZ         0.00000   0.00000   0.00094   0.00072  -0.00049
   9 2   C  1S          0.00000   0.00000  -0.00001   0.00000   0.00000
  10        2S          0.00007   0.00006  -0.00007  -0.00002   0.00003
  11        3S         -0.00011  -0.00013   0.00038   0.00037   0.00007
  12        4PX         0.00003   0.00000   0.00003   0.00004   0.00002
  13        4PY        -0.00004   0.00002  -0.00004   0.00002  -0.00006
  14        4PZ        -0.00003  -0.00002   0.00003   0.00001   0.00003
  15        5PX        -0.00024  -0.00004  -0.00002  -0.00011  -0.00065
  16        5PY         0.00050  -0.00012   0.00045   0.00002   0.00073
  17        5PZ         0.00012   0.00004  -0.00002   0.00012   0.00009
  18 3   C  1S          0.00000   0.00000   0.00000  -0.00001   0.00000
  19        2S          0.00007   0.00001  -0.00001  -0.00007   0.00003
  20        3S         -0.00007   0.00010   0.00023   0.00022   0.00019
  21        4PX         0.00003   0.00001   0.00000   0.00001   0.00004
  22        4PY        -0.00002   0.00002  -0.00002  -0.00001  -0.00005
  23        4PZ         0.00001   0.00002   0.00000   0.00001   0.00000
  24        5PX        -0.00049  -0.00002  -0.00035  -0.00019  -0.00038
  25        5PY         0.00025  -0.00007   0.00051   0.00036   0.00050
  26        5PZ        -0.00014  -0.00008  -0.00024  -0.00002  -0.00021
  27 4   C  1S          0.00000   0.00001  -0.00001   0.00145   0.00002
  28        2S         -0.00005   0.00002  -0.00006  -0.00039   0.00007
  29        3S          0.00046  -0.00053   0.00063   0.00414  -0.00012
  30        4PX        -0.00001   0.00005  -0.00001  -0.00003   0.00000
  31        4PY        -0.00004  -0.00008  -0.00004   0.00004  -0.00004
  32        4PZ        -0.00002   0.00009   0.00000  -0.00008   0.00000
  33        5PX         0.00015   0.00032   0.00017  -0.00032   0.00018
  34        5PY        -0.00004  -0.00001   0.00021   0.00156   0.00019
  35        5PZ        -0.00014   0.00005  -0.00018  -0.00174  -0.00015
  36 5   O  1S          0.99883   0.00011  -0.00001   0.00000  -0.00001
  37        2S          0.00682  -0.00001   0.00021   0.00006   0.00024
  38        3S         -0.00522   0.00006   0.00066  -0.00013   0.00058
  39        4PX         0.00028  -0.00001  -0.00002   0.00000  -0.00001
  40        4PY        -0.00090   0.00003  -0.00003   0.00003   0.00001
  41        4PZ        -0.00031   0.00001   0.00005   0.00002  -0.00005
  42        5PX        -0.00042   0.00006   0.00038   0.00006  -0.00019
  43        5PY         0.00132  -0.00012   0.00039  -0.00018  -0.00027
  44        5PZ         0.00043  -0.00002  -0.00060  -0.00008   0.00062
  45 6   Mg 1S          0.00003   0.00004  -0.00002   0.00003  -0.00009
  46        2S          0.00026   0.00063   0.00075   0.00202   0.00028
  47        3PX         0.00002   0.00009   0.00000   0.00013  -0.00011
  48        3PY        -0.00005  -0.00001  -0.00003  -0.00004   0.00002
  49        3PZ         0.00003   0.00002  -0.00004   0.00002  -0.00010
  50        4PX         0.00005   0.00023   0.00030   0.00077   0.00003
  51        4PY         0.00017   0.00005   0.00040   0.00004   0.00007
  52        4PZ         0.00002  -0.00002  -0.00004  -0.00014   0.00007
  53 7   Br 1S          0.00000   0.00000   0.00000   0.00000   0.00000
  54        2S          0.00000  -0.00002  -0.00004  -0.00002   0.00004
  55        3PX        -0.00002  -0.00004  -0.00003  -0.00003  -0.00002
  56        3PY         0.00000   0.00000   0.00000  -0.00001  -0.00002
  57        3PZ         0.00000   0.00001   0.00000   0.00000  -0.00001
  58        4PX         0.00006   0.00007   0.00011   0.00007   0.00008
  59        4PY         0.00000   0.00001   0.00001   0.00001   0.00003
  60        4PZ         0.00000  -0.00002   0.00000   0.00001   0.00002
  61 8   Br 1S          0.00000   0.00000   0.00000   0.00000   0.00000
  62        2S          0.00004   0.00001   0.00006  -0.00001   0.00001
  63        3PX         0.00000   0.00000   0.00002  -0.00001  -0.00003
  64        3PY         0.00001   0.00000  -0.00001  -0.00001   0.00004
  65        3PZ         0.00000   0.00000   0.00001  -0.00001   0.00000
  66        4PX         0.00001   0.00001  -0.00006   0.00002   0.00006
  67        4PY        -0.00001   0.00000   0.00002   0.00001  -0.00008
  68        4PZ         0.00000   0.00001  -0.00001   0.00002   0.00000
  69 9   C  1S         -0.00002   0.00000   0.99776  -0.00062   0.00073
  70        2S         -0.00013  -0.00001   0.01596   0.00003  -0.00064
  71        3S          0.00199  -0.00001  -0.01746  -0.00013   0.00219
  72        4PX        -0.00016   0.00002  -0.00040   0.00001  -0.00006
  73        4PY        -0.00001   0.00003   0.00002   0.00003   0.00003
  74        4PZ         0.00030   0.00000   0.00057  -0.00001   0.00004
  75        5PX        -0.00060  -0.00016  -0.00103  -0.00029   0.00001
  76        5PY        -0.00031  -0.00023   0.00115  -0.00013  -0.00252
  77        5PZ         0.00043  -0.00006  -0.00091  -0.00031   0.00147
  78 10  O  1S         -0.00011   0.99883   0.00000  -0.00001   0.00000
  79        2S         -0.00003   0.00681   0.00000   0.00014  -0.00001
  80        3S          0.00011  -0.00521   0.00003   0.00082  -0.00002
  81        4PX         0.00002   0.00045   0.00001  -0.00005   0.00003
  82        4PY        -0.00002   0.00088  -0.00004   0.00005   0.00001
  83        4PZ        -0.00001   0.00004  -0.00002  -0.00003   0.00001
  84        5PX        -0.00006  -0.00073  -0.00006   0.00053  -0.00019
  85        5PY         0.00005  -0.00149   0.00020  -0.00064  -0.00009
  86        5PZ         0.00000  -0.00008   0.00006   0.00031  -0.00007
  87 11  C  1S          0.00000   0.00000   0.00144  -0.00002  -0.00003
  88        2S         -0.00010  -0.00002  -0.00060  -0.00009  -0.00004
  89        3S         -0.00010   0.00013   0.00526   0.00079  -0.00055
  90        4PX         0.00012  -0.00001  -0.00022   0.00000   0.00020
  91        4PY         0.00000   0.00001  -0.00002   0.00005   0.00004
  92        4PZ        -0.00001   0.00000  -0.00001   0.00000  -0.00002
  93        5PX         0.00002  -0.00005  -0.00252   0.00006   0.00036
  94        5PY         0.00017   0.00004  -0.00039  -0.00005   0.00095
  95        5PZ        -0.00003  -0.00003  -0.00028   0.00014  -0.00003
  96 12  C  1S         -0.00002   0.00000  -0.00083   0.00006   0.99776
  97        2S         -0.00013   0.00002  -0.00068   0.00002   0.01593
  98        3S          0.00195  -0.00015   0.00246   0.00004  -0.01742
  99        4PX         0.00008   0.00000   0.00001   0.00001   0.00029
 100        4PY         0.00023  -0.00002   0.00009   0.00003   0.00057
 101        4PZ        -0.00025   0.00001  -0.00001   0.00003  -0.00043
 102        5PX         0.00008  -0.00015   0.00133  -0.00033  -0.00055
 103        5PY         0.00040   0.00008  -0.00099  -0.00029   0.00101
 104        5PZ        -0.00037   0.00011  -0.00222  -0.00004   0.00144
 105 13  C  1S          0.00001   0.00000  -0.00001   0.00001   0.00115
 106        2S         -0.00004   0.00001  -0.00001   0.00009  -0.00055
 107        3S         -0.00042  -0.00007  -0.00072  -0.00058   0.00503
 108        4PX        -0.00008   0.00002  -0.00017   0.00001   0.00018
 109        4PY        -0.00010   0.00000  -0.00014  -0.00003   0.00013
 110        4PZ        -0.00003   0.00000  -0.00001   0.00001   0.00002
 111        5PX        -0.00013   0.00007  -0.00098  -0.00009   0.00207
 112        5PY        -0.00007   0.00002   0.00023   0.00000   0.00115
 113        5PZ         0.00005  -0.00005   0.00020  -0.00013   0.00065
 114 14  C  1S          0.00000  -0.00002   0.00063   0.99775  -0.00006
 115        2S          0.00003  -0.00019   0.00005   0.01575   0.00002
 116        3S         -0.00011   0.00243  -0.00030  -0.01658   0.00015
 117        4PX         0.00000  -0.00032   0.00002  -0.00059  -0.00001
 118        4PY        -0.00003   0.00000  -0.00002   0.00003  -0.00003
 119        4PZ        -0.00002  -0.00013   0.00000  -0.00034   0.00000
 120        5PX        -0.00016  -0.00083  -0.00021   0.00015  -0.00020
 121        5PY         0.00034   0.00033   0.00022   0.00033   0.00036
 122        5PZ         0.00003  -0.00020  -0.00033  -0.00028  -0.00012
 123 15  C  1S          0.00000  -0.00003  -0.00002  -0.00034   0.00000
 124        2S          0.00001  -0.00017   0.00000  -0.00057   0.00002
 125        3S         -0.00021   0.00219  -0.00031   0.00211  -0.00025
 126        4PX         0.00001   0.00023   0.00003   0.00009   0.00003
 127        4PY         0.00002  -0.00025   0.00003  -0.00005   0.00003
 128        4PZ        -0.00002   0.00015  -0.00003   0.00005  -0.00003
 129        5PX        -0.00022   0.00030  -0.00037   0.00153  -0.00027
 130        5PY        -0.00015  -0.00043  -0.00038   0.00028  -0.00019
 131        5PZ         0.00003   0.00021  -0.00008   0.00111   0.00026
 132 16  C  1S          0.00000   0.00000  -0.00001  -0.00004  -0.00001
 133        2S         -0.00004  -0.00006  -0.00005  -0.00017  -0.00006
 134        3S          0.00024  -0.00033   0.00016  -0.00027   0.00049
 135        4PX         0.00000   0.00005   0.00002   0.00003   0.00000
 136        4PY         0.00000   0.00006   0.00000   0.00006  -0.00002
 137        4PZ         0.00001  -0.00011   0.00004  -0.00016   0.00001
 138        5PX         0.00001  -0.00002  -0.00011  -0.00055  -0.00010
 139        5PY         0.00002   0.00003   0.00011  -0.00061   0.00013
 140        5PZ         0.00011  -0.00017   0.00024  -0.00035   0.00011
 141 17  H  1S          0.00000   0.00000  -0.00002  -0.00021   0.00001
 142        2S         -0.00013   0.00003  -0.00014   0.00013  -0.00005
 143 18  H  1S          0.00005   0.00003   0.00006  -0.00016  -0.00002
 144        2S         -0.00041   0.00006  -0.00044  -0.00012   0.00001
 145 19  H  1S         -0.00002   0.00003  -0.00001  -0.00018  -0.00002
 146        2S          0.00006   0.00011  -0.00004   0.00003   0.00023
 147 20  H  1S         -0.00002   0.00001  -0.00002   0.00001   0.00003
 148        2S          0.00033  -0.00001   0.00007  -0.00008   0.00015
 149 21  H  1S          0.00004   0.00001   0.00002   0.00001   0.00001
 150        2S         -0.00034   0.00005  -0.00034  -0.00019  -0.00051
 151 22  H  1S          0.00000   0.00000   0.00004   0.00008   0.00005
 152        2S          0.00006   0.00012  -0.00040  -0.00041   0.00007
 153 23  H  1S          0.00003   0.00001   0.00000   0.00003   0.00004
 154        2S         -0.00035  -0.00006  -0.00033  -0.00031  -0.00049
 155 24  H  1S          0.00005  -0.00001  -0.00001  -0.00006   0.00005
 156        2S          0.00001  -0.00001   0.00020   0.00043  -0.00002
 157 25  H  1S         -0.00001   0.00003   0.00007  -0.00002   0.00003
 158        2S          0.00020  -0.00007  -0.00014   0.00007  -0.00018
 159 26  H  1S         -0.00009   0.00002  -0.00017   0.00003  -0.00014
 160        2S         -0.00068  -0.00020   0.00340  -0.00027  -0.00123
 161 27  H  1S         -0.00009   0.00000  -0.00017   0.00006  -0.00012
 162        2S         -0.00032   0.00005   0.00243  -0.00030   0.00118
 163 28  H  1S         -0.00003   0.00000  -0.00026  -0.00002  -0.00002
 164        2S          0.00017  -0.00002   0.00022  -0.00010   0.00017
 165 29  H  1S          0.00002  -0.00001  -0.00025   0.00010   0.00008
 166        2S         -0.00016   0.00003   0.00033  -0.00059  -0.00066
 167 30  H  1S          0.00001   0.00000  -0.00023   0.00001   0.00009
 168        2S          0.00001   0.00002  -0.00012  -0.00027  -0.00009
 169 31  H  1S         -0.00008  -0.00001  -0.00008   0.00002  -0.00017
 170        2S         -0.00041  -0.00001   0.00087  -0.00012   0.00233
 171 32  H  1S         -0.00011   0.00000  -0.00014   0.00000  -0.00021
 172        2S         -0.00036   0.00013  -0.00120   0.00007   0.00380
 173 33  H  1S         -0.00001  -0.00001  -0.00001   0.00001  -0.00023
 174        2S          0.00011   0.00006   0.00015   0.00010   0.00003
 175 34  H  1S          0.00002  -0.00001   0.00011   0.00001  -0.00022
 176        2S         -0.00003   0.00002  -0.00024   0.00003  -0.00017
 177 35  H  1S          0.00003  -0.00002   0.00010  -0.00002  -0.00023
 178        2S         -0.00011   0.00015  -0.00077   0.00017   0.00029
 179 36  H  1S          0.00002  -0.00011   0.00000  -0.00016   0.00001
 180        2S         -0.00019  -0.00069   0.00004   0.00278  -0.00026
 181 37  H  1S          0.00000  -0.00013   0.00003  -0.00019   0.00001
 182        2S          0.00008  -0.00020  -0.00009   0.00300  -0.00011
 183 38  H  1S          0.00000  -0.00013  -0.00002  -0.00007   0.00000
 184        2S          0.00012  -0.00035   0.00037  -0.00119   0.00003
 185 39  H  1S         -0.00001  -0.00008  -0.00003  -0.00009   0.00000
 186        2S          0.00003  -0.00040   0.00012   0.00066   0.00002
 187 40  H  1S         -0.00001  -0.00001  -0.00001  -0.00004  -0.00001
 188        2S          0.00001   0.00012  -0.00001   0.00031  -0.00012
 189 41  H  1S         -0.00001   0.00002  -0.00007   0.00006   0.00000
 190        2S          0.00006  -0.00010   0.00041  -0.00051  -0.00001
 191 42  H  1S          0.00000   0.00004  -0.00002  -0.00006   0.00000
 192        2S         -0.00005  -0.00012   0.00010   0.00045  -0.00005
                           6         7         8         9        10
                           O         O         O         O         O
     Eigenvalues --   -10.27691 -10.22928 -10.22637 -10.21160 -10.20334
   1 1   Mg 1S          0.00010  -0.00009   0.00015  -0.00009  -0.00005
   2        2S          0.00059   0.00122  -0.00023   0.00158   0.00010
   3        3PX        -0.00015   0.00011   0.00022   0.00004  -0.00029
   4        3PY         0.00020  -0.00006  -0.00004  -0.00011   0.00031
   5        3PZ        -0.00012   0.00020   0.00030   0.00016  -0.00010
   6        4PX         0.00044  -0.00062  -0.00037  -0.00095   0.00241
   7        4PY         0.00091  -0.00135   0.00089   0.00179  -0.00184
   8        4PZ         0.00031  -0.00054  -0.00054   0.00084   0.00062
   9 2   C  1S          0.00001   0.00001   0.00000   0.00003   0.00000
  10        2S          0.00008   0.00004   0.00000   0.00012   0.00000
  11        3S         -0.00028  -0.00010   0.00009  -0.00025   0.00033
  12        4PX         0.00002   0.00001  -0.00002   0.00001   0.00008
  13        4PY         0.00002  -0.00005   0.00003   0.00002  -0.00006
  14        4PZ         0.00000  -0.00002   0.00000   0.00005   0.00001
  15        5PX        -0.00020  -0.00036   0.00023  -0.00027  -0.00065
  16        5PY        -0.00041   0.00049  -0.00026  -0.00035   0.00062
  17        5PZ        -0.00014   0.00016   0.00013   0.00006   0.00010
  18 3   C  1S          0.00002   0.00000  -0.00001   0.00000  -0.00002
  19        2S          0.00013  -0.00001  -0.00005  -0.00002  -0.00007
  20        3S         -0.00055  -0.00013   0.00021   0.00034   0.00040
  21        4PX        -0.00001  -0.00006   0.00000   0.00001   0.00006
  22        4PY         0.00002   0.00003   0.00003   0.00009  -0.00005
  23        4PZ         0.00000  -0.00001  -0.00002   0.00002   0.00002
  24        5PX        -0.00004   0.00061   0.00025   0.00038  -0.00069
  25        5PY        -0.00042   0.00001  -0.00021  -0.00053   0.00037
  26        5PZ         0.00005  -0.00002   0.00007  -0.00024  -0.00010
  27 4   C  1S         -0.00001   0.00008   0.99768   0.00007  -0.00005
  28        2S         -0.00005   0.00000   0.01659  -0.00008   0.00012
  29        3S          0.00047   0.00012  -0.02034   0.00032  -0.00026
  30        4PX        -0.00002   0.00004   0.00006  -0.00002   0.00001
  31        4PY        -0.00005  -0.00005   0.00011  -0.00002   0.00000
  32        4PZ         0.00003  -0.00005  -0.00005   0.00004   0.00001
  33        5PX         0.00083  -0.00030  -0.00015   0.00034   0.00006
  34        5PY         0.00018  -0.00001  -0.00108   0.00034   0.00022
  35        5PZ        -0.00038  -0.00002   0.00141   0.00004  -0.00005
  36 5   O  1S          0.00000   0.00000   0.00000   0.00000   0.00000
  37        2S         -0.00003  -0.00016  -0.00002  -0.00005  -0.00010
  38        3S          0.00008   0.00007   0.00021   0.00019  -0.00016
  39        4PX        -0.00001  -0.00011   0.00002  -0.00002   0.00006
  40        4PY         0.00001   0.00004   0.00004   0.00000   0.00011
  41        4PZ        -0.00001   0.00005   0.00004   0.00001  -0.00001
  42        5PX         0.00002   0.00024  -0.00001   0.00009  -0.00003
  43        5PY         0.00002  -0.00020  -0.00020   0.00001  -0.00021
  44        5PZ         0.00005  -0.00018  -0.00006  -0.00008   0.00000
  45 6   Mg 1S          0.00008   0.00003   0.00002   0.00000   0.00001
  46        2S         -0.00037  -0.00072   0.00004  -0.00094   0.00101
  47        3PX        -0.00008  -0.00006   0.00004  -0.00005  -0.00004
  48        3PY         0.00007   0.00004  -0.00001   0.00003  -0.00016
  49        3PZ        -0.00006  -0.00012   0.00007  -0.00010  -0.00003
  50        4PX        -0.00007  -0.00029   0.00005  -0.00034   0.00048
  51        4PY        -0.00044   0.00028  -0.00013  -0.00028   0.00078
  52        4PZ        -0.00004   0.00005   0.00002  -0.00015  -0.00002
  53 7   Br 1S          0.00001   0.00000   0.00000   0.00000   0.00000
  54        2S          0.00006  -0.00004  -0.00003   0.00000  -0.00006
  55        3PX         0.00016  -0.00002   0.00001   0.00002  -0.00005
  56        3PY         0.00004  -0.00001   0.00000   0.00001   0.00001
  57        3PZ        -0.00004  -0.00001   0.00000  -0.00002  -0.00001
  58        4PX        -0.00037   0.00006  -0.00005  -0.00009   0.00016
  59        4PY        -0.00010   0.00004   0.00001  -0.00001  -0.00005
  60        4PZ         0.00008   0.00001   0.00001   0.00003   0.00001
  61 8   Br 1S          0.00000   0.00000   0.00000   0.00000   0.00001
  62        2S         -0.00005   0.00005  -0.00003  -0.00001   0.00014
  63        3PX        -0.00001   0.00001   0.00000  -0.00002   0.00019
  64        3PY        -0.00001   0.00000  -0.00001   0.00001  -0.00006
  65        3PZ         0.00000   0.00000  -0.00001   0.00000   0.00001
  66        4PX         0.00004  -0.00004   0.00000   0.00005  -0.00037
  67        4PY         0.00001   0.00000   0.00001  -0.00001   0.00013
  68        4PZ         0.00000   0.00000   0.00001   0.00000  -0.00003
  69 9   C  1S          0.00002  -0.00149   0.00000   0.00001   0.00003
  70        2S         -0.00005  -0.00054  -0.00006  -0.00003  -0.00004
  71        3S          0.00030   0.00450   0.00026  -0.00009  -0.00006
  72        4PX         0.00001  -0.00001   0.00002   0.00003   0.00009
  73        4PY         0.00004   0.00001   0.00004   0.00000   0.00006
  74        4PZ         0.00001  -0.00009   0.00001   0.00000  -0.00009
  75        5PX        -0.00020   0.00376   0.00002  -0.00025  -0.00050
  76        5PY        -0.00043   0.00005  -0.00014   0.00000  -0.00052
  77        5PZ        -0.00006   0.00069   0.00006  -0.00008  -0.00013
  78 10  O  1S         -0.00001   0.00000   0.00000   0.00000   0.00000
  79        2S          0.00022  -0.00002  -0.00009  -0.00012   0.00002
  80        3S          0.00056   0.00006   0.00002  -0.00014  -0.00004
  81        4PX         0.00005  -0.00001  -0.00007  -0.00001   0.00001
  82        4PY        -0.00003   0.00000   0.00006  -0.00010  -0.00002
  83        4PZ        -0.00001   0.00000  -0.00009   0.00006   0.00001
  84        5PX        -0.00076   0.00002   0.00031   0.00003  -0.00001
  85        5PY         0.00040  -0.00008  -0.00034   0.00029   0.00010
  86        5PZ        -0.00028  -0.00005   0.00034  -0.00008  -0.00006
  87 11  C  1S          0.00000   0.99767  -0.00009   0.00003   0.00003
  88        2S          0.00000   0.01634   0.00000  -0.00006  -0.00011
  89        3S         -0.00002  -0.01913   0.00003   0.00021   0.00070
  90        4PX         0.00001  -0.00001   0.00000  -0.00001  -0.00001
  91        4PY         0.00001  -0.00004   0.00002   0.00000   0.00001
  92        4PZ         0.00001  -0.00004   0.00004   0.00000   0.00000
  93        5PX        -0.00005   0.00126   0.00008  -0.00020  -0.00005
  94        5PY         0.00016  -0.00008   0.00007   0.00004   0.00021
  95        5PZ        -0.00009   0.00028  -0.00018   0.00004   0.00016
  96 12  C  1S          0.00001   0.00004  -0.00002   0.00000  -0.00119
  97        2S          0.00001  -0.00004   0.00005  -0.00005  -0.00048
  98        3S         -0.00007  -0.00014  -0.00012   0.00021   0.00440
  99        4PX         0.00001  -0.00005   0.00006  -0.00001   0.00002
 100        4PY        -0.00002  -0.00006   0.00006   0.00001  -0.00002
 101        4PZ         0.00000   0.00008   0.00002   0.00000   0.00007
 102        5PX        -0.00028   0.00029  -0.00062  -0.00003  -0.00272
 103        5PY         0.00014   0.00018  -0.00030   0.00004  -0.00219
 104        5PZ         0.00018   0.00004  -0.00012   0.00005  -0.00131
 105 13  C  1S          0.00000  -0.00004   0.00007  -0.00005   0.99767
 106        2S         -0.00001  -0.00011   0.00012  -0.00003   0.01646
 107        3S         -0.00005   0.00066  -0.00059  -0.00010  -0.01934
 108        4PX         0.00001   0.00000   0.00002   0.00001   0.00023
 109        4PY        -0.00001   0.00001   0.00000  -0.00001  -0.00003
 110        4PZ         0.00001  -0.00001   0.00000   0.00002   0.00004
 111        5PX         0.00010  -0.00005  -0.00014   0.00003  -0.00092
 112        5PY         0.00003   0.00015  -0.00005   0.00022  -0.00105
 113        5PZ        -0.00013  -0.00005  -0.00014  -0.00021  -0.00044
 114 14  C  1S          0.00025   0.00001  -0.00148   0.00004  -0.00001
 115        2S         -0.00058  -0.00009  -0.00044  -0.00016   0.00006
 116        3S          0.00234   0.00051   0.00471   0.00019   0.00001
 117        4PX        -0.00007   0.00004  -0.00002   0.00010   0.00002
 118        4PY         0.00001  -0.00008   0.00007  -0.00002  -0.00006
 119        4PZ        -0.00001  -0.00002  -0.00003   0.00010   0.00000
 120        5PX        -0.00126  -0.00011   0.00116  -0.00037  -0.00010
 121        5PY         0.00126   0.00057  -0.00291   0.00012   0.00061
 122        5PZ        -0.00115   0.00006   0.00344  -0.00033   0.00007
 123 15  C  1S          0.99776   0.00000  -0.00001  -0.00157   0.00000
 124        2S          0.01593   0.00002  -0.00017  -0.00046   0.00000
 125        3S         -0.01743  -0.00012   0.00103   0.00429  -0.00023
 126        4PX         0.00051   0.00002   0.00001  -0.00007   0.00002
 127        4PY        -0.00051   0.00000  -0.00012   0.00005   0.00000
 128        4PZ         0.00034  -0.00001   0.00005   0.00002  -0.00002
 129        5PX        -0.00150  -0.00029   0.00110   0.00141  -0.00023
 130        5PY        -0.00058  -0.00022   0.00042   0.00105  -0.00019
 131        5PZ        -0.00005   0.00019   0.00012  -0.00337   0.00007
 132 16  C  1S          0.00153  -0.00004  -0.00007   0.99767   0.00005
 133        2S         -0.00052  -0.00006  -0.00006   0.01634  -0.00004
 134        3S          0.00502   0.00035  -0.00087  -0.01884   0.00027
 135        4PX        -0.00002   0.00000  -0.00004   0.00002   0.00001
 136        4PY        -0.00009   0.00000   0.00004   0.00003  -0.00001
 137        4PZ         0.00019   0.00002  -0.00010   0.00006   0.00003
 138        5PX        -0.00072  -0.00001   0.00025   0.00066  -0.00017
 139        5PY        -0.00028  -0.00002  -0.00092   0.00061   0.00009
 140        5PZ         0.00221   0.00016   0.00010  -0.00113   0.00010
 141 17  H  1S         -0.00001  -0.00003  -0.00022   0.00000   0.00003
 142        2S         -0.00023   0.00027   0.00356  -0.00026  -0.00005
 143 18  H  1S          0.00000   0.00002  -0.00037  -0.00004  -0.00007
 144        2S          0.00005  -0.00007   0.00397   0.00026   0.00017
 145 19  H  1S          0.00002   0.00000  -0.00021   0.00004   0.00006
 146        2S          0.00034  -0.00002   0.00327  -0.00024  -0.00016
 147 20  H  1S          0.00003   0.00000  -0.00001   0.00002   0.00001
 148        2S         -0.00021   0.00015  -0.00005  -0.00024   0.00006
 149 21  H  1S         -0.00003   0.00003  -0.00002   0.00005   0.00004
 150        2S          0.00028  -0.00037   0.00019  -0.00017  -0.00064
 151 22  H  1S          0.00000  -0.00001   0.00005   0.00008   0.00004
 152        2S          0.00021   0.00013  -0.00023  -0.00025  -0.00014
 153 23  H  1S         -0.00001  -0.00003  -0.00001  -0.00002   0.00002
 154        2S          0.00035   0.00036   0.00009   0.00023  -0.00051
 155 24  H  1S          0.00000  -0.00004   0.00000  -0.00003   0.00001
 156        2S          0.00000  -0.00002  -0.00019  -0.00020   0.00007
 157 25  H  1S         -0.00003   0.00004   0.00003   0.00012  -0.00005
 158        2S          0.00032  -0.00042  -0.00030  -0.00057   0.00033
 159 26  H  1S          0.00001  -0.00027   0.00001  -0.00002   0.00008
 160        2S         -0.00033   0.00081  -0.00009   0.00009  -0.00080
 161 27  H  1S          0.00003  -0.00021   0.00001  -0.00002   0.00004
 162        2S         -0.00003   0.00042   0.00001   0.00015  -0.00021
 163 28  H  1S          0.00001  -0.00026   0.00003  -0.00002  -0.00004
 164        2S         -0.00003   0.00337  -0.00017   0.00012   0.00005
 165 29  H  1S         -0.00002  -0.00031   0.00002  -0.00003   0.00004
 166        2S          0.00003   0.00350  -0.00008   0.00013  -0.00049
 167 30  H  1S         -0.00001  -0.00026  -0.00001  -0.00003   0.00002
 168        2S          0.00015   0.00332   0.00014   0.00011  -0.00017
 169 31  H  1S          0.00000   0.00001  -0.00001  -0.00002  -0.00021
 170        2S         -0.00015  -0.00013   0.00028   0.00003   0.00029
 171 32  H  1S         -0.00001   0.00004  -0.00004  -0.00003  -0.00026
 172        2S          0.00022  -0.00032   0.00051   0.00011   0.00077
 173 33  H  1S         -0.00001  -0.00003   0.00001  -0.00003  -0.00022
 174        2S          0.00012   0.00003   0.00008   0.00031   0.00315
 175 34  H  1S         -0.00001   0.00001   0.00001  -0.00002  -0.00023
 176        2S         -0.00001  -0.00017   0.00004   0.00006   0.00326
 177 35  H  1S         -0.00002   0.00004   0.00001  -0.00004  -0.00029
 178        2S          0.00012  -0.00048   0.00006   0.00018   0.00360
 179 36  H  1S         -0.00013   0.00002  -0.00024   0.00004   0.00005
 180        2S         -0.00072  -0.00044   0.00082  -0.00033  -0.00050
 181 37  H  1S         -0.00005   0.00004  -0.00026  -0.00002   0.00004
 182        2S         -0.00071  -0.00004   0.00082  -0.00012  -0.00008
 183 38  H  1S         -0.00019  -0.00002   0.00000  -0.00025  -0.00002
 184        2S          0.00363   0.00014  -0.00038   0.00082   0.00018
 185 39  H  1S         -0.00020  -0.00001  -0.00008  -0.00021  -0.00003
 186        2S          0.00268  -0.00004   0.00047   0.00031   0.00020
 187 40  H  1S         -0.00020  -0.00002  -0.00005  -0.00023   0.00000
 188        2S         -0.00009   0.00005   0.00084   0.00316  -0.00009
 189 41  H  1S         -0.00025  -0.00003   0.00003  -0.00027  -0.00003
 190        2S          0.00041   0.00009  -0.00035   0.00334   0.00017
 191 42  H  1S         -0.00017  -0.00001  -0.00014  -0.00024  -0.00001
 192        2S         -0.00028   0.00000   0.00064   0.00310   0.00006
                          11        12        13        14        15
                           O         O         O         O         O
     Eigenvalues --   -10.13574 -10.13441  -1.08331  -1.07844  -0.82190
   1 1   Mg 1S          0.00076   0.00069   0.01983   0.01475  -0.00517
   2        2S          0.00450   0.00424  -0.00659   0.01589  -0.00901
   3        3PX        -0.00031  -0.00055   0.01263   0.00531  -0.00082
   4        3PY         0.00006  -0.00017  -0.00757   0.01144   0.00026
   5        3PZ        -0.00124   0.00139  -0.00142  -0.00025   0.00118
   6        4PX        -0.00317  -0.00231  -0.01402  -0.01023   0.02354
   7        4PY         0.00051   0.00044   0.01807  -0.00762   0.00674
   8        4PZ        -0.00113   0.00067  -0.00139  -0.00270   0.00305
   9 2   C  1S          0.00249   0.99764  -0.00048  -0.00019   0.00133
  10        2S          0.00040   0.01586   0.00020   0.00088  -0.00252
  11        3S         -0.00126  -0.01537  -0.00046  -0.00235  -0.00033
  12        4PX         0.00000  -0.00001  -0.00019   0.00027  -0.00024
  13        4PY         0.00004  -0.00001   0.00049  -0.00035   0.00058
  14        4PZ         0.00003   0.00075  -0.00003  -0.00009   0.00031
  15        5PX         0.00026  -0.00057   0.00694  -0.00291  -0.00474
  16        5PY        -0.00060  -0.00017  -0.00792   0.00382   0.00289
  17        5PZ         0.00014  -0.00090  -0.00167   0.00035  -0.00100
  18 3   C  1S          0.99764  -0.00244  -0.00052  -0.00027   0.00031
  19        2S          0.01577   0.00032   0.00139   0.00131  -0.00131
  20        3S         -0.01498  -0.00109  -0.00554  -0.00509   0.00444
  21        4PX         0.00006   0.00001  -0.00002   0.00033   0.00050
  22        4PY         0.00003   0.00000   0.00020  -0.00018  -0.00081
  23        4PZ        -0.00079  -0.00004   0.00005  -0.00002  -0.00020
  24        5PX        -0.00067   0.00039   0.00615  -0.00536   0.00013
  25        5PY         0.00013  -0.00026  -0.00356   0.00374  -0.00358
  26        5PZ         0.00076  -0.00017   0.00175   0.00110   0.00008
  27 4   C  1S          0.00000   0.00000  -0.00245  -0.01388  -0.07811
  28        2S         -0.00002  -0.00004   0.00618   0.02742   0.15433
  29        3S         -0.00027   0.00089  -0.01144   0.01244   0.12701
  30        4PX         0.00003  -0.00014  -0.00126  -0.00813  -0.00545
  31        4PY         0.00006  -0.00004   0.00213   0.00977   0.02293
  32        4PZ         0.00000   0.00001  -0.00215  -0.01563  -0.03014
  33        5PX        -0.00042   0.00117  -0.00512  -0.00147   0.00621
  34        5PY        -0.00017   0.00049   0.00222  -0.00831  -0.00112
  35        5PZ         0.00007   0.00027   0.00502   0.00322   0.00245
  36 5   O  1S          0.00000   0.00000  -0.21435   0.03368   0.01222
  37        2S          0.00010   0.00012   0.44803  -0.07003  -0.02574
  38        3S         -0.00032  -0.00032   0.43359  -0.07007  -0.03304
  39        4PX         0.00002  -0.00005   0.02850  -0.00462   0.06182
  40        4PY         0.00000  -0.00001  -0.08019   0.01385   0.05201
  41        4PZ        -0.00002   0.00005  -0.02956   0.00465  -0.10930
  42        5PX        -0.00001   0.00039  -0.00212   0.00068   0.01562
  43        5PY        -0.00012  -0.00001  -0.01057  -0.00032   0.01226
  44        5PZ         0.00029  -0.00047  -0.00424   0.00132  -0.02395
  45 6   Mg 1S          0.00063   0.00068   0.00059   0.00006  -0.00066
  46        2S         -0.00312  -0.00258  -0.00265  -0.01562   0.01676
  47        3PX         0.00034   0.00031   0.00108  -0.00110   0.00072
  48        3PY        -0.00003  -0.00010   0.00138  -0.00102  -0.00018
  49        3PZ        -0.00054   0.00055  -0.00001   0.00012  -0.00076
  50        4PX        -0.00110  -0.00090   0.00015  -0.00642   0.00690
  51        4PY        -0.00025  -0.00019  -0.00434   0.00103  -0.00149
  52        4PZ         0.00035  -0.00040   0.00050   0.00082  -0.00017
  53 7   Br 1S          0.00001   0.00001  -0.00004   0.00015  -0.00069
  54        2S         -0.00004  -0.00002  -0.00028   0.00099  -0.00166
  55        3PX         0.00007   0.00005   0.00051   0.00028  -0.00013
  56        3PY         0.00000  -0.00001   0.00011   0.00013   0.00021
  57        3PZ        -0.00002   0.00006   0.00004  -0.00008   0.00002
  58        4PX        -0.00028  -0.00021  -0.00192   0.00010  -0.00113
  59        4PY         0.00006   0.00008   0.00005  -0.00058  -0.00054
  60        4PZ         0.00008  -0.00014  -0.00013   0.00009   0.00014
  61 8   Br 1S          0.00000   0.00000  -0.00003   0.00001  -0.00036
  62        2S         -0.00009  -0.00009  -0.00058   0.00034  -0.00118
  63        3PX         0.00002   0.00002   0.00005   0.00010  -0.00007
  64        3PY        -0.00003  -0.00003  -0.00022   0.00013  -0.00009
  65        3PZ         0.00000   0.00002   0.00001   0.00005   0.00000
  66        4PX        -0.00014  -0.00014  -0.00004  -0.00026  -0.00041
  67        4PY        -0.00002  -0.00002   0.00065  -0.00041   0.00028
  68        4PZ         0.00000  -0.00006  -0.00008  -0.00019  -0.00005
  69 9   C  1S          0.00000   0.00000  -0.06654   0.01052  -0.10115
  70        2S         -0.00007  -0.00001   0.13086  -0.02062   0.20858
  71        3S          0.00062  -0.00053   0.07600  -0.01342   0.16201
  72        4PX        -0.00001   0.00002  -0.04975   0.00764   0.03742
  73        4PY         0.00004  -0.00006   0.01071  -0.00194   0.01224
  74        4PZ         0.00002  -0.00007   0.08174  -0.01310   0.00180
  75        5PX        -0.00005   0.00025   0.01491   0.00107  -0.00753
  76        5PY         0.00000   0.00045  -0.00343   0.00783  -0.00597
  77        5PZ         0.00003   0.00008  -0.01677   0.00389  -0.00674
  78 10  O  1S          0.00000   0.00000  -0.03323  -0.21423   0.01083
  79        2S          0.00006   0.00011   0.07007   0.44865  -0.02277
  80        3S          0.00002  -0.00029   0.06462   0.43005  -0.02904
  81        4PX        -0.00005  -0.00005   0.00678   0.04354   0.08522
  82        4PY        -0.00004  -0.00001   0.01086   0.07838  -0.04526
  83        4PZ        -0.00008   0.00003   0.00094   0.00658   0.05165
  84        5PX         0.00037   0.00028  -0.00024   0.00119   0.01870
  85        5PY         0.00032   0.00010   0.00488   0.01152  -0.00735
  86        5PZ         0.00046  -0.00011   0.00024  -0.00236   0.01170
  87 11  C  1S          0.00000   0.00000  -0.01366   0.00219  -0.09112
  88        2S          0.00001   0.00004   0.02630  -0.00372   0.18110
  89        3S         -0.00029  -0.00016   0.00830  -0.00506   0.14297
  90        4PX         0.00002  -0.00002  -0.01914   0.00320  -0.04316
  91        4PY        -0.00001  -0.00002   0.00102  -0.00047   0.00381
  92        4PZ         0.00000  -0.00001   0.00201  -0.00038  -0.01025
  93        5PX        -0.00001  -0.00001   0.00426  -0.00079   0.00823
  94        5PY         0.00004  -0.00013   0.00279  -0.00217   0.00028
  95        5PZ        -0.00007  -0.00009   0.01229  -0.00177  -0.00138
  96 12  C  1S          0.00000   0.00000  -0.06225   0.00998   0.08270
  97        2S          0.00006  -0.00002   0.12200  -0.01977  -0.17001
  98        3S         -0.00032   0.00028   0.06959  -0.01254  -0.13564
  99        4PX        -0.00007   0.00000   0.01458  -0.00235   0.01829
 100        4PY        -0.00001   0.00003   0.06985  -0.01125  -0.01060
 101        4PZ        -0.00001  -0.00003  -0.05600   0.00922   0.00954
 102        5PX         0.00083  -0.00014   0.00947  -0.00128  -0.00757
 103        5PY         0.00008   0.00029  -0.01981   0.00243   0.00268
 104        5PZ         0.00001  -0.00009   0.00841  -0.00277  -0.00479
 105 13  C  1S          0.00000   0.00000  -0.01215   0.00199   0.05562
 106        2S         -0.00011   0.00002   0.02260  -0.00358  -0.10937
 107        3S          0.00116   0.00032   0.01255  -0.00214  -0.08644
 108        4PX        -0.00003  -0.00005   0.01148  -0.00194  -0.02424
 109        4PY         0.00010   0.00003   0.01383  -0.00228  -0.02294
 110        4PZ        -0.00004   0.00001   0.00240  -0.00042  -0.01461
 111        5PX        -0.00007   0.00008  -0.00768   0.00100   0.00500
 112        5PY        -0.00024  -0.00039   0.00687  -0.00140   0.00354
 113        5PZ         0.00058  -0.00021  -0.00700   0.00162   0.00379
 114 14  C  1S          0.00001   0.00000  -0.01067  -0.06795  -0.08136
 115        2S         -0.00004  -0.00001   0.02041   0.13456   0.16847
 116        3S         -0.00031  -0.00024   0.01511   0.07710   0.12430
 117        4PX         0.00007  -0.00002  -0.01408  -0.08982   0.00892
 118        4PY         0.00002  -0.00002  -0.00154  -0.00947  -0.02952
 119        4PZ        -0.00001   0.00006  -0.00524  -0.03804   0.02955
 120        5PX         0.00035  -0.00039   0.00819   0.01505   0.00186
 121        5PY        -0.00037  -0.00004  -0.01051   0.00454   0.00960
 122        5PZ         0.00017  -0.00026  -0.00202   0.01070  -0.00673
 123 15  C  1S         -0.00001  -0.00001  -0.00926  -0.06108   0.06458
 124        2S          0.00009   0.00004   0.01839   0.12042  -0.13148
 125        3S         -0.00007   0.00039   0.00801   0.06073  -0.10843
 126        4PX        -0.00004  -0.00005   0.00644   0.04514  -0.00955
 127        4PY        -0.00007  -0.00004  -0.01054  -0.06984   0.01356
 128        4PZ         0.00005   0.00006   0.00465   0.03107   0.01056
 129        5PX         0.00030  -0.00011   0.00349  -0.00025  -0.00118
 130        5PY         0.00037   0.00026   0.00634   0.02600  -0.00253
 131        5PZ        -0.00051  -0.00065  -0.00068   0.00109  -0.00552
 132 16  C  1S          0.00000  -0.00001  -0.00185  -0.01258   0.04597
 133        2S         -0.00001   0.00014   0.00400   0.02370  -0.09048
 134        3S          0.00027  -0.00059  -0.00020   0.01361  -0.06609
 135        4PX        -0.00002   0.00000  -0.00068  -0.00354   0.01242
 136        4PY        -0.00004   0.00001  -0.00148  -0.00961   0.00977
 137        4PZ        -0.00004  -0.00002   0.00215   0.01520  -0.02269
 138        5PX         0.00037   0.00022   0.00124   0.00470  -0.00369
 139        5PY        -0.00004   0.00015  -0.00142  -0.00996   0.00350
 140        5PZ        -0.00043  -0.00027  -0.00252  -0.00799   0.00288
 141 17  H  1S         -0.00004   0.00008   0.00090   0.00359   0.04251
 142        2S          0.00036  -0.00109   0.00286  -0.00456  -0.00266
 143 18  H  1S         -0.00007   0.00002   0.00108   0.00539   0.04195
 144        2S          0.00035   0.00013   0.01392  -0.00561   0.00126
 145 19  H  1S          0.00000   0.00014   0.00134   0.00523   0.04100
 146        2S         -0.00007  -0.00038  -0.00157  -0.00067   0.00134
 147 20  H  1S          0.00012  -0.00040   0.00008  -0.00003  -0.00126
 148        2S         -0.00040   0.00302  -0.00183   0.00193   0.00003
 149 21  H  1S          0.00001  -0.00044  -0.00026   0.00023  -0.00031
 150        2S          0.00055   0.00306   0.00636  -0.00218  -0.00356
 151 22  H  1S          0.00000  -0.00042   0.00014   0.00023  -0.00053
 152        2S          0.00027   0.00325  -0.00067   0.00124   0.00173
 153 23  H  1S         -0.00044   0.00001  -0.00002   0.00024  -0.00038
 154        2S          0.00273   0.00050   0.00537  -0.00208   0.00028
 155 24  H  1S         -0.00040   0.00011  -0.00019   0.00018   0.00049
 156        2S          0.00305  -0.00029   0.00282   0.00228  -0.00268
 157 25  H  1S         -0.00040   0.00003   0.00040   0.00011  -0.00063
 158        2S          0.00287   0.00001  -0.00045   0.00428  -0.00016
 159 26  H  1S          0.00001  -0.00004   0.02179  -0.00381   0.05323
 160        2S         -0.00017   0.00052  -0.00198   0.00589  -0.00652
 161 27  H  1S          0.00001  -0.00002   0.02165  -0.00338   0.06074
 162        2S         -0.00034   0.00010  -0.00165  -0.00167   0.00316
 163 28  H  1S          0.00000   0.00000   0.00324  -0.00050   0.04998
 164        2S          0.00005  -0.00001   0.00103   0.00052  -0.00029
 165 29  H  1S         -0.00004  -0.00001   0.00524  -0.00082   0.04967
 166        2S          0.00027   0.00018  -0.00409   0.00232   0.00359
 167 30  H  1S          0.00000  -0.00001   0.00499  -0.00079   0.04734
 168        2S          0.00014   0.00006  -0.00203   0.00055   0.00066
 169 31  H  1S          0.00001  -0.00008   0.01984  -0.00315  -0.04883
 170        2S          0.00017   0.00000   0.00319   0.00035  -0.00197
 171 32  H  1S          0.00006  -0.00003   0.02086  -0.00341  -0.04152
 172        2S         -0.00045   0.00018  -0.01037   0.00193   0.00633
 173 33  H  1S          0.00004   0.00001   0.00252  -0.00038  -0.02844
 174        2S         -0.00063  -0.00014   0.00119  -0.00075   0.00088
 175 34  H  1S         -0.00003   0.00004   0.00398  -0.00059  -0.02689
 176        2S          0.00008  -0.00036   0.00138  -0.00037   0.00400
 177 35  H  1S          0.00010   0.00012   0.00420  -0.00056  -0.02779
 178        2S         -0.00053  -0.00043  -0.00438  -0.00042   0.00477
 179 36  H  1S          0.00000   0.00000   0.00316   0.02320   0.04312
 180        2S          0.00032   0.00010   0.00580  -0.00494  -0.00308
 181 37  H  1S         -0.00003   0.00001   0.00323   0.02129   0.04559
 182        2S          0.00016   0.00007  -0.00443  -0.00112  -0.00167
 183 38  H  1S          0.00001   0.00001   0.00325   0.02030  -0.03201
 184        2S          0.00009   0.00000  -0.00236  -0.00868   0.00325
 185 39  H  1S         -0.00002   0.00011   0.00303   0.01907  -0.03543
 186        2S         -0.00009  -0.00071   0.00042   0.00317  -0.00071
 187 40  H  1S          0.00002   0.00004   0.00053   0.00279  -0.02333
 188        2S         -0.00014  -0.00013  -0.00049  -0.00056  -0.00450
 189 41  H  1S          0.00019   0.00006   0.00094   0.00473  -0.02375
 190        2S         -0.00102  -0.00015  -0.00241  -0.00718  -0.00025
 191 42  H  1S          0.00001   0.00004   0.00078   0.00482  -0.02209
 192        2S         -0.00032  -0.00011  -0.00044  -0.00140  -0.00239
                          16        17        18        19        20
                           O         O         O         O         O
     Eigenvalues --    -0.82144  -0.78194  -0.77867  -0.69450  -0.68621
   1 1   Mg 1S          0.00005  -0.01511  -0.01126   0.00090   0.02584
   2        2S          0.00960   0.00072  -0.01385  -0.01410  -0.00881
   3        3PX         0.00382  -0.00805  -0.00465  -0.00361  -0.00201
   4        3PY        -0.00378   0.00600  -0.00710  -0.00047   0.01091
   5        3PZ         0.00363   0.00094   0.00019   0.00652  -0.00275
   6        4PX        -0.01113   0.00040   0.01996   0.02393   0.00985
   7        4PY        -0.00228   0.00160  -0.00956  -0.00410  -0.00679
   8        4PZ         0.00869   0.00109  -0.00100   0.01705   0.01868
   9 2   C  1S         -0.00139  -0.00130   0.00017  -0.00834  -0.01916
  10        2S          0.00354   0.00254  -0.00073   0.01617   0.03833
  11        3S         -0.00266  -0.00092   0.00004   0.01638   0.03307
  12        4PX         0.00088  -0.00005  -0.00014   0.00166   0.00096
  13        4PY        -0.00075  -0.00082  -0.00005  -0.00067   0.00106
  14        4PZ         0.00053   0.00046  -0.00005   0.00399   0.00726
  15        5PX        -0.00095   0.00583   0.00115   0.00122  -0.00368
  16        5PY        -0.00166  -0.00489   0.00334  -0.00430  -0.00107
  17        5PZ        -0.00075  -0.00165  -0.00045   0.00141   0.00309
  18 3   C  1S          0.00193   0.00062  -0.00119   0.01497  -0.02169
  19        2S         -0.00394  -0.00115   0.00145  -0.02964   0.04150
  20        3S         -0.00093  -0.00061   0.00266  -0.02386   0.04141
  21        4PX        -0.00132  -0.00008   0.00007  -0.00220   0.00077
  22        4PY        -0.00022  -0.00008   0.00034   0.00128   0.00214
  23        4PZ         0.00060  -0.00010  -0.00051   0.00679  -0.00696
  24        5PX         0.00364  -0.00314   0.00005  -0.00674   0.00154
  25        5PY        -0.00387   0.00004   0.00675   0.00543   0.00314
  26        5PZ        -0.00070   0.00065   0.00242   0.00235  -0.00397
  27 4   C  1S         -0.09560  -0.00740  -0.09859  -0.00886  -0.11755
  28        2S          0.18776   0.01305   0.19381   0.01823   0.23684
  29        3S          0.15935   0.02236   0.18976   0.01765   0.25067
  30        4PX        -0.00701   0.00060   0.00773   0.00080   0.01839
  31        4PY         0.02791   0.00133   0.01846  -0.00935  -0.05943
  32        4PZ        -0.03660  -0.00134  -0.01551   0.00668   0.07572
  33        5PX         0.00296   0.00566   0.00234   0.00432   0.00510
  34        5PY        -0.00274  -0.00239   0.00291   0.00119  -0.00109
  35        5PZ         0.00384  -0.00206  -0.00122  -0.00141  -0.00179
  36 5   O  1S         -0.00902   0.07146  -0.00534  -0.01435   0.00199
  37        2S          0.01882  -0.15245   0.01142   0.03099  -0.00457
  38        3S          0.02416  -0.19329   0.01358   0.04130  -0.00529
  39        4PX        -0.05032   0.00157   0.00047  -0.04065   0.00270
  40        4PY        -0.03926  -0.05382   0.00379  -0.05857   0.01271
  41        4PZ         0.09239   0.03574  -0.00062   0.22117  -0.01694
  42        5PX        -0.01035   0.00463   0.00004  -0.01176   0.00145
  43        5PY        -0.00764  -0.02082   0.00391  -0.01155   0.00255
  44        5PZ         0.02053   0.00661   0.00031   0.05736  -0.00439
  45 6   Mg 1S         -0.00021   0.00018   0.00058  -0.00206   0.01090
  46        2S         -0.00939   0.00074   0.01816   0.01857   0.00864
  47        3PX        -0.00021  -0.00030   0.00131   0.00018   0.00220
  48        3PY         0.00090  -0.00060   0.00009  -0.00032   0.00093
  49        3PZ        -0.00058   0.00141   0.00065   0.00295  -0.00141
  50        4PX        -0.00352  -0.00003   0.00657   0.00853   0.00225
  51        4PY        -0.00088  -0.00181   0.00236   0.00418   0.00384
  52        4PZ        -0.00145   0.00000  -0.00065  -0.00222  -0.00329
  53 7   Br 1S         -0.00085   0.00017   0.00153  -0.00019   0.01737
  54        2S         -0.00208   0.00084   0.00363  -0.00113   0.04509
  55        3PX        -0.00017   0.00000   0.00037  -0.00016   0.00222
  56        3PY         0.00011  -0.00005  -0.00027   0.00025  -0.00319
[...]
    96. RY*(   4)Br   8                  0.00003    13.03706   
   135. RY*(   1) H  23                  0.00054     0.98447   
   136. RY*(   1) H  24                  0.00079     0.97773   
   137. RY*(   1) H  25                  0.00081     1.01315   
   159. BD*(   1) C   3 -Mg   6          0.11896     0.53041  69(r),109(r),86(g),155(r)
                                                    97(r),71(r),75(g),88(g)
                                                    121(r),117(r),52(r),162(g)
                                                    107(r),67(r),115(r),158(r)
                                                    74(g),170(g),169(g),126(r)
                                                    56(g),73(g),81(r),130(r)
                                                    135(v),127(r),123(r),111(r)
                                                    149(r),134(r),118(r),98(r)
                                                    139(r),82(r),157(r),143(r)
                                                    103(r),119(r),51(r),141(r)
                                                    122(r),68(r),133(r),94(v)
                                                    65(r),102(r),151(r),112(r)
                                                    77(r),161(g),136(v),76(g)
                                                    148(r),132(r),78(r),131(r)
                                                    120(r),106(r),138(r),137(v)
                                                    165(r),114(r),147(r),87(g)
                                                    91(v),66(r),101(r),129(r)
                                                    110(r),142(r),116(r),125(r)
                                                    152(r),173(r),79(r),166(r)
                                                    140(r),113(r),186(r),177(r)
                                                    99(r),189(r),191(r),100(r)
   160. BD*(   1) C   3 - H  23          0.01158     0.48633   
   161. BD*(   1) C   3 - H  24          0.00554     0.49111   
   162. BD*(   1) C   3 - H  25          0.00851     0.46252   
   169. BD*(   1)Mg   6 -Br   7          0.04369     0.26050   
   170. BD*(   1)Mg   6 -Br   8          0.03364     0.28695   
       -------------------------------
              Total Lewis   91.53428  ( 99.5756%)
        Valence non-Lewis    0.37238  (  0.4051%)
        Rydberg non-Lewis    0.01779  (  0.0193%)
       -------------------------------
            Total unit  2   91.92444  (100.0000%)
           Charge unit  2   -0.92444

 Molecular unit  3  (C4H10O)
     9. BD (   1) C   4 - C  14          1.99149    -0.66019  175(v),51(r),53(r),52(r)
    10. BD (   1) C   4 - H  17          1.97785    -0.54152  174(v),51(r),53(r),52(r)
    11. BD (   1) C   4 - H  18          1.98285    -0.54461  185(v),51(r),52(r),155(r)
                                                    68(r),143(r),66(r),74(r)
    12. BD (   1) C   4 - H  19          1.98444    -0.53944  186(v),51(r),52(r),53(r)
                                                    155(r),68(r)
    20. BD (   1) O  10 - C  14          1.99136    -0.82134  51(r),53(r),164(v),189(v)
                                                    68(r),52(r),67(r),75(r)
                                                    71(r),74(r),82(r),66(r)
    21. BD (   1) O  10 - C  15          1.98831    -0.79835  51(r),53(r),190(v),163(v)
                                                    185(v),159(r),67(r),68(r)
                                                    71(r),69(r),169(r),143(r)
                                                    75(r),56(r),88(r),110(r)
                                                    74(r)
    31. BD (   1) C  14 - H  36          1.98180    -0.56533  165(v),51(r),78(v),53(r)
                                                    52(r),88(r),159(r),66(r)
                                                    71(r),75(r),65(r),69(r)
    32. BD (   1) C  14 - H  37          1.98303    -0.56418  166(v),51(r),175(v),53(r)
                                                    77(v),52(r),155(r),68(r)
                                                    139(r)
    33. BD (   1) C  15 - C  16          1.99338    -0.64666  53(r),174(v),101(v),51(r)
                                                    155(r),97(r),139(r),71(r)
    34. BD (   1) C  15 - H  38          1.98204    -0.54785  191(v),51(r),53(r),175(g)
                                                    73(r),52(r)
    35. BD (   1) C  15 - H  39          1.97409    -0.54121  174(v),192(v),53(r),51(r)
                                                    159(r),125(v),169(r),88(r)
                                                    69(r),65(r),66(r),143(r)
                                                    110(r),75(r),56(r),85(r)
                                                    71(r),68(r),135(r),98(r)
                                                    94(r),161(r)
    36. BD (   1) C  16 - H  40          1.97571    -0.52280  175(v),53(r),51(r),159(r)
    37. BD (   1) C  16 - H  41          1.98542    -0.52575  188(v),53(r),51(r),52(r)
                                                    68(r),71(r)
    38. BD (   1) C  16 - H  42          1.98741    -0.53058  189(v),121(v),53(r),51(r)
                                                    52(r)
    41. CR (   1) C   4                  1.99939   -10.10198  129(v),131(v),130(v),120(v)
                                                    51(r),52(r),53(r)
    44. CR (   1) O  10                  1.99986   -19.04037  51(r),53(r),122(v),155(r)
    48. CR (   1) C  14                  1.99917   -10.18452  174(g),51(r),175(v),79(v)
                                                    148(v),149(v),53(r),52(r)
    49. CR (   1) C  15                  1.99916   -10.16482  175(g),53(r),174(v),127(v)
                                                    151(v),51(r),150(v)
    50. CR (   1) C  16                  1.99937   -10.08720  123(v),152(v),153(v),154(v)
                                                    53(r),51(r)
    63. LP (   1) O  10                  1.95292    -0.36847  186(v),187(v),188(v),163(v)
                                                    185(v),52(r),155(r),53(r)
                                                    51(r),134(r)
    64. LP (   2) O  10                  1.92325    -0.65412  51(r),53(r),155(r),68(r)
                                                    189(v),185(v),67(r),122(v)
                                                    117(v),66(r),74(r),70(r)
                                                    86(r),65(r),71(r),82(r)
                                                    75(r),73(r),85(r),52(r)
                                                    87(r),81(r),162(r),137(r)
    77. RY*(   1) C   4                  0.00272     0.36065   
    78. RY*(   2) C   4                  0.00190     0.28963   
    79. RY*(   3) C   4                  0.00069     0.37852   
    80. RY*(   4) C   4                  0.00025     0.98370   
   101. RY*(   1) O  10                  0.00301     0.84518   
   102. RY*(   2) O  10                  0.00134     1.16750   
   103. RY*(   3) O  10                  0.00052     1.09318   
   104. RY*(   4) O  10                  0.00027     1.72219   
   117. RY*(   1) C  14                  0.00406     0.48765   
   118. RY*(   2) C  14                  0.00239     0.42244   
   119. RY*(   3) C  14                  0.00137     0.30513   
   120. RY*(   4) C  14                  0.00070     0.99367   
   121. RY*(   1) C  15                  0.00410     0.49212   
   122. RY*(   2) C  15                  0.00250     0.37841   
   123. RY*(   3) C  15                  0.00198     0.38742   
   124. RY*(   4) C  15                  0.00075     1.06051   
   125. RY*(   1) C  16                  0.00256     0.26350   
   126. RY*(   2) C  16                  0.00186     0.36349   
   127. RY*(   3) C  16                  0.00077     0.56396   
   128. RY*(   4) C  16                  0.00004     0.77869   
   129. RY*(   1) H  17                  0.00071     0.83804   
   130. RY*(   1) H  18                  0.00116     1.06881   
   131. RY*(   1) H  19                  0.00143     0.89904   
   148. RY*(   1) H  36                  0.00198     0.86314   
   149. RY*(   1) H  37                  0.00177     0.88524   
   150. RY*(   1) H  38                  0.00179     0.85333   
   151. RY*(   1) H  39                  0.00197     1.01682   
   152. RY*(   1) H  40                  0.00079     0.84588   
   153. RY*(   1) H  41                  0.00118     0.90648   
   154. RY*(   1) H  42                  0.00116     0.86821   
   163. BD*(   1) C   4 - C  14          0.00824     0.31931   
   164. BD*(   1) C   4 - H  17          0.00521     0.43862   
   165. BD*(   1) C   4 - H  18          0.00960     0.42806   
   166. BD*(   1) C   4 - H  19          0.00836     0.43431   
   174. BD*(   1) O  10 - C  14          0.03434     0.15776   
   175. BD*(   1) O  10 - C  15          0.03577     0.15096   
   185. BD*(   1) C  14 - H  36          0.01790     0.42533   
   186. BD*(   1) C  14 - H  37          0.02030     0.42339   
   187. BD*(   1) C  15 - C  16          0.01300     0.33441   
   188. BD*(   1) C  15 - H  38          0.01835     0.44684   
   189. BD*(   1) C  15 - H  39          0.01984     0.46356   
   190. BD*(   1) C  16 - H  40          0.00458     0.45342   
   191. BD*(   1) C  16 - H  41          0.00820     0.44455   
   192. BD*(   1) C  16 - H  42          0.00846     0.43548   
       -------------------------------
              Total Lewis   41.65231  ( 99.3799%)
        Valence non-Lewis    0.21216  (  0.5062%)
        Rydberg non-Lewis    0.04772  (  0.1139%)
       -------------------------------
            Total unit  3   41.91219  (100.0000%)
           Charge unit  3    0.08781

 Molecular unit  4  (C4H10O)
    13. BD (   1) O   5 - C   9          1.99055    -0.82138  53(r),51(r),176(v),110(v)
                                                    180(v),68(r),52(r),159(r)
                                                    71(r),134(r),69(r),75(r)
    14. BD (   1) O   5 - C  12          1.99012    -0.80938  53(r),51(r),182(v),173(v)
                                                    98(v),52(r),68(r),159(r)
                                                    73(r),56(r),71(r),137(r)
                                                    74(r),75(r)
    17. BD (   1) C   9 - C  11          1.99322    -0.66214  53(r),168(v),81(v),51(r)
                                                    155(r)
    18. BD (   1) C   9 - H  26          1.98255    -0.56594  177(v),51(r),53(r),106(v)
                                                    65(r),88(r),159(r),66(r)
                                                    170(r),52(r),75(r)
    19. BD (   1) C   9 - H  27          1.97624    -0.56539  168(v),178(v),51(r),53(r)
                                                    105(v),52(r),68(r),67(r)
                                                    65(r),123(r),155(r),66(r)
                                                    86(r),137(r),56(r),71(r)
                                                    126(r),69(r)
    22. BD (   1) C  11 - H  28          1.97775    -0.54230  167(v),53(r),51(r)
    23. BD (   1) C  11 - H  29          1.98711    -0.54445  172(v),51(r),53(r)
    24. BD (   1) C  11 - H  30          1.98688    -0.54591  173(v),97(v),51(r),53(r)
    25. BD (   1) C  12 - C  13          1.99383    -0.64687  53(r),51(r),167(v),52(r)
                                                    159(r),88(r),75(r),66(r)
                                                    170(r),71(r),65(r),56(r)
                                                    136(r)
    26. BD (   1) C  12 - H  31          1.97622    -0.55614  167(v),183(v),53(r),113(v)
                                                    155(r),68(r),67(r),51(r)
                                                    52(r),134(r),151(r),66(r)
                                                    169(r),86(r),157(r),122(r)
                                                    75(r)
    27. BD (   1) C  12 - H  32          1.98414    -0.56213  184(v),53(r),168(g),155(r)
                                                    51(r),159(r)
    28. BD (   1) C  13 - H  33          1.97367    -0.51699  168(v),53(r)
    29. BD (   1) C  13 - H  34          1.98605    -0.52301  180(v),109(v),53(r)
    30. BD (   1) C  13 - H  35          1.98267    -0.51169  181(v),53(r),159(r),170(r)
                                                    88(r),68(r),66(r),65(r)
                                                    155(r),56(r),136(r)
    42. CR (   1) O   5                  1.99986   -19.04391  53(r),51(r),98(v),110(v)
                                                    155(r),52(r)
    43. CR (   1) C   9                  1.99919   -10.18507  167(g),53(r),168(v),107(v)
                                                    51(r),138(v)
    45. CR (   1) C  11                  1.99936   -10.10508  140(v),142(v),141(v),100(v)
                                                    53(r),51(r)
    46. CR (   1) C  12                  1.99917   -10.17690  53(r),168(g),115(v),167(v)
                                                    144(v),143(v),52(r),51(r)
                                                    155(r)
    47. CR (   1) C  13                  1.99936   -10.07873  147(v),145(v),146(v),112(v)
                                                    53(r)
    54. LP (   1) O   5                  1.95297    -0.37395  179(v),171(v),172(v),181(v)
                                                    52(r),176(r),155(r),51(r)
                                                    165(r),71(r),53(r),68(r)
                                                    86(r),88(r),75(r),160(r)
                                                    169(r),102(r),161(r)
    55. LP (   2) O   5                  1.92634    -0.65627  51(r),53(r),155(r),68(r)
                                                    173(v),180(v),98(v),67(r)
                                                    66(r),110(v),109(v),181(v)
                                                    171(v),74(r),70(r),65(r)
                                                    86(r),102(r),71(r),87(r)
                                                    73(r),103(r),75(r),88(r)
                                                    85(r),161(r),130(r)
    81. RY*(   1) O   5                  0.00284     0.89808   
    82. RY*(   2) O   5                  0.00136     1.20945   
    83. RY*(   3) O   5                  0.00055     1.00785   
    84. RY*(   4) O   5                  0.00040     1.73330   
    97. RY*(   1) C   9                  0.00463     0.50195   
    98. RY*(   2) C   9                  0.00252     0.39120   
    99. RY*(   3) C   9                  0.00131     0.39284   
   100. RY*(   4) C   9                  0.00072     0.97316   
   105. RY*(   1) C  11                  0.00226     0.27840   
   106. RY*(   2) C  11                  0.00195     0.27326   
   107. RY*(   3) C  11                  0.00082     0.54852   
   108. RY*(   4) C  11                  0.00005     0.77828   
   109. RY*(   1) C  12                  0.00441     0.53004   
   110. RY*(   2) C  12                  0.00225     0.42582   
   111. RY*(   3) C  12                  0.00108     0.34347   
   112. RY*(   4) C  12                  0.00062     0.98172   
   113. RY*(   1) C  13                  0.00272     0.29134   
   114. RY*(   2) C  13                  0.00194     0.33942   
   115. RY*(   3) C  13                  0.00099     0.51750   
   116. RY*(   4) C  13                  0.00011     0.87364   
   138. RY*(   1) H  26                  0.00189     0.88458   
   139. RY*(   1) H  27                  0.00152     0.98446   
   140. RY*(   1) H  28                  0.00074     0.81920   
   141. RY*(   1) H  29                  0.00113     0.91486   
   142. RY*(   1) H  30                  0.00103     0.85272   
   143. RY*(   1) H  31                  0.00154     0.97727   
   144. RY*(   1) H  32                  0.00196     0.86211   
   145. RY*(   1) H  33                  0.00077     0.85495   
   146. RY*(   1) H  34                  0.00103     0.88297   
   147. RY*(   1) H  35                  0.00154     0.98040   
   167. BD*(   1) O   5 - C   9          0.03555     0.15324   
   168. BD*(   1) O   5 - C  12          0.03976     0.14567   
   171. BD*(   1) C   9 - C  11          0.01355     0.31541   
   172. BD*(   1) C   9 - H  26          0.01879     0.43463   
   173. BD*(   1) C   9 - H  27          0.01433     0.42902   
   176. BD*(   1) C  11 - H  28          0.00461     0.43166   
   177. BD*(   1) C  11 - H  29          0.00789     0.42275   
   178. BD*(   1) C  11 - H  30          0.00828     0.42547   
   179. BD*(   1) C  12 - C  13          0.01260     0.33071   
   180. BD*(   1) C  12 - H  31          0.01399     0.44418   
   181. BD*(   1) C  12 - H  32          0.01886     0.43897   
   182. BD*(   1) C  13 - H  33          0.00452     0.45511   
   183. BD*(   1) C  13 - H  34          0.00817     0.44415   
   184. BD*(   1) C  13 - H  35          0.01125     0.47280   
       -------------------------------
              Total Lewis   41.65726  ( 99.3824%)
        Valence non-Lewis    0.21217  (  0.5062%)
        Rydberg non-Lewis    0.04669  (  0.1114%)
       -------------------------------
            Total unit  4   41.91613  (100.0000%)
           Charge unit  4    0.08387
 1\1\GINC-CX1-10-2-3\SP\RB3LYP\LANL2DZ\C10H26Br2Mg2O2\SCAN-USER-1\15-Ma
 r-2010\0\\# rb3lyp/lanl2dz pop=(nbo,full) geom=connectivity\\[No Title
 ]\\0,1\Mg,0,0.919405,0.024517,0.125351\C,0,-0.333958,-0.246289,1.88927
 8\C,0,-0.229443,0.012768,-1.735167\C,0,3.623102,1.025769,1.938416\O,0,
 2.193388,-1.550948,-0.048722\Mg,0,-1.782262,-0.002699,0.02961\Br,0,-2.
 599948,2.389041,0.122469\Br,0,-2.967189,-2.204528,-0.141362\C,0,2.9555
 04,-1.792146,-1.30218\O,0,2.011217,1.739355,0.207641\C,0,4.465515,-1.8
 44023,-1.059107\C,0,2.009549,-2.749639,0.833605\C,0,0.959628,-3.721955
 ,0.293181\C,0,3.363411,1.973101,0.767541\C,0,1.321045,2.977921,-0.2915
 53\C,0,1.93929,3.494939,-1.588839\H,0,4.622582,1.219525,2.348425\H,0,3
 .587321,-0.02326,1.624607\H,0,2.890166,1.184761,2.737173\H,0,-0.584941
 ,-1.284071,2.162963\H,0,-1.138644,0.387417,2.305591\H,0,0.524698,0.037
 181,2.534059\H,0,-1.132395,0.480341,-2.167692\H,0,-0.205408,-1.012489,
 -2.142395\H,0,0.576297,0.574679,-2.25293\H,0,2.583346,-2.716648,-1.756
 869\H,0,2.688555,-0.96112,-1.962596\H,0,4.98354,-1.970968,-2.018594\H,
 0,4.822027,-0.915511,-0.598722\H,0,4.750977,-2.683338,-0.414933\H,0,1.
 700183,-2.331161,1.795041\H,0,2.992045,-3.220848,0.954051\H,0,0.84186,
 -4.547095,1.008217\H,0,1.253083,-4.160472,-0.667881\H,0,-0.018171,-3.2
 42336,0.176776\H,0,3.404347,3.016664,1.103049\H,0,4.095688,1.835496,-0
 .038171\H,0,1.374938,3.716613,0.517982\H,0,0.2714,2.697668,-0.423166\H
 ,0,1.375761,4.375247,-1.923\H,0,1.87932,2.739601,-2.380566\H,0,2.98681
 5,3.794389,-1.461108\\Version=EM64L-G09RevA.02\State=1-A\HF=-575.32308
 77\RMSD=9.498e-09\Dipole=7.4894736,-0.1037178,0.0009694\Quadrupole=-3.
 7162269,2.1260161,1.5902109,-1.0259992,-0.2174676,-0.9942506\PG=C01 [X
 (C10H26Br2Mg2O2)]\\@


 IF YOU BELIEVE CERTAIN WORDS, YOU BELIEVE THEIR HIDDEN ARGUMENTS.
 WHEN YOU BELIEVE SOMETHING IS RIGHT OR WRONG, TRUE OR FALSE, 
 YOU BELIEVE THE ASSUMPTIONS IN THE WORDS WHICH EXPRESS THE ARGUMENTS.
 SUCH ASSUMPTIONS ARE OFTEN FULL OF HOLES, BUT REMAIN MOST PRECIOUS 
 TO THE CONVINCED.

                 -- THE OPEN-ENDED PROOF FROM THE PANOPLIA PROPHETICA
                    CHILDREN OF DUNE BY FRANK HERBERT
 Job cpu time:  0 days  0 hours  5 minutes 10.4 seconds.
 File lengths (MBytes):  RWF=     22 Int=      0 D2E=      0 Chk=      2 Scr=      1
 Normal termination of Gaussian 09 at Mon Mar 15 16:21:48 2010.
