 Entering Gaussian System, Link 0=g03
 Initial command:
 /apps/gaussian/g09/g09/l1.exe /home/scan-user-1/run/26150/Gau-3662.inp -scrdir=/home/scan-user-1/run/26150/
 Entering Link 1 = /apps/gaussian/g09/g09/l1.exe PID=      3663.
  
 Copyright (c) 1988,1990,1992,1993,1995,1998,2003,2009, Gaussian, Inc.
                  All Rights Reserved.
  
 This is part of the Gaussian(R) 09 program.  It is based on
 the Gaussian(R) 03 system (copyright 2003, Gaussian, Inc.),
 the Gaussian(R) 98 system (copyright 1998, Gaussian, Inc.),
 the Gaussian(R) 94 system (copyright 1995, Gaussian, Inc.),
 the Gaussian 92(TM) system (copyright 1992, Gaussian, Inc.),
 the Gaussian 90(TM) system (copyright 1990, Gaussian, Inc.),
 the Gaussian 88(TM) system (copyright 1988, Gaussian, Inc.),
 the Gaussian 86(TM) system (copyright 1986, Carnegie Mellon
 University), and the Gaussian 82(TM) system (copyright 1983,
 Carnegie Mellon University). Gaussian is a federally registered
 trademark of Gaussian, Inc.
  
 This software contains proprietary and confidential information,
 including trade secrets, belonging to Gaussian, Inc.
  
 This software is provided under written license and may be
 used, copied, transmitted, or stored only in accord with that
 written license.
  
 The following legend is applicable only to US Government
 contracts under FAR:
  
                    RESTRICTED RIGHTS LEGEND
  
 Use, reproduction and disclosure by the US Government is
 subject to restrictions as set forth in subparagraphs (a)
 and (c) of the Commercial Computer Software - Restricted
 Rights clause in FAR 52.227-19.
  
 Gaussian, Inc.
 340 Quinnipiac St., Bldg. 40, Wallingford CT 06492
  
  
 ---------------------------------------------------------------
 Warning -- This program may not be used in any manner that
 competes with the business of Gaussian, Inc. or will provide
 assistance to any competitor of Gaussian, Inc.  The licensee
 of this program is prohibited from giving any competitor of
 Gaussian, Inc. access to this program.  By using this program,
 the user acknowledges that Gaussian, Inc. is engaged in the
 business of creating and licensing software in the field of
 computational chemistry and represents and warrants to the
 licensee that it is not a competitor of Gaussian, Inc. and that
 it will not use this program in any manner prohibited above.
 ---------------------------------------------------------------
  

 Cite this work as:
 Gaussian 09, Revision A.02,
 M. J. Frisch, G. W. Trucks, H. B. Schlegel, G. E. Scuseria, 
 M. A. Robb, J. R. Cheeseman, G. Scalmani, V. Barone, B. Mennucci, 
 G. A. Petersson, H. Nakatsuji, M. Caricato, X. Li, H. P. Hratchian, 
 A. F. Izmaylov, J. Bloino, G. Zheng, J. L. Sonnenberg, M. Hada, 
 M. Ehara, K. Toyota, R. Fukuda, J. Hasegawa, M. Ishida, T. Nakajima, 
 Y. Honda, O. Kitao, H. Nakai, T. Vreven, J. A. Montgomery, Jr., 
 J. E. Peralta, F. Ogliaro, M. Bearpark, J. J. Heyd, E. Brothers, 
 K. N. Kudin, V. N. Staroverov, R. Kobayashi, J. Normand, 
 K. Raghavachari, A. Rendell, J. C. Burant, S. S. Iyengar, J. Tomasi, 
 M. Cossi, N. Rega, J. M. Millam, M. Klene, J. E. Knox, J. B. Cross, 
 V. Bakken, C. Adamo, J. Jaramillo, R. Gomperts, R. E. Stratmann, 
 O. Yazyev, A. J. Austin, R. Cammi, C. Pomelli, J. W. Ochterski, 
 R. L. Martin, K. Morokuma, V. G. Zakrzewski, G. A. Voth, 
 P. Salvador, J. J. Dannenberg, S. Dapprich, A. D. Daniels, 
 O. Farkas, J. B. Foresman, J. V. Ortiz, J. Cioslowski, 
 and D. J. Fox, Gaussian, Inc., Wallingford CT, 2009.
 
 ******************************************
 Gaussian 09:  EM64L-G09RevA.02 11-Jun-2009
                15-Mar-2010 
 ******************************************
 %nprocshared=4
 Will use up to    4 processors via shared memory.
 %mem=7000MB
 %NoSave
 %Chk=chk.chk
 %rwf=/tmp/pbs.3645688.cx1/rwf
 -----------------------------------------------------
 # opt rb3lyp/lanl2dz pop=(nbo,full) geom=connectivity
 -----------------------------------------------------
 1/14=-1,18=20,19=15,26=3,38=1,57=2/1,3;
 2/9=110,12=2,17=6,18=5,40=1/2;
 3/5=6,6=3,11=2,16=1,25=1,30=1,71=1,74=-5,116=1/1,2,3;
 4//1;
 5/5=2,38=5/2;
 6/7=3,28=1/1,7;
 7//1,2,3,16;
 1/14=-1,18=20,19=15/3(2);
 2/9=110/2;
 99//99;
 2/9=110/2;
 3/5=6,6=3,11=2,16=1,25=1,30=1,71=1,74=-5,116=1/1,2,3;
 4/5=5,16=3/1;
 5/5=2,38=5/2;
 7//1,2,3,16;
 1/14=-1,18=20,19=15/3(-5);
 2/9=110/2;
 6/7=3,19=2,28=1/1,7;
 99/9=1/99;
 ------------------
 IF7 MO Calculation
 ------------------
 Symbolic Z-matrix:
 Charge =  0 Multiplicity = 1
 I                     0.        0.00011   0. 
 F                     1.17169   1.61224   0. 
 F                    -1.17083   1.61278   0. 
 F                     1.89532  -0.61596   0. 
 F                    -1.89546  -0.61518   0. 
 F                    -0.00024  -0.00087   1.94085 
 F                    -0.00024  -0.00087  -1.94085 
 F                    -0.00024  -1.99277   0. 
 

 GradGradGradGradGradGradGradGradGradGradGradGradGradGradGradGradGradGrad
 Berny optimization.
 Initialization pass.
                           ----------------------------
                           !    Initial Parameters    !
                           ! (Angstroms and Degrees)  !
 --------------------------                            --------------------------
 ! Name  Definition              Value          Derivative Info.                !
 --------------------------------------------------------------------------------
 ! R1    R(1,2)                  1.9929         estimate D2E/DX2                !
 ! R2    R(1,3)                  1.9929         estimate D2E/DX2                !
 ! R3    R(1,4)                  1.9929         estimate D2E/DX2                !
 ! R4    R(1,5)                  1.9928         estimate D2E/DX2                !
 ! R5    R(1,6)                  1.9408         estimate D2E/DX2                !
 ! R6    R(1,7)                  1.9408         estimate D2E/DX2                !
 ! R7    R(1,8)                  1.9929         estimate D2E/DX2                !
 ! A1    A(2,1,3)               71.9895         estimate D2E/DX2                !
 ! A2    A(2,1,4)               71.9972         estimate D2E/DX2                !
 ! A3    A(2,1,5)              143.9932         estimate D2E/DX2                !
 ! A4    A(2,1,6)               90.0274         estimate D2E/DX2                !
 ! A5    A(2,1,7)               90.0274         estimate D2E/DX2                !
 ! A6    A(2,1,8)              143.9976         estimate D2E/DX2                !
 ! A7    A(3,1,4)              143.9868         estimate D2E/DX2                !
 ! A8    A(3,1,5)               72.0037         estimate D2E/DX2                !
 ! A9    A(3,1,6)               90.019          estimate D2E/DX2                !
 ! A10   A(3,1,7)               90.019          estimate D2E/DX2                !
 ! A11   A(3,1,8)              144.0128         estimate D2E/DX2                !
 ! A12   A(4,1,5)              144.0095         estimate D2E/DX2                !
 ! A13   A(4,1,6)               89.9979         estimate D2E/DX2                !
 ! A14   A(4,1,7)               89.9979         estimate D2E/DX2                !
 ! A15   A(4,1,8)               72.0004         estimate D2E/DX2                !
 ! A16   A(5,1,6)               89.9843         estimate D2E/DX2                !
 ! A17   A(5,1,7)               89.9843         estimate D2E/DX2                !
 ! A18   A(5,1,8)               72.0091         estimate D2E/DX2                !
 ! A19   A(6,1,8)               89.9713         estimate D2E/DX2                !
 ! A20   A(7,1,8)               89.9713         estimate D2E/DX2                !
 ! D1    D(2,1,4,3)              0.0            estimate D2E/DX2                !
 ! D2    D(2,1,5,3)              0.0            estimate D2E/DX2                !
 ! D3    D(2,1,6,3)             71.9895         estimate D2E/DX2                !
 ! D4    D(2,1,7,3)            -71.9895         estimate D2E/DX2                !
 ! D5    D(2,1,8,3)            180.0            estimate D2E/DX2                !
 ! D6    D(2,1,5,4)            180.0            estimate D2E/DX2                !
 ! D7    D(2,1,6,4)            -71.9972         estimate D2E/DX2                !
 ! D8    D(2,1,7,4)             71.9972         estimate D2E/DX2                !
 ! D9    D(2,1,8,4)              0.0            estimate D2E/DX2                !
 ! D10   D(2,1,6,5)            143.9932         estimate D2E/DX2                !
 ! D11   D(2,1,7,5)           -143.9932         estimate D2E/DX2                !
 ! D12   D(2,1,8,5)            180.0            estimate D2E/DX2                !
 ! D13   D(2,1,8,6)             90.0071         estimate D2E/DX2                !
 ! D14   D(2,1,8,7)            -90.0071         estimate D2E/DX2                !
 ! D15   D(3,1,5,4)            180.0            estimate D2E/DX2                !
 ! D16   D(3,1,6,4)           -143.9868         estimate D2E/DX2                !
 ! D17   D(3,1,7,4)            143.9868         estimate D2E/DX2                !
 ! D18   D(3,1,8,4)            180.0            estimate D2E/DX2                !
 ! D19   D(3,1,6,5)             72.0037         estimate D2E/DX2                !
 ! D20   D(3,1,7,5)            -72.0037         estimate D2E/DX2                !
 ! D21   D(3,1,8,5)              0.0            estimate D2E/DX2                !
 ! D22   D(3,1,8,6)            -89.9929         estimate D2E/DX2                !
 ! D23   D(3,1,8,7)             89.9929         estimate D2E/DX2                !
 ! D24   D(4,1,6,5)           -144.0095         estimate D2E/DX2                !
 ! D25   D(4,1,7,5)            144.0095         estimate D2E/DX2                !
 ! D26   D(4,1,8,5)            180.0            estimate D2E/DX2                !
 ! D27   D(4,1,8,6)             90.0071         estimate D2E/DX2                !
 ! D28   D(4,1,8,7)            -90.0071         estimate D2E/DX2                !
 ! D29   D(5,1,8,6)            -89.9929         estimate D2E/DX2                !
 ! D30   D(5,1,8,7)             89.9929         estimate D2E/DX2                !
 --------------------------------------------------------------------------------
 Trust Radius=3.00D-01 FncErr=1.00D-07 GrdErr=1.00D-06
 Number of steps in this run=  67 maximum allowed number of steps= 100.
 GradGradGradGradGradGradGradGradGradGradGradGradGradGradGradGradGradGrad

                          Input orientation:                          
 ---------------------------------------------------------------------
 Center     Atomic      Atomic             Coordinates (Angstroms)
 Number     Number       Type             X           Y           Z
 ---------------------------------------------------------------------
      1         53           0        0.000001    0.000105    0.000000
      2          9           0        1.171689    1.612243    0.000000
      3          9           0       -1.170826    1.612781    0.000000
      4          9           0        1.895316   -0.615960    0.000000
      5          9           0       -1.895458   -0.615178    0.000000
      6          9           0       -0.000242   -0.000867    1.940848
      7          9           0       -0.000242   -0.000867   -1.940848
      8          9           0       -0.000242   -1.992771    0.000000
 ---------------------------------------------------------------------
                    Distance matrix (angstroms):
                    1          2          3          4          5
     1  I    0.000000
     2  F    1.992948   0.000000
     3  F    1.992877   2.342515   0.000000
     4  F    1.992927   2.342761   3.790583   0.000000
     5  F    1.992821   3.790619   2.342838   3.790774   0.000000
     6  F    1.940848   2.782523   2.782268   2.781792   2.781387
     7  F    1.940848   2.782523   2.782268   2.781792   2.781387
     8  F    1.992876   3.790719   3.790814   2.342808   2.342992
                    6          7          8
     6  F    0.000000
     7  F    3.881695   0.000000
     8  F    2.781110   2.781110   0.000000
 Stoichiometry    F7I
 Framework group  CS[SG(F5I),X(F2)]
 Deg. of freedom    12
 Full point group                 CS      NOp   2
 Largest Abelian subgroup         CS      NOp   2
 Largest concise Abelian subgroup CS      NOp   2
                         Standard orientation:                         
 ---------------------------------------------------------------------
 Center     Atomic      Atomic             Coordinates (Angstroms)
 Number     Number       Type             X           Y           Z
 ---------------------------------------------------------------------
      1         53           0        0.000000    0.000105    0.000000
      2          9           0        1.171689    1.612243    0.000000
      3          9           0       -1.170826    1.612781    0.000000
      4          9           0        1.895316   -0.615960    0.000000
      5          9           0       -1.895458   -0.615178    0.000000
      6          9           0       -0.000241   -0.000867    1.940848
      7          9           0       -0.000241   -0.000867   -1.940848
      8          9           0       -0.000241   -1.992771    0.000000
 ---------------------------------------------------------------------
 Rotational constants (GHZ):      1.5233358      1.5232687      1.3395639
 Standard basis: LANL2DZ (5D, 7F)
 There are    50 symmetry adapted basis functions of A'  symmetry.
 There are    21 symmetry adapted basis functions of A"  symmetry.
 Integral buffers will be    131072 words long.
 Raffenetti 2 integral format.
 Two-electron integral symmetry is turned on.
    71 basis functions,   187 primitive gaussians,    71 cartesian basis functions
    35 alpha electrons       35 beta electrons
       nuclear repulsion energy       431.1405696559 Hartrees.



 Warning!  I  atom    1 may be hypervalent but has no d functions.



 NAtoms=    8 NActive=    8 NUniq=    7 SFac= 9.80D-01 NAtFMM=   80 NAOKFM=F Big=F
 One-electron integrals computed using PRISM.
   2 Symmetry operations used in ECPInt.
 ECPInt:  NShTT=     780 NPrTT=    6414 LenC2=     765 LenP2D=    3883.
 LDataN:  DoStor=T MaxTD1= 4 Len=   56
 NBasis=    71 RedAO= T  NBF=    50    21
 NBsUse=    71 1.00D-06 NBFU=    50    21
 Defaulting to unpruned grid for atomic number  53.
 Harris functional with IExCor=  402 diagonalized for initial guess.
 ExpMin= 1.05D-01 ExpMax= 1.00D+04 ExpMxC= 3.50D+02 IAcc=1 IRadAn=         1 AccDes= 0.00D+00
 HarFok:  IExCor=  402 AccDes= 0.00D+00 IRadAn=         1 IDoV= 1
 ScaDFX=  1.000000  1.000000  1.000000  1.000000
 Defaulting to unpruned grid for atomic number  53.
 Defaulting to unpruned grid for atomic number  53.
 Defaulting to unpruned grid for atomic number  53.
 Defaulting to unpruned grid for atomic number  53.
 FoFCou: FMM=F IPFlag=           0 FMFlag=      100000 FMFlg1=           0
         NFxFlg=           0 DoJE=T BraDBF=F KetDBF=T FulRan=T
         Omega=  0.000000  0.000000  1.000000  0.000000  0.000000 ICntrl=     500 IOpCl=  0
         NMat0=    1 NMatS0=    1 NMatT0=    0 NMatD0=    1 NMtDS0=    0 NMtDT0=    0
         I1Cent=           4 NGrid=           0.
 Petite list used in FoFCou.
 Initial guess orbital symmetries:
       Occupied  (A") (A') (A') (A') (A') (A') (A') (A') (A") (A')
                 (A') (A') (A') (A') (A') (A') (A') (A") (A') (A')
                 (A") (A") (A') (A") (A') (A') (A') (A') (A") (A")
                 (A") (A") (A') (A') (A')
       Virtual   (A') (A") (A') (A') (A') (A') (A") (A") (A") (A')
                 (A') (A") (A') (A') (A') (A") (A") (A') (A') (A')
                 (A') (A') (A") (A") (A") (A') (A') (A') (A') (A')
                 (A') (A') (A") (A') (A') (A')
 The electronic state of the initial guess is 1-A'.
 Requested convergence on RMS density matrix=1.00D-08 within 128 cycles.
 Requested convergence on MAX density matrix=1.00D-06.
 Requested convergence on             energy=1.00D-06.
 No special actions if energy rises.
 Keep R1 ints in memory in canonical form, NReq=4268559.
 Integral accuracy reduced to 1.0D-05 until final iterations.
 Defaulting to unpruned grid for atomic number  53.
 Defaulting to unpruned grid for atomic number  53.
 Defaulting to unpruned grid for atomic number  53.
 Defaulting to unpruned grid for atomic number  53.
 EnCoef did   100 forward-backward iterations
 EnCoef did     4 forward-backward iterations
 Initial convergence to 1.0D-05 achieved.  Increase integral accuracy.
 SCF Done:  E(RB3LYP) =  -709.951553995     A.U. after   20 cycles
             Convg  =    0.2890D-08             -V/T =  2.0156

 **********************************************************************

            Population analysis using the SCF density.

 **********************************************************************

 Orbital symmetries:
       Occupied  (A") (A') (A') (A') (A') (A') (A') (A') (A") (A')
                 (A') (A') (A') (A') (A') (A") (A') (A') (A") (A")
                 (A') (A') (A') (A') (A') (A") (A') (A') (A") (A")
                 (A") (A") (A') (A') (A')
       Virtual   (A') (A") (A') (A') (A") (A') (A') (A") (A") (A')
                 (A') (A") (A') (A') (A') (A') (A") (A") (A') (A')
                 (A') (A') (A") (A") (A") (A') (A') (A') (A') (A')
                 (A') (A') (A") (A') (A') (A')
 The electronic state is 1-A'.
 Alpha  occ. eigenvalues --  -24.82797 -24.82797 -24.78703 -24.78703 -24.78700
 Alpha  occ. eigenvalues --  -24.78699 -24.78696  -1.34603  -1.30405  -1.26934
 Alpha  occ. eigenvalues --   -1.26934  -1.26827  -1.22902  -1.22899  -0.91017
 Alpha  occ. eigenvalues --   -0.67899  -0.66462  -0.66462  -0.54135  -0.54135
 Alpha  occ. eigenvalues --   -0.53675  -0.53587  -0.53584  -0.52311  -0.52311
 Alpha  occ. eigenvalues --   -0.50660  -0.49239  -0.49238  -0.48703  -0.48703
 Alpha  occ. eigenvalues --   -0.48130  -0.48127  -0.46647  -0.46646  -0.43842
 Alpha virt. eigenvalues --   -0.33371  -0.17753  -0.15190  -0.15190   0.29450
 Alpha virt. eigenvalues --    0.31279   0.31280   0.51763   0.51765   0.60455
 Alpha virt. eigenvalues --    0.60460   0.76003   0.76319   0.76321   0.77934
 Alpha virt. eigenvalues --    0.80748   0.81500   0.81505   0.82460   0.82461
 Alpha virt. eigenvalues --    0.86004   0.86004   0.91338   0.91339   1.04025
 Alpha virt. eigenvalues --    1.14230   1.15199   1.15200   1.16064   1.31528
 Alpha virt. eigenvalues --    1.41952   1.41964   1.93552   1.99473   1.99476
 Alpha virt. eigenvalues --   11.71204
     Molecular Orbital Coefficients:
                           1         2         3         4         5
                           O         O         O         O         O
     Eigenvalues --   -24.82797 -24.82797 -24.78703 -24.78703 -24.78700
   1 1   I  1S          0.00000   0.00001   0.00001   0.00001   0.00001
   2        2S          0.00000   0.00070   0.00015   0.00037   0.00029
   3        3PX         0.00000   0.00000  -0.00002   0.00001  -0.00004
   4        3PY         0.00000   0.00000   0.00001   0.00004   0.00000
   5        3PZ         0.00012   0.00000   0.00000   0.00000   0.00000
   6        4PX         0.00000   0.00000  -0.00080   0.00035  -0.00120
   7        4PY         0.00000   0.00000   0.00048   0.00123  -0.00006
   8        4PZ         0.00148   0.00000   0.00000   0.00000   0.00000
   9 2   F  1S          0.00000  -0.00003  -0.40162   0.90847   0.06277
  10        2S          0.00000   0.00005  -0.00177   0.00414   0.00012
  11        3S          0.00000  -0.00013   0.00069  -0.00207   0.00028
  12        4PX         0.00000   0.00000   0.00022  -0.00042  -0.00003
  13        4PY         0.00000   0.00000   0.00026  -0.00060  -0.00003
  14        4PZ         0.00004   0.00000   0.00000   0.00000   0.00000
  15        5PX         0.00000   0.00004  -0.00014   0.00038   0.00002
  16        5PY         0.00000   0.00006  -0.00019   0.00053  -0.00010
  17        5PZ        -0.00021   0.00000   0.00000   0.00000   0.00000
  18 3   F  1S          0.00000  -0.00003   0.91335   0.39188   0.07125
  19        2S          0.00000   0.00005   0.00412   0.00182   0.00041
  20        3S          0.00000  -0.00013  -0.00191  -0.00103  -0.00044
  21        4PX         0.00000   0.00000   0.00045   0.00016   0.00004
  22        4PY         0.00000   0.00000  -0.00060  -0.00026  -0.00002
  23        4PZ         0.00004   0.00000   0.00000   0.00000   0.00000
  24        5PX         0.00000  -0.00004  -0.00036  -0.00019  -0.00006
  25        5PY         0.00000   0.00006   0.00050   0.00026   0.00011
  26        5PZ        -0.00021   0.00000   0.00000   0.00000   0.00000
  27 4   F  1S          0.00000  -0.00003  -0.01851  -0.07962  -0.20011
  28        2S          0.00000   0.00005  -0.00025  -0.00037  -0.00108
  29        3S          0.00000  -0.00013   0.00048   0.00015   0.00088
  30        4PX         0.00000   0.00000   0.00002   0.00007   0.00016
  31        4PY         0.00000   0.00000   0.00002  -0.00004  -0.00007
  32        4PZ         0.00004   0.00000   0.00000   0.00000   0.00000
  33        5PX         0.00000   0.00007  -0.00015  -0.00007  -0.00023
  34        5PY         0.00000  -0.00002  -0.00003  -0.00002   0.00015
  35        5PZ        -0.00021   0.00000   0.00000   0.00000   0.00000
  36 5   F  1S          0.00000  -0.00003  -0.04586  -0.10663   0.97176
  37        2S          0.00000   0.00005  -0.00010  -0.00061   0.00442
  38        3S          0.00000  -0.00013  -0.00023   0.00053  -0.00215
  39        4PX         0.00000   0.00000  -0.00004  -0.00009   0.00075
  40        4PY         0.00000   0.00000  -0.00004  -0.00003   0.00024
  41        4PZ         0.00004   0.00000   0.00000   0.00000   0.00000
  42        5PX         0.00000  -0.00007  -0.00006   0.00018  -0.00065
  43        5PY         0.00000  -0.00002   0.00001  -0.00002  -0.00023
  44        5PZ        -0.00021   0.00000   0.00000   0.00000   0.00000
  45 6   F  1S          0.70646   0.70646   0.00001   0.00002   0.00002
  46        2S          0.00338   0.00305   0.00001   0.00003   0.00003
  47        3S         -0.00198  -0.00118  -0.00003  -0.00008  -0.00007
  48        4PX         0.00000   0.00000  -0.00003   0.00001  -0.00004
  49        4PY         0.00000   0.00000   0.00002   0.00004   0.00000
  50        4PZ        -0.00067  -0.00064   0.00000   0.00000   0.00000
  51        5PX         0.00000   0.00000   0.00013  -0.00006   0.00020
  52        5PY         0.00000   0.00000  -0.00008  -0.00021   0.00001
  53        5PZ         0.00067   0.00043   0.00002   0.00005   0.00004
  54 7   F  1S         -0.70646   0.70646   0.00001   0.00002   0.00002
  55        2S         -0.00338   0.00305   0.00001   0.00003   0.00003
  56        3S          0.00198  -0.00118  -0.00003  -0.00008  -0.00007
  57        4PX         0.00000   0.00000  -0.00003   0.00001  -0.00004
  58        4PY         0.00000   0.00000   0.00002   0.00004   0.00000
  59        4PZ        -0.00067   0.00064   0.00000   0.00000   0.00000
  60        5PX         0.00000   0.00000   0.00013  -0.00006   0.00020
  61        5PY         0.00000   0.00000  -0.00008  -0.00021   0.00001
  62        5PZ         0.00067  -0.00043  -0.00002  -0.00005  -0.00004
  63 8   F  1S          0.00000  -0.00003  -0.01450  -0.03966  -0.06910
  64        2S          0.00000   0.00005  -0.00016  -0.00041  -0.00030
  65        3S          0.00000  -0.00013   0.00026   0.00068   0.00008
  66        4PX         0.00000   0.00000  -0.00002   0.00001   0.00003
  67        4PY         0.00000   0.00000  -0.00001  -0.00004  -0.00007
  68        4PZ         0.00004   0.00000   0.00000   0.00000   0.00000
  69        5PX         0.00000   0.00000   0.00010  -0.00004   0.00000
  70        5PY         0.00000  -0.00007   0.00007   0.00019   0.00003
  71        5PZ        -0.00021   0.00000   0.00000   0.00000   0.00000
                           6         7         8         9        10
                           O         O         O         O         O
     Eigenvalues --   -24.78699 -24.78696  -1.34603  -1.30405  -1.26934
   1 1   I  1S          0.00001   0.00002   0.16236   0.00000   0.00086
   2        2S          0.00039   0.00045   0.23218   0.00000   0.00135
   3        3PX         0.00002   0.00000  -0.00004   0.00000  -0.07713
   4        3PY         0.00000  -0.00003  -0.00002   0.00000   0.10574
   5        3PZ         0.00000   0.00000   0.00000   0.12495   0.00000
   6        4PX         0.00081   0.00004   0.00000   0.00000  -0.00982
   7        4PY        -0.00010  -0.00105  -0.00001   0.00000   0.01345
   8        4PZ         0.00000   0.00000   0.00000   0.00302   0.00000
   9 2   F  1S          0.07390   0.04636  -0.06475   0.00000  -0.04890
  10        2S          0.00037   0.00003   0.14440   0.00000   0.10624
  11        3S         -0.00031   0.00034   0.11044   0.00000   0.09879
  12        4PX        -0.00005  -0.00001  -0.02435   0.00000  -0.01987
  13        4PY        -0.00002  -0.00003  -0.03350   0.00000  -0.01219
  14        4PZ         0.00000   0.00000   0.00000   0.00388   0.00000
  15        5PX         0.00007  -0.00011  -0.00366   0.00000  -0.00771
  16        5PY         0.00006  -0.00003  -0.00503   0.00000  -0.00496
  17        5PZ         0.00000   0.00000   0.00000   0.00121   0.00000
  18 3   F  1S          0.05871   0.04319  -0.06479   0.00000  -0.15474
  19        2S          0.00014   0.00001   0.14447   0.00000   0.33629
  20        3S          0.00019   0.00037   0.11051   0.00000   0.31242
  21        4PX         0.00004   0.00001   0.02434   0.00000   0.04008
  22        4PY        -0.00002  -0.00003  -0.03353   0.00000  -0.05524
  23        4PZ         0.00000   0.00000   0.00000   0.00389   0.00000
  24        5PX        -0.00004   0.00011   0.00366   0.00000   0.01572
  25        5PY        -0.00009  -0.00004  -0.00504   0.00000  -0.02166
  26        5PZ         0.00000   0.00000   0.00000   0.00121   0.00000
  27 4   F  1S          0.96673   0.12987  -0.06474   0.00000   0.12157
  28        2S          0.00433   0.00060   0.14437   0.00000  -0.26429
  29        3S         -0.00197  -0.00039   0.11040   0.00000  -0.24525
  30        4PX        -0.00075  -0.00008  -0.03938   0.00000   0.05277
  31        4PY         0.00024   0.00005   0.01280   0.00000  -0.01139
  32        4PZ         0.00000   0.00000   0.00000   0.00389   0.00000
  33        5PX         0.00061   0.00011  -0.00591   0.00000   0.02039
  34        5PY        -0.00019  -0.00003   0.00192   0.00000  -0.00449
  35        5PZ         0.00000   0.00000   0.00000   0.00121   0.00000
  36 5   F  1S          0.17933   0.09059  -0.06479   0.00000  -0.04948
  37        2S          0.00063   0.00042   0.14448   0.00000   0.10751
  38        3S          0.00008  -0.00029   0.11050   0.00000   0.09997
  39        4PX         0.00014   0.00005   0.03942   0.00000   0.01800
  40        4PY         0.00003   0.00004   0.01280   0.00000   0.01519
  41        4PZ         0.00000   0.00000   0.00000   0.00389   0.00000
  42        5PX        -0.00002  -0.00008   0.00592   0.00000   0.00720
  43        5PY         0.00007  -0.00002   0.00192   0.00000   0.00582
  44        5PZ         0.00000   0.00000   0.00000   0.00121   0.00000
  45 6   F  1S          0.00002   0.00003  -0.10997  -0.17239   0.00360
  46        2S          0.00003   0.00004   0.24272   0.37377  -0.00768
  47        3S         -0.00009  -0.00010   0.20310   0.35318  -0.00788
  48        4PX         0.00003   0.00000   0.00001   0.00001  -0.00329
  49        4PY         0.00000  -0.00003   0.00004   0.00005   0.00451
  50        4PZ         0.00000   0.00000  -0.06383  -0.08046   0.00128
  51        5PX        -0.00014  -0.00001   0.00000   0.00000  -0.00009
  52        5PY         0.00002   0.00017   0.00001   0.00002   0.00013
  53        5PZ         0.00005   0.00006  -0.01787  -0.03424   0.00103
  54 7   F  1S          0.00002   0.00003  -0.10997   0.17239   0.00360
  55        2S          0.00003   0.00004   0.24272  -0.37377  -0.00768
  56        3S         -0.00009  -0.00010   0.20310  -0.35318  -0.00788
  57        4PX         0.00003   0.00000   0.00001  -0.00001  -0.00329
  58        4PY         0.00000  -0.00003   0.00004  -0.00005   0.00451
  59        4PZ         0.00000   0.00000   0.06383  -0.08046  -0.00128
  60        5PX        -0.00014  -0.00001   0.00000   0.00000  -0.00009
  61        5PY         0.00002   0.00017   0.00001  -0.00002   0.00013
  62        5PZ        -0.00005  -0.00006   0.01787  -0.03424  -0.00103
  63 8   F  1S         -0.15009   0.98442  -0.06475   0.00000   0.12117
  64        2S         -0.00066   0.00444   0.14439   0.00000  -0.26341
  65        3S          0.00019  -0.00212   0.11042   0.00000  -0.24444
  66        4PX        -0.00002   0.00000   0.00000   0.00000  -0.00552
  67        4PY        -0.00014   0.00079   0.04143   0.00000  -0.05354
  68        4PZ         0.00000   0.00000   0.00000   0.00389   0.00000
  69        5PX         0.00000   0.00000   0.00000   0.00000  -0.00205
  70        5PY         0.00008  -0.00068   0.00622   0.00000  -0.02071
  71        5PZ         0.00000   0.00000   0.00000   0.00121   0.00000
                          11        12        13        14        15
                           O         O         O         O         O
     Eigenvalues --    -1.26934  -1.26827  -1.22902  -1.22899  -0.91017
   1 1   I  1S          0.00054  -0.03211   0.00000   0.00000   0.36131
   2        2S          0.00085  -0.05061   0.00000  -0.00001   0.59315
   3        3PX         0.10580  -0.00037   0.00004   0.00004   0.00000
   4        3PY         0.07710   0.00415  -0.00004   0.00007   0.00005
   5        3PZ         0.00000   0.00000   0.00000   0.00000   0.00000
   6        4PX         0.01346  -0.00005  -0.00001   0.00001   0.00000
   7        4PY         0.00981   0.00055  -0.00001  -0.00001  -0.00001
   8        4PZ         0.00000   0.00000   0.00000   0.00000   0.00000
   9 2   F  1S         -0.14655   0.07222   0.12955   0.09675   0.05589
  10        2S          0.31851  -0.15516  -0.27792  -0.20756  -0.11319
  11        3S          0.29585  -0.14950  -0.27777  -0.20746  -0.17766
  12        4PX        -0.03569   0.01762   0.02280   0.02217  -0.04558
  13        4PY        -0.05399   0.02458   0.03656   0.02355  -0.06271
  14        4PZ         0.00000   0.00000   0.00000   0.00000   0.00000
  15        5PX        -0.01401   0.01010   0.01677   0.01656  -0.00178
  16        5PY        -0.02109   0.01401   0.02714   0.01735  -0.00245
  17        5PZ         0.00000   0.00000   0.00000   0.00000   0.00000
  18 3   F  1S         -0.00153   0.07173  -0.16164  -0.00221   0.05590
  19        2S          0.00330  -0.15408   0.34676   0.00474  -0.11320
  20        3S          0.00316  -0.14850   0.34659   0.00474  -0.17768
  21        4PX         0.00796  -0.01752   0.03155  -0.00369   0.04555
  22        4PY         0.00497   0.02439  -0.04335  -0.00359  -0.06274
  23        4PZ         0.00000   0.00000   0.00000   0.00000   0.00000
  24        5PX         0.00302  -0.01005   0.02337  -0.00291   0.00178
  25        5PY         0.00177   0.01394  -0.03210  -0.00278  -0.00245
  26        5PZ         0.00000   0.00000   0.00000   0.00000   0.00000
  27 4   F  1S         -0.09073   0.07785  -0.04790  -0.15448   0.05589
  28        2S          0.19718  -0.16739   0.10277   0.33141  -0.11317
  29        3S          0.18317  -0.16086   0.10272   0.33123  -0.17766
  30        4PX        -0.03573   0.03120  -0.01662  -0.04827  -0.07371
  31        4PY         0.01958  -0.00985   0.00028   0.01728   0.02396
  32        4PZ         0.00000   0.00000   0.00000   0.00000   0.00000
  33        5PX        -0.01404   0.01738  -0.01236  -0.03572  -0.00286
  34        5PY         0.00753  -0.00554   0.00001   0.01286   0.00093
  35        5PZ         0.00000   0.00000   0.00000   0.00000   0.00000
  36 5   F  1S          0.14388   0.07705   0.13210  -0.09319   0.05590
  37        2S         -0.31276  -0.16566  -0.28339   0.19991  -0.11319
  38        3S         -0.29034  -0.15925  -0.28326   0.19982  -0.17770
  39        4PX        -0.06133  -0.03088  -0.04260   0.02812   0.07373
  40        4PY        -0.01686  -0.00972  -0.01074   0.01351   0.02394
  41        4PZ         0.00000   0.00000   0.00000   0.00000   0.00000
  42        5PX        -0.02381  -0.01726  -0.03158   0.02077   0.00286
  43        5PY        -0.00659  -0.00549  -0.00784   0.01017   0.00093
  44        5PZ         0.00000   0.00000   0.00000   0.00000   0.00000
  45 6   F  1S          0.00215  -0.13039   0.00000   0.00000   0.06071
  46        2S         -0.00459   0.27812   0.00000   0.00001  -0.12547
  47        3S         -0.00471   0.28578   0.00000   0.00001  -0.19094
  48        4PX         0.00451  -0.00001   0.00000   0.00000   0.00001
  49        4PY         0.00329   0.00021   0.00000   0.00001   0.00006
  50        4PZ         0.00077  -0.04588   0.00000   0.00000  -0.09834
  51        5PX         0.00013   0.00001   0.00001   0.00000   0.00000
  52        5PY         0.00009   0.00003   0.00000   0.00001   0.00002
  53        5PZ         0.00062  -0.03760   0.00000   0.00000  -0.00939
  54 7   F  1S          0.00215  -0.13039   0.00000   0.00000   0.06071
  55        2S         -0.00459   0.27812   0.00000   0.00001  -0.12547
  56        3S         -0.00471   0.28578   0.00000   0.00001  -0.19094
  57        4PX         0.00451  -0.00001   0.00000   0.00000   0.00001
  58        4PY         0.00329   0.00021   0.00000   0.00001   0.00006
  59        4PZ        -0.00077   0.04588   0.00000   0.00000   0.09834
  60        5PX         0.00013   0.00001   0.00001   0.00000   0.00000
  61        5PY         0.00009   0.00003   0.00000   0.00001   0.00002
  62        5PZ        -0.00062   0.03760   0.00000   0.00000   0.00939
  63 8   F  1S          0.08857   0.08081  -0.05211   0.15315   0.05589
  64        2S         -0.19255  -0.17383   0.11179  -0.32855  -0.11317
  65        3S         -0.17869  -0.16683   0.11173  -0.32839  -0.17768
  66        4PX         0.00755  -0.00003   0.00483   0.00164   0.00001
  67        4PY        -0.03913  -0.03403   0.01729  -0.05082   0.07750
  68        4PZ         0.00000   0.00000   0.00000   0.00000   0.00000
  69        5PX         0.00281  -0.00001   0.00378   0.00128   0.00000
  70        5PY        -0.01515  -0.01875   0.01280  -0.03762   0.00300
  71        5PZ         0.00000   0.00000   0.00000   0.00000   0.00000
                          16        17        18        19        20
                           O         O         O         O         O
     Eigenvalues --    -0.67899  -0.66462  -0.66462  -0.54135  -0.54135
   1 1   I  1S          0.00000  -0.00002   0.00000   0.00000   0.00000
   2        2S          0.00000  -0.00002   0.00002   0.00000   0.00000
   3        3PX         0.00000  -0.27626   0.40839   0.00000   0.00000
   4        3PY         0.00000   0.40839   0.27627   0.00000   0.00000
   5        3PZ         0.48305   0.00000   0.00000   0.00002   0.00002
   6        4PX         0.00000  -0.03557   0.05259   0.00000   0.00000
   7        4PY         0.00000   0.05257   0.03557   0.00000   0.00000
   8        4PZ         0.05513   0.00000   0.00000   0.00021   0.00004
   9 2   F  1S          0.00000   0.01858   0.05130   0.00000   0.00000
  10        2S          0.00000  -0.04415  -0.12188   0.00000   0.00000
  11        3S          0.00000  -0.04811  -0.13281   0.00000   0.00000
  12        4PX         0.00000  -0.11821  -0.13974   0.00000   0.00000
  13        4PY         0.00000  -0.03700  -0.23778   0.00000   0.00000
  14        4PZ         0.08094   0.00000   0.00000   0.15222   0.13083
  15        5PX         0.00000  -0.04494  -0.05858   0.00000   0.00000
  16        5PY         0.00000  -0.01774  -0.09656   0.00000   0.00000
  17        5PZ         0.03760   0.00000   0.00000   0.09128   0.07848
  18 3   F  1S          0.00000   0.05454  -0.00181   0.00000   0.00000
  19        2S          0.00000  -0.12958   0.00430   0.00000   0.00000
  20        3S          0.00000  -0.14119   0.00469   0.00000   0.00000
  21        4PX         0.00000   0.17356   0.05788   0.00000   0.00000
  22        4PY         0.00000  -0.23462   0.05399   0.00000   0.00000
  23        4PZ         0.08096   0.00000   0.00000   0.17163  -0.10431
  24        5PX         0.00000   0.07104   0.01997   0.00000   0.00000
  25        5PY         0.00000  -0.09629   0.01941   0.00000   0.00000
  26        5PZ         0.03760   0.00000   0.00000   0.10292  -0.06258
  27 4   F  1S          0.00000  -0.04305   0.03353   0.00000   0.00000
  28        2S          0.00000   0.10227  -0.07966   0.00000   0.00000
  29        3S          0.00000   0.11145  -0.08682   0.00000   0.00000
  30        4PX         0.00000   0.23393  -0.15143   0.00000   0.00000
  31        4PY         0.00000  -0.02527   0.11439   0.00000   0.00000
  32        4PZ         0.08092   0.00000   0.00000  -0.07737   0.18526
  33        5PX         0.00000   0.09502  -0.06321   0.00000   0.00000
  34        5PY         0.00000  -0.01307   0.04341   0.00000   0.00000
  35        5PZ         0.03757   0.00000   0.00000  -0.04644   0.11112
  36 5   F  1S          0.00000   0.01513  -0.05244   0.00000   0.00000
  37        2S          0.00000  -0.03594   0.12458   0.00000   0.00000
  38        3S          0.00000  -0.03917   0.13576   0.00000   0.00000
  39        4PX         0.00000   0.05365  -0.27354   0.00000   0.00000
  40        4PY         0.00000   0.09682  -0.06589   0.00000   0.00000
  41        4PZ         0.08095   0.00000   0.00000  -0.04619  -0.19559
  42        5PX         0.00000   0.02337  -0.11174   0.00000   0.00000
  43        5PY         0.00000   0.03546  -0.02823   0.00000   0.00000
  44        5PZ         0.03758   0.00000   0.00000  -0.02773  -0.11731
  45 6   F  1S          0.05786  -0.00002  -0.00002   0.00000   0.00000
  46        2S         -0.13975   0.00005   0.00004   0.00003   0.00000
  47        3S         -0.14634   0.00006   0.00006  -0.00009  -0.00002
  48        4PX         0.00005  -0.07164   0.10591  -0.03788   0.46289
  49        4PY         0.00021   0.10591   0.07165   0.46290   0.03788
  50        4PZ        -0.35019   0.00019   0.00019   0.00034   0.00006
  51        5PX         0.00002  -0.03254   0.04810  -0.01963   0.23990
  52        5PY         0.00010   0.04810   0.03254   0.23991   0.01963
  53        5PZ        -0.14272   0.00007   0.00007   0.00021   0.00004
  54 7   F  1S         -0.05786  -0.00002  -0.00002   0.00000   0.00000
  55        2S          0.13975   0.00005   0.00004  -0.00003   0.00000
  56        3S          0.14634   0.00006   0.00006   0.00009   0.00002
  57        4PX        -0.00005  -0.07164   0.10591   0.03788  -0.46289
  58        4PY        -0.00021   0.10591   0.07165  -0.46290  -0.03788
  59        4PZ        -0.35019  -0.00019  -0.00019   0.00034   0.00006
  60        5PX        -0.00002  -0.03254   0.04810   0.01963  -0.23990
  61        5PY        -0.00010   0.04810   0.03254  -0.23991  -0.01963
  62        5PZ        -0.14272  -0.00007  -0.00007   0.00021   0.00004
  63 8   F  1S          0.00000  -0.04520  -0.03058   0.00000   0.00000
  64        2S          0.00000   0.10738   0.07265   0.00000   0.00000
  65        3S          0.00000   0.11702   0.07918   0.00000   0.00000
  66        4PX         0.00000  -0.04406   0.06506   0.00000   0.00000
  67        4PY         0.00000  -0.24174  -0.16357   0.00000   0.00000
  68        4PZ         0.08091   0.00000   0.00000  -0.20022  -0.01640
  69        5PX         0.00000  -0.01546   0.02283   0.00000   0.00000
  70        5PY         0.00000  -0.09910  -0.06705   0.00000   0.00000
  71        5PZ         0.03755   0.00000   0.00000  -0.12012  -0.00984
                          21        22        23        24        25
                           O         O         O         O         O
     Eigenvalues --    -0.53675  -0.53587  -0.53584  -0.52311  -0.52311
   1 1   I  1S          0.02213  -0.00001  -0.00001   0.00006   0.00001
   2        2S          0.05512  -0.00003  -0.00004   0.00014   0.00001
   3        3PX         0.00001  -0.00003  -0.00005   0.00267  -0.08001
   4        3PY         0.00002   0.00005  -0.00003  -0.08002  -0.00267
   5        3PZ         0.00000   0.00000   0.00000   0.00000   0.00000
   6        4PX        -0.00002   0.00000   0.00009  -0.00371   0.11123
   7        4PY        -0.00024  -0.00014   0.00002   0.11124   0.00371
   8        4PZ         0.00000   0.00000   0.00000   0.00000   0.00000
   9 2   F  1S          0.01147   0.00492  -0.01289  -0.00425  -0.00331
  10        2S         -0.03279  -0.01610   0.04216   0.01910   0.01489
  11        3S         -0.01815  -0.00303   0.00801  -0.02203  -0.01714
  12        4PX        -0.10061  -0.35108  -0.02864   0.08482   0.02770
  13        4PY        -0.13798   0.18128   0.21459   0.07795   0.08876
  14        4PZ         0.00000   0.00000   0.00000   0.00000   0.00000
  15        5PX        -0.05488  -0.18394  -0.00529   0.05110   0.01207
  16        5PY        -0.07526   0.08816   0.12319   0.04222   0.05312
  17        5PZ         0.00000   0.00000   0.00000   0.00000   0.00000
  18 3   F  1S          0.01148   0.00359   0.01330  -0.00446   0.00302
  19        2S         -0.03284  -0.01175  -0.04353   0.02007  -0.01357
  20        3S         -0.01816  -0.00220  -0.00826  -0.02313   0.01562
  21        4PX         0.10054   0.35237   0.00695  -0.08645   0.02183
  22        4PY        -0.13827   0.20190  -0.19485   0.08387  -0.08342
  23        4PZ         0.00000   0.00000   0.00000   0.00000   0.00000
  24        5PX         0.05486   0.18363   0.01329  -0.05178   0.00855
  25        5PY        -0.07543   0.10010  -0.11349   0.04576  -0.05021
  26        5PZ         0.00000   0.00000   0.00000   0.00000   0.00000
  27 4   F  1S          0.01148  -0.01155   0.00751   0.00184  -0.00508
  28        2S         -0.03281   0.03779  -0.02456  -0.00827   0.02283
  29        3S         -0.01824   0.00719  -0.00469   0.00948  -0.02621
  30        4PX        -0.16254   0.06300  -0.19503  -0.05774   0.12443
  31        4PY         0.05247  -0.26023  -0.30488  -0.01912  -0.05358
  32        4PZ         0.00000   0.00000   0.00000   0.00000   0.00000
  33        5PX        -0.08864   0.04602  -0.10907  -0.03446   0.07011
  34        5PY         0.02865  -0.13811  -0.15373  -0.01600  -0.03235
  35        5PZ         0.00000   0.00000   0.00000   0.00000   0.00000
  36 5   F  1S          0.01147  -0.01072  -0.00866   0.00150   0.00520
  37        2S         -0.03278   0.03508   0.02831  -0.00673  -0.02334
  38        3S         -0.01825   0.00667   0.00541   0.00770   0.02679
  39        4PX         0.16238  -0.04287  -0.20049   0.04935   0.12812
  40        4PY         0.05274  -0.28988   0.27685  -0.02282   0.05222
  41        4PZ         0.00000   0.00000   0.00000   0.00000   0.00000
  42        5PX         0.08855  -0.03471  -0.11323   0.02973   0.07232
  43        5PY         0.02878  -0.15303   0.13890  -0.01821   0.03122
  44        5PZ         0.00000   0.00000   0.00000   0.00000   0.00000
  45 6   F  1S         -0.01936   0.00001   0.00001  -0.00002   0.00000
  46        2S          0.06424  -0.00003  -0.00004   0.00006   0.00001
  47        3S          0.00268   0.00000   0.00000   0.00000   0.00000
  48        4PX        -0.00014   0.00003   0.00057  -0.01720   0.51556
  49        4PY        -0.00098  -0.00067   0.00006   0.51556   0.01720
  50        4PZ         0.44851  -0.00022  -0.00026   0.00090   0.00017
  51        5PX        -0.00007   0.00002   0.00027  -0.00784   0.23488
  52        5PY        -0.00046  -0.00031   0.00003   0.23488   0.00784
  53        5PZ         0.24685  -0.00012  -0.00014   0.00047   0.00008
  54 7   F  1S         -0.01936   0.00001   0.00001  -0.00002   0.00000
  55        2S          0.06424  -0.00003  -0.00004   0.00006   0.00001
  56        3S          0.00268   0.00000   0.00000   0.00000   0.00000
  57        4PX        -0.00014   0.00003   0.00057  -0.01720   0.51556
  58        4PY        -0.00098  -0.00067   0.00006   0.51556   0.01720
  59        4PZ        -0.44851   0.00022   0.00026  -0.00090  -0.00017
  60        5PX        -0.00007   0.00002   0.00027  -0.00784   0.23488
  61        5PY        -0.00046  -0.00031   0.00003   0.23488   0.00784
  62        5PZ        -0.24685   0.00012   0.00014  -0.00047  -0.00008
  63 8   F  1S          0.01149   0.01375   0.00070   0.00542   0.00018
  64        2S         -0.03283  -0.04496  -0.00229  -0.02432  -0.00081
  65        3S         -0.01831  -0.00860  -0.00043   0.02784   0.00093
  66        4PX         0.00026  -0.02125   0.41725   0.00123  -0.03850
  67        4PY         0.17087   0.16684   0.00845   0.14369   0.00481
  68        4PZ         0.00000   0.00000   0.00000   0.00000   0.00000
  69        5PX         0.00013  -0.01092   0.21435   0.00089  -0.02760
  70        5PY         0.09319   0.10280   0.00521   0.08166   0.00274
  71        5PZ         0.00000   0.00000   0.00000   0.00000   0.00000
                          26        27        28        29        30
                           O         O         O         O         O
     Eigenvalues --    -0.50660  -0.49239  -0.49238  -0.48703  -0.48703
   1 1   I  1S          0.00000   0.00000   0.00000   0.00000   0.00000
   2        2S          0.00000  -0.00001   0.00001   0.00000   0.00000
   3        3PX         0.00000  -0.00005  -0.00002   0.00000   0.00000
   4        3PY         0.00000   0.00003  -0.00005   0.00000   0.00000
   5        3PZ        -0.02697   0.00000   0.00000   0.00004  -0.00004
   6        4PX         0.00000   0.00006  -0.00002   0.00000   0.00000
   7        4PY         0.00000   0.00002   0.00004   0.00000   0.00000
   8        4PZ         0.18138   0.00000   0.00000  -0.00032   0.00016
   9 2   F  1S          0.00000   0.00930   0.00937   0.00000   0.00000
  10        2S          0.00000  -0.03266  -0.03294   0.00000   0.00000
  11        3S          0.00000   0.00308   0.00313   0.00000   0.00000
  12        4PX         0.00000  -0.28899  -0.08315   0.00000   0.00000
  13        4PY         0.00000  -0.17836  -0.33143   0.00000   0.00000
  14        4PZ         0.30539   0.00000   0.00000   0.18757  -0.38605
  15        5PX         0.00000  -0.15425  -0.04889   0.00000   0.00000
  16        5PY         0.00000  -0.09994  -0.17841   0.00000   0.00000
  17        5PZ         0.13585   0.00000   0.00000   0.09223  -0.18976
  18 3   F  1S          0.00000  -0.01303  -0.00212   0.00000   0.00000
  19        2S          0.00000   0.04578   0.00745   0.00000   0.00000
  20        3S          0.00000  -0.00434  -0.00072   0.00000   0.00000
  21        4PX         0.00000  -0.23515  -0.18709   0.00000   0.00000
  22        4PY         0.00000   0.37361  -0.04721   0.00000   0.00000
  23        4PZ         0.30535   0.00000   0.00000   0.42475   0.06194
  24        5PX         0.00000  -0.12920  -0.09723   0.00000   0.00000
  25        5PY         0.00000   0.20340  -0.02221   0.00000   0.00000
  26        5PZ         0.13583   0.00000   0.00000   0.20880   0.03042
  27 4   F  1S          0.00000  -0.00201  -0.01306   0.00000   0.00000
  28        2S          0.00000   0.00706   0.04588   0.00000   0.00000
  29        3S          0.00000  -0.00068  -0.00433   0.00000   0.00000
  30        4PX         0.00000   0.00914   0.42801   0.00000   0.00000
  31        4PY         0.00000  -0.19147  -0.11038   0.00000   0.00000
  32        4PZ         0.30449   0.00000   0.00000  -0.30882  -0.29577
  33        5PX         0.00000   0.00686   0.23340   0.00000   0.00000
  34        5PY         0.00000  -0.09877  -0.06115   0.00000   0.00000
  35        5PZ         0.13541   0.00000   0.00000  -0.15177  -0.14541
  36 5   F  1S          0.00000   0.01180  -0.00595   0.00000   0.00000
  37        2S          0.00000  -0.04145   0.02089   0.00000   0.00000
  38        3S          0.00000   0.00393  -0.00198   0.00000   0.00000
  39        4PX         0.00000   0.35379  -0.24112   0.00000   0.00000
  40        4PY         0.00000   0.20098   0.09198   0.00000   0.00000
  41        4PZ         0.30443   0.00000   0.00000   0.07086   0.42206
  42        5PX         0.00000   0.19402  -0.12996   0.00000   0.00000
  43        5PY         0.00000   0.10709   0.04499   0.00000   0.00000
  44        5PZ         0.13537   0.00000   0.00000   0.03487   0.20744
  45 6   F  1S         -0.00021   0.00000   0.00000  -0.00001   0.00001
  46        2S          0.01717   0.00000   0.00000   0.00000  -0.00001
  47        3S         -0.06730   0.00000   0.00000   0.00012  -0.00006
  48        4PX         0.00003   0.00012   0.00006   0.12635   0.23892
  49        4PY        -0.00069  -0.00008   0.00015  -0.23892   0.12634
  50        4PZ         0.22270  -0.00001   0.00002  -0.00051   0.00034
  51        5PX         0.00001   0.00006   0.00003   0.05172   0.09781
  52        5PY        -0.00032  -0.00004   0.00007  -0.09780   0.05172
  53        5PZ         0.12692  -0.00001   0.00001  -0.00026   0.00016
  54 7   F  1S          0.00021   0.00000   0.00000   0.00001  -0.00001
  55        2S         -0.01717   0.00000   0.00000   0.00000   0.00001
  56        3S          0.06730   0.00000   0.00000  -0.00012   0.00006
  57        4PX        -0.00003   0.00012   0.00006  -0.12635  -0.23892
  58        4PY         0.00069  -0.00008   0.00015   0.23892  -0.12634
  59        4PZ         0.22270   0.00001  -0.00002  -0.00051   0.00034
  60        5PX        -0.00001   0.00006   0.00003  -0.05172  -0.09781
  61        5PY         0.00032  -0.00004   0.00007   0.09780  -0.05172
  62        5PZ         0.12692   0.00001  -0.00001  -0.00026   0.00016
  63 8   F  1S          0.00000  -0.00606   0.01175   0.00000   0.00000
  64        2S          0.00000   0.02127  -0.04129   0.00000   0.00000
  65        3S          0.00000  -0.00199   0.00390   0.00000   0.00000
  66        4PX         0.00000   0.16140   0.08300   0.00000   0.00000
  67        4PY         0.00000  -0.20439   0.39684   0.00000   0.00000
  68        4PZ         0.30384   0.00000   0.00000  -0.37710   0.19928
  69        5PX         0.00000   0.08265   0.04252   0.00000   0.00000
  70        5PY         0.00000  -0.11160   0.21668   0.00000   0.00000
  71        5PZ         0.13508   0.00000   0.00000  -0.18534   0.09795
                          31        32        33        34        35
                           O         O         O         O         O
     Eigenvalues --    -0.48130  -0.48127  -0.46647  -0.46646  -0.43842
   1 1   I  1S          0.00000   0.00000   0.00001  -0.00001   0.00000
   2        2S          0.00000   0.00000   0.00001  -0.00002   0.00000
   3        3PX         0.00000   0.00000   0.01808  -0.06711   0.00000
   4        3PY         0.00000   0.00000  -0.06712  -0.01808  -0.00003
   5        3PZ         0.00000   0.00000   0.00000   0.00000   0.00000
   6        4PX         0.00000   0.00000  -0.02305   0.08561   0.00002
   7        4PY         0.00000   0.00000   0.08560   0.02306   0.00004
   8        4PZ         0.00000  -0.00001   0.00000   0.00000   0.00000
   9 2   F  1S          0.00000   0.00000   0.00282   0.00349   0.00000
  10        2S          0.00000   0.00000  -0.00465  -0.00576   0.00000
  11        3S          0.00000   0.00000  -0.02230  -0.02762  -0.00001
  12        4PX         0.00000   0.00000  -0.25827   0.30242  -0.29709
  13        4PY         0.00000   0.00000   0.28389  -0.10073   0.21596
  14        4PZ        -0.42191   0.24356   0.00000   0.00000   0.00000
  15        5PX         0.00000   0.00000  -0.11441   0.14112  -0.13174
  16        5PY         0.00000   0.00000   0.13310  -0.04074   0.09576
  17        5PZ        -0.20422   0.11789   0.00000   0.00000   0.00000
  18 3   F  1S          0.00000   0.00000   0.00419  -0.00160   0.00000
  19        2S          0.00000   0.00000  -0.00691   0.00264  -0.00001
  20        3S          0.00000   0.00000  -0.03316   0.01268  -0.00002
  21        4PX         0.00000   0.00000   0.07173   0.39139  -0.29706
  22        4PY         0.00000   0.00000   0.19489   0.22946  -0.21563
  23        4PZ         0.48467   0.04864   0.00000   0.00000   0.00000
  24        5PX         0.00000   0.00000   0.02820   0.17956  -0.13173
  25        5PY         0.00000   0.00000   0.09462   0.10196  -0.09562
  26        5PZ         0.23459   0.02354   0.00000   0.00000   0.00000
  27 4   F  1S          0.00000   0.00000  -0.00245   0.00376   0.00000
  28        2S          0.00000   0.00000   0.00403  -0.00619  -0.00001
  29        3S          0.00000   0.00000   0.01937  -0.02974   0.00000
  30        4PX         0.00000   0.00000   0.06093   0.18026   0.11366
  31        4PY         0.00000   0.00000   0.40604   0.21868   0.34951
  32        4PZ         0.19916  -0.44673   0.00000   0.00000   0.00000
  33        5PX         0.00000   0.00000   0.02353   0.08832   0.05040
  34        5PY         0.00000   0.00000   0.18591   0.09731   0.15499
  35        5PZ         0.09641  -0.21624   0.00000   0.00000   0.00000
  36 5   F  1S          0.00000   0.00000  -0.00023  -0.00448   0.00000
  37        2S          0.00000   0.00000   0.00037   0.00738   0.00001
  38        3S          0.00000   0.00000   0.00180   0.03544   0.00001
  39        4PX         0.00000   0.00000  -0.14318   0.12501   0.11340
  40        4PY         0.00000   0.00000   0.46118   0.01504  -0.34917
  41        4PZ        -0.36521  -0.32481   0.00000   0.00000   0.00000
  42        5PX         0.00000   0.00000  -0.06469   0.06442   0.05029
  43        5PY         0.00000   0.00000   0.20973   0.00931  -0.15484
  44        5PZ        -0.17679  -0.15722   0.00000   0.00000   0.00000
  45 6   F  1S          0.00000   0.00000   0.00000   0.00000   0.00000
  46        2S          0.00000   0.00000   0.00000   0.00000   0.00000
  47        3S          0.00000   0.00000   0.00001   0.00001   0.00000
  48        4PX        -0.00114   0.00029  -0.00043   0.00158   0.00000
  49        4PY         0.00026   0.00130   0.00159   0.00043   0.00000
  50        4PZ         0.00000   0.00001   0.00004   0.00000   0.00000
  51        5PX        -0.00047   0.00011   0.00223  -0.00829   0.00000
  52        5PY         0.00010   0.00053  -0.00828  -0.00223  -0.00001
  53        5PZ         0.00000   0.00000   0.00002   0.00000   0.00000
  54 7   F  1S          0.00000   0.00000   0.00000   0.00000   0.00000
  55        2S          0.00000   0.00000   0.00000   0.00000   0.00000
  56        3S          0.00000   0.00000   0.00001   0.00001   0.00000
  57        4PX         0.00114  -0.00029  -0.00043   0.00158   0.00000
  58        4PY        -0.00026  -0.00130   0.00159   0.00043   0.00000
  59        4PZ         0.00000   0.00001  -0.00004   0.00000   0.00000
  60        5PX         0.00047  -0.00011   0.00223  -0.00829   0.00000
  61        5PY        -0.00010  -0.00053  -0.00828  -0.00223  -0.00001
  62        5PZ         0.00000   0.00000  -0.00002   0.00000   0.00000
  63 8   F  1S          0.00000   0.00000  -0.00432  -0.00117   0.00000
  64        2S          0.00000   0.00000   0.00712   0.00192   0.00001
  65        3S          0.00000   0.00000   0.03426   0.00924   0.00002
  66        4PX         0.00000   0.00000  -0.12595   0.46661   0.36746
  67        4PY         0.00000   0.00000   0.11965   0.03231   0.00001
  68        4PZ         0.10331   0.47943   0.00000   0.00000   0.00000
  69        5PX         0.00000   0.00000  -0.05725   0.21209   0.16296
  70        5PY         0.00000   0.00000   0.06213   0.01678   0.00001
  71        5PZ         0.05002   0.23209   0.00000   0.00000   0.00000
                          36        37        38        39        40
                           V         V         V         V         V
     Eigenvalues --    -0.33371  -0.17753  -0.15190  -0.15190   0.29450
   1 1   I  1S          0.27432   0.00000  -0.00011  -0.00011   0.00000
   2        2S          0.64740   0.00000  -0.00027  -0.00026   0.00000
   3        3PX         0.00006   0.00000   0.70286  -0.32475   0.00000
   4        3PY         0.00021   0.00000   0.32475   0.70289   0.00000
   5        3PZ         0.00000   0.75973   0.00000   0.00000  -1.12403
   6        4PX         0.00001   0.00000   0.43243  -0.19980   0.00000
   7        4PY         0.00009   0.00000   0.19978   0.43240   0.00000
   8        4PZ         0.00000   0.47295   0.00000   0.00000   1.94424
   9 2   F  1S          0.00783   0.00000   0.03326   0.01858   0.00000
  10        2S         -0.00759   0.00000  -0.06969  -0.03893   0.00000
  11        3S         -0.07622   0.00000  -0.19994  -0.11169   0.00000
  12        4PX         0.16906   0.00000   0.15416   0.16678   0.00000
  13        4PY         0.23260   0.00000   0.28437   0.10021   0.00000
  14        4PZ         0.00000  -0.13875   0.00000   0.00000  -0.13603
  15        5PX         0.10104   0.00000   0.09445   0.11148   0.00000
  16        5PY         0.13901   0.00000   0.18254   0.05929   0.00000
  17        5PZ         0.00000  -0.07827   0.00000   0.00000  -0.06772
  18 3   F  1S          0.00782   0.00000  -0.00740   0.03738   0.00000
  19        2S         -0.00759   0.00000   0.01551  -0.07832   0.00000
  20        3S         -0.07622   0.00000   0.04446  -0.22472   0.00000
  21        4PX        -0.16891   0.00000  -0.02723  -0.22536   0.00000
  22        4PY         0.23264   0.00000  -0.10791   0.28169   0.00000
  23        4PZ         0.00000  -0.13874   0.00000   0.00000  -0.13597
  24        5PX        -0.10095   0.00000  -0.02377  -0.14410   0.00000
  25        5PY         0.13904   0.00000  -0.07310   0.17757   0.00000
  26        5PZ         0.00000  -0.07828   0.00000   0.00000  -0.06778
  27 4   F  1S          0.00782   0.00000   0.02795  -0.02590   0.00000
  28        2S         -0.00757   0.00000  -0.05855   0.05426   0.00000
  29        3S         -0.07617   0.00000  -0.16805   0.15570   0.00000
  30        4PX         0.27332   0.00000   0.23799  -0.25723   0.00000
  31        4PY        -0.08889   0.00000  -0.13959   0.01644   0.00000
  32        4PZ         0.00000  -0.13867   0.00000   0.00000  -0.13580
  33        5PX         0.16335   0.00000   0.14911  -0.16487   0.00000
  34        5PY        -0.05312   0.00000  -0.09376   0.00469   0.00000
  35        5PZ         0.00000  -0.07828   0.00000   0.00000  -0.06791
  36 5   F  1S          0.00781   0.00000  -0.03785   0.00452   0.00000
  37        2S         -0.00757   0.00000   0.07928  -0.00945   0.00000
  38        3S         -0.07617   0.00000   0.22755  -0.02717   0.00000
  39        4PX        -0.27327   0.00000   0.35025  -0.01469   0.00000
  40        4PY        -0.08874   0.00000   0.10283  -0.09571   0.00000
  41        4PZ         0.00000  -0.13865   0.00000   0.00000  -0.13570
  42        5PX        -0.16332   0.00000   0.22228  -0.00681   0.00000
  43        5PY        -0.05304   0.00000   0.06424  -0.06840   0.00000
  44        5PZ         0.00000  -0.07830   0.00000   0.00000  -0.06799
  45 6   F  1S          0.01238   0.04220  -0.00002  -0.00002   0.03876
  46        2S         -0.02106  -0.08983   0.00003   0.00003  -0.07427
  47        3S         -0.08909  -0.25196   0.00012   0.00015  -0.48912
  48        4PX        -0.00007  -0.00009  -0.12789   0.05909  -0.00005
  49        4PY        -0.00029  -0.00036  -0.05909  -0.12789  -0.00022
  50        4PZ         0.28702   0.38306  -0.00019  -0.00021  -0.17888
  51        5PX        -0.00004  -0.00004  -0.06631   0.03064   0.00001
  52        5PY        -0.00014  -0.00014  -0.03064  -0.06631   0.00007
  53        5PZ         0.16552   0.24393  -0.00014  -0.00017   0.20670
  54 7   F  1S          0.01238  -0.04220  -0.00002  -0.00002  -0.03876
  55        2S         -0.02106   0.08983   0.00003   0.00003   0.07427
  56        3S         -0.08909   0.25196   0.00012   0.00015   0.48912
  57        4PX        -0.00007   0.00009  -0.12789   0.05909   0.00005
  58        4PY        -0.00029   0.00036  -0.05909  -0.12789   0.00022
  59        4PZ        -0.28702   0.38306   0.00019   0.00021  -0.17888
  60        5PX        -0.00004   0.00004  -0.06631   0.03064  -0.00001
  61        5PY        -0.00014   0.00014  -0.03064  -0.06631  -0.00007
  62        5PZ        -0.16552   0.24393   0.00014   0.00017   0.20670
  63 8   F  1S          0.00781   0.00000  -0.01599  -0.03460   0.00000
  64        2S         -0.00756   0.00000   0.03350   0.07247   0.00000
  65        3S         -0.07613   0.00000   0.09615   0.20801   0.00000
  66        4PX        -0.00003   0.00000  -0.07905   0.03657   0.00000
  67        4PY        -0.28727   0.00000   0.15423   0.33358   0.00000
  68        4PZ         0.00000  -0.13859   0.00000   0.00000  -0.13557
  69        5PX        -0.00002   0.00000  -0.05755   0.02662   0.00000
  70        5PY        -0.17169   0.00000   0.09774   0.21141   0.00000
  71        5PZ         0.00000  -0.07830   0.00000   0.00000  -0.06811
                          41        42        43        44        45
                           V         V         V         V         V
     Eigenvalues --     0.31279   0.31280   0.51763   0.51765   0.60455
   1 1   I  1S         -0.00002  -0.00007   0.00000   0.00000   0.00000
   2        2S         -0.00007  -0.00018   0.00000   0.00000   0.00001
   3        3PX        -1.08889   0.08407   0.00000   0.00000  -0.00003
   4        3PY        -0.08408  -1.08885   0.00000   0.00000   0.00000
   5        3PZ         0.00000   0.00000   0.00065   0.00021   0.00000
   6        4PX         2.12888  -0.16439   0.00000   0.00000  -0.00026
   7        4PY         0.16436   2.12888   0.00000   0.00000  -0.00036
   8        4PZ         0.00000   0.00000  -0.00074  -0.00018   0.00000
   9 2   F  1S          0.02809   0.03298   0.00000   0.00000  -0.01828
  10        2S         -0.04903  -0.05754   0.00000   0.00000   0.13128
  11        3S         -0.35202  -0.41326   0.00000   0.00000  -0.09324
  12        4PX        -0.12450  -0.01501   0.00000   0.00000  -0.11276
  13        4PY        -0.03512  -0.13659   0.00000   0.00000  -0.05824
  14        4PZ         0.00000   0.00000  -0.30154  -0.25695   0.00000
  15        5PX         0.04391   0.16021   0.00000   0.00000   0.11174
  16        5PY         0.17318   0.12435   0.00000   0.00000   0.05635
  17        5PZ         0.00000   0.00000   0.32170   0.27410   0.00000
  18 3   F  1S         -0.02268   0.03691   0.00000   0.00000   0.01363
  19        2S          0.03960  -0.06440   0.00000   0.00000  -0.09796
  20        3S          0.28419  -0.46256   0.00000   0.00000   0.06973
  21        4PX        -0.12070   0.03396   0.00000   0.00000   0.24383
  22        4PY         0.01373  -0.14040   0.00000   0.00000   0.28176
  23        4PZ         0.00000   0.00000  -0.33754   0.20766   0.00000
  24        5PX         0.01863  -0.16498   0.00000   0.00000  -0.24631
  25        5PY        -0.15198   0.14960   0.00000   0.00000  -0.28173
  26        5PZ         0.00000   0.00000   0.36009  -0.22149   0.00000
  27 4   F  1S          0.04005  -0.01653   0.00000   0.00000   0.01590
  28        2S         -0.06986   0.02885   0.00000   0.00000  -0.11428
  29        3S         -0.50187   0.20709   0.00000   0.00000   0.08134
  30        4PX        -0.15018   0.02677   0.00000   0.00000   0.17769
  31        4PY         0.00664  -0.11090   0.00000   0.00000   0.22679
  32        4PZ         0.00000   0.00000   0.15143  -0.36648   0.00000
  33        5PX         0.21466  -0.11771   0.00000   0.00000  -0.17650
  34        5PY        -0.10472  -0.04643   0.00000   0.00000  -0.22872
  35        5PZ         0.00000   0.00000  -0.16144   0.39085   0.00000
  36 5   F  1S         -0.04211  -0.01017   0.00000   0.00000  -0.00379
  37        2S          0.07347   0.01776   0.00000   0.00000   0.02728
  38        3S          0.52780   0.12738   0.00000   0.00000  -0.01953
  39        4PX        -0.15254  -0.00338   0.00000   0.00000   0.18620
  40        4PY        -0.02359  -0.10858   0.00000   0.00000  -0.49680
  41        4PZ         0.00000   0.00000   0.09333   0.38563   0.00000
  42        5PX         0.23023   0.08324   0.00000   0.00000  -0.18681
  43        5PY         0.09624  -0.06204   0.00000   0.00000   0.49974
  44        5PZ         0.00000   0.00000  -0.09947  -0.41124   0.00000
  45 6   F  1S         -0.00001  -0.00002  -0.00005  -0.00002   0.00000
  46        2S         -0.00001  -0.00001   0.00034   0.00011   0.00000
  47        3S          0.00011   0.00033  -0.00009  -0.00005   0.00000
  48        4PX        -0.17565   0.01356   0.03288  -0.42643  -0.00023
  49        4PY        -0.01356  -0.17569  -0.42645  -0.03289  -0.00014
  50        4PZ         0.00002   0.00004  -0.00033  -0.00011   0.00000
  51        5PX        -0.05242   0.00405  -0.03640   0.47212   0.00030
  52        5PY        -0.00404  -0.05238   0.47215   0.03641   0.00020
  53        5PZ        -0.00007  -0.00020   0.00037   0.00013   0.00000
  54 7   F  1S         -0.00001  -0.00002   0.00005   0.00002   0.00000
  55        2S         -0.00001  -0.00001  -0.00034  -0.00011   0.00000
  56        3S          0.00011   0.00033   0.00009   0.00005   0.00000
  57        4PX        -0.17565   0.01356  -0.03288   0.42643  -0.00023
  58        4PY        -0.01356  -0.17569   0.42645   0.03289  -0.00014
  59        4PZ        -0.00002  -0.00004  -0.00033  -0.00011   0.00000
  60        5PX        -0.05242   0.00405   0.03640  -0.47212   0.00030
  61        5PY        -0.00404  -0.05238  -0.47215  -0.03641   0.00020
  62        5PZ         0.00007   0.00020   0.00037   0.00013   0.00000
  63 8   F  1S         -0.00334  -0.04320   0.00000   0.00000  -0.00746
  64        2S          0.00584   0.07535   0.00000   0.00000   0.05368
  65        3S          0.04186   0.54135   0.00000   0.00000  -0.03832
  66        4PX        -0.10481   0.00807   0.00000   0.00000  -0.49475
  67        4PY        -0.01206  -0.15624   0.00000   0.00000   0.04660
  68        4PZ         0.00000   0.00000   0.39568   0.03061   0.00000
  69        5PX        -0.08691   0.00676   0.00000   0.00000   0.49751
  70        5PY         0.01974   0.25511   0.00000   0.00000  -0.04586
  71        5PZ         0.00000   0.00000  -0.42185  -0.03263   0.00000
                          46        47        48        49        50
                           V         V         V         V         V
     Eigenvalues --     0.60460   0.76003   0.76319   0.76321   0.77934
   1 1   I  1S         -0.00001   0.00000   0.00042   0.00007   0.19772
   2        2S         -0.00004   0.00000   0.00171   0.00031   0.83678
   3        3PX         0.00002   0.00000  -0.00304  -0.26878  -0.00013
   4        3PY         0.00001   0.00000  -0.26871   0.00305  -0.00004
   5        3PZ         0.00000   0.37842   0.00000   0.00000   0.00000
   6        4PX         0.00025   0.00000  -0.00457  -0.40345  -0.00001
   7        4PY        -0.00036   0.00000  -0.40361   0.00458   0.00017
   8        4PZ         0.00000   0.62696   0.00000   0.00000   0.00000
   9 2   F  1S          0.00192   0.00000  -0.02654  -0.01883   0.01040
  10        2S         -0.01385   0.00000   0.13889   0.09851  -0.03785
  11        3S          0.00991   0.00000   0.01895   0.01357  -0.05348
  12        4PX        -0.42881   0.00000   0.04335   0.18389  -0.09230
  13        4PY         0.32654   0.00000   0.21128   0.03904  -0.12734
  14        4PZ         0.00000   0.24773   0.00000   0.00000   0.00000
  15        5PX         0.43129   0.00000  -0.12187  -0.28351   0.17206
  16        5PY        -0.32813   0.00000  -0.36272  -0.11483   0.23725
  17        5PZ         0.00000  -0.37793   0.00000   0.00000   0.00000
  18 3   F  1S         -0.01232   0.00000  -0.02611   0.01941   0.01039
  19        2S          0.08844   0.00000   0.13664  -0.10148  -0.03776
  20        3S         -0.06275   0.00000   0.01869  -0.01413  -0.05358
  21        4PX         0.37047   0.00000  -0.03921   0.18506   0.09210
  22        4PY         0.17465   0.00000   0.21040  -0.04395  -0.12751
  23        4PZ         0.00000   0.24760   0.00000   0.00000   0.00000
  24        5PX        -0.37139   0.00000   0.11545  -0.28645  -0.17177
  25        5PY        -0.17714   0.00000  -0.36017   0.12323   0.23753
  26        5PZ         0.00000  -0.37776   0.00000   0.00000   0.00000
  27 4   F  1S          0.00919   0.00000   0.00970  -0.03103   0.01033
  28        2S         -0.06596   0.00000  -0.05059   0.16227  -0.03738
  29        3S          0.04681   0.00000  -0.00735   0.02256  -0.05376
  30        4PX        -0.09094   0.00000  -0.02344   0.23324  -0.14943
  31        4PY        -0.46397   0.00000   0.16273  -0.02765   0.04803
  32        4PZ         0.00000   0.24706   0.00000   0.00000   0.00000
  33        5PX         0.09278   0.00000   0.06948  -0.42530   0.27842
  34        5PY         0.46612   0.00000  -0.22201   0.07627  -0.08975
  35        5PZ         0.00000  -0.37700   0.00000   0.00000   0.00000
  36 5   F  1S          0.01796   0.00000   0.01038   0.03080   0.01031
  37        2S         -0.12906   0.00000  -0.05417  -0.16098  -0.03724
  38        3S          0.09187   0.00000  -0.00789  -0.02258  -0.05391
  39        4PX        -0.07154   0.00000   0.02869   0.23301   0.14941
  40        4PY        -0.14122   0.00000   0.16339   0.02395   0.04804
  41        4PZ         0.00000   0.24680   0.00000   0.00000   0.00000
  42        5PX         0.06949   0.00000  -0.07904  -0.42416  -0.27845
  43        5PY         0.14123   0.00000  -0.22373  -0.07121  -0.08974
  44        5PZ         0.00000  -0.37665   0.00000   0.00000   0.00000
  45 6   F  1S          0.00000   0.04186   0.00005   0.00001   0.02002
  46        2S          0.00001  -0.19761  -0.00023  -0.00005  -0.08039
  47        3S          0.00000  -0.09733  -0.00011  -0.00001  -0.05635
  48        4PX         0.00018   0.00002  -0.00550  -0.48456   0.00014
  49        4PY        -0.00020  -0.00005  -0.48456   0.00549   0.00093
  50        4PZ        -0.00001  -0.40941  -0.00078  -0.00004  -0.54193
  51        5PX        -0.00023  -0.00008   0.00777   0.68534  -0.00021
  52        5PY         0.00027  -0.00011   0.68536  -0.00777  -0.00132
  53        5PZ         0.00000   0.74418   0.00136   0.00011   0.84776
  54 7   F  1S          0.00000  -0.04186   0.00005   0.00001   0.02002
  55        2S          0.00001   0.19761  -0.00023  -0.00005  -0.08039
  56        3S          0.00000   0.09733  -0.00011  -0.00001  -0.05635
  57        4PX         0.00018  -0.00002  -0.00550  -0.48456   0.00014
  58        4PY        -0.00020   0.00005  -0.48456   0.00549   0.00093
  59        4PZ         0.00001  -0.40941   0.00078   0.00004   0.54193
  60        5PX        -0.00023   0.00008   0.00777   0.68534  -0.00021
  61        5PY         0.00027   0.00011   0.68536  -0.00777  -0.00132
  62        5PZ         0.00000   0.74418  -0.00136  -0.00011  -0.84776
  63 8   F  1S         -0.01676   0.00000   0.03249  -0.00036   0.01028
  64        2S          0.12045   0.00000  -0.16971   0.00193  -0.03702
  65        3S         -0.08579   0.00000  -0.02414   0.00022  -0.05402
  66        4PX         0.22069   0.00000   0.00182   0.15471  -0.00009
  67        4PY         0.10422   0.00000   0.24210  -0.00262   0.15685
  68        4PZ         0.00000   0.24662   0.00000   0.00000   0.00000
  69        5PX        -0.22192   0.00000  -0.00236  -0.19889   0.00012
  70        5PY        -0.10242   0.00000  -0.44960   0.00489  -0.29233
  71        5PZ         0.00000  -0.37638   0.00000   0.00000   0.00000
                          51        52        53        54        55
                           V         V         V         V         V
     Eigenvalues --     0.80748   0.81500   0.81505   0.82460   0.82461
   1 1   I  1S         -0.11177   0.00000   0.00000  -0.00002   0.00001
   2        2S         -0.43934   0.00000   0.00000  -0.00007   0.00007
   3        3PX        -0.00016   0.00000   0.00000  -0.00010  -0.00004
   4        3PY        -0.00083   0.00000   0.00000   0.00005  -0.00029
   5        3PZ         0.00000   0.00003   0.00003   0.00000   0.00000
   6        4PX        -0.00006   0.00000   0.00000   0.00027   0.00003
   7        4PY        -0.00022   0.00000   0.00000  -0.00003   0.00013
   8        4PZ         0.00000   0.00003   0.00006   0.00000   0.00000
   9 2   F  1S         -0.00202   0.00000   0.00000  -0.01822  -0.01441
  10        2S         -0.00776   0.00000   0.00000   0.10756   0.08509
  11        3S          0.04729   0.00000   0.00000  -0.05010  -0.03963
  12        4PX         0.20985   0.00000   0.00000   0.29475   0.14708
  13        4PY         0.28855   0.00000   0.00000   0.31731   0.31373
  14        4PZ         0.00000   0.45815  -0.30750   0.00000   0.00000
  15        5PX        -0.29422   0.00000   0.00000  -0.43749  -0.20160
  16        5PY        -0.40461   0.00000   0.00000  -0.45383  -0.46425
  17        5PZ         0.00000  -0.61868   0.41524   0.00000   0.00000
  18 3   F  1S         -0.00202   0.00000   0.00000   0.02321   0.00095
  19        2S         -0.00781   0.00000   0.00000  -0.13699  -0.00560
  20        3S          0.04730   0.00000   0.00000   0.06381   0.00258
  21        4PX        -0.20962   0.00000   0.00000   0.31913   0.08058
  22        4PY         0.28869   0.00000   0.00000  -0.44517   0.03091
  23        4PZ         0.00000  -0.55114  -0.02130   0.00000   0.00000
  24        5PX         0.29387   0.00000   0.00000  -0.46280  -0.13229
  25        5PY        -0.40479   0.00000   0.00000   0.64680  -0.05598
  26        5PZ         0.00000   0.74425   0.02874   0.00000   0.00000
  27 4   F  1S         -0.00201   0.00000   0.00000   0.00626   0.02237
  28        2S         -0.00779   0.00000   0.00000  -0.03696  -0.13202
  29        3S          0.04719   0.00000   0.00000   0.01714   0.06145
  30        4PX         0.33891   0.00000   0.00000  -0.11569  -0.50905
  31        4PY        -0.11022   0.00000   0.00000   0.12216   0.14176
  32        4PZ         0.00000  -0.18927   0.51761   0.00000   0.00000
  33        5PX        -0.47508   0.00000   0.00000   0.16238   0.74069
  34        5PY         0.15448   0.00000   0.00000  -0.19466  -0.20102
  35        5PZ         0.00000   0.25558  -0.69894   0.00000   0.00000
  36 5   F  1S         -0.00200   0.00000   0.00000  -0.01932   0.01286
  37        2S         -0.00787   0.00000   0.00000   0.11404  -0.07593
  38        3S          0.04720   0.00000   0.00000  -0.05300   0.03535
  39        4PX        -0.33875   0.00000   0.00000  -0.41974   0.31045
  40        4PY        -0.11007   0.00000   0.00000  -0.18487   0.02775
  41        4PZ         0.00000   0.43275   0.34075   0.00000   0.00000
  42        5PX         0.47483   0.00000   0.00000   0.60620  -0.45560
  43        5PY         0.15426   0.00000   0.00000   0.27838  -0.02539
  44        5PZ         0.00000  -0.58435  -0.46013   0.00000   0.00000
  45 6   F  1S         -0.00516   0.00000   0.00001   0.00000   0.00000
  46        2S          0.02935  -0.00002  -0.00004   0.00001  -0.00001
  47        3S          0.01498   0.00000   0.00001   0.00000   0.00000
  48        4PX        -0.00011  -0.00062   0.00006   0.00005   0.00003
  49        4PY        -0.00022   0.00005   0.00069  -0.00002   0.00005
  50        4PZ        -0.29954  -0.00003  -0.00004   0.00000  -0.00002
  51        5PX         0.00018   0.00080  -0.00008  -0.00006  -0.00004
  52        5PY         0.00042  -0.00007  -0.00091   0.00002  -0.00003
  53        5PZ         0.34996   0.00005   0.00008  -0.00001   0.00004
  54 7   F  1S         -0.00516   0.00000  -0.00001   0.00000   0.00000
  55        2S          0.02935   0.00002   0.00004   0.00001  -0.00001
  56        3S          0.01498   0.00000  -0.00001   0.00000   0.00000
  57        4PX        -0.00011   0.00062  -0.00006   0.00005   0.00003
  58        4PY        -0.00022  -0.00005  -0.00069  -0.00002   0.00005
  59        4PZ         0.29954  -0.00003  -0.00004   0.00000   0.00002
  60        5PX         0.00018  -0.00080   0.00008  -0.00006  -0.00004
  61        5PY         0.00042   0.00007   0.00091   0.00002  -0.00003
  62        5PZ        -0.34996   0.00005   0.00008   0.00001  -0.00004
  63 8   F  1S         -0.00199   0.00000   0.00000   0.00807  -0.02176
  64        2S         -0.00787   0.00000   0.00000  -0.04765   0.12843
  65        3S          0.04714   0.00000   0.00000   0.02218  -0.05975
  66        4PX         0.00000   0.00000   0.00000  -0.07814  -0.02914
  67        4PY        -0.35605   0.00000   0.00000   0.19060  -0.51378
  68        4PZ         0.00000  -0.15044  -0.52948   0.00000   0.00000
  69        5PX        -0.00002   0.00000   0.00000   0.13110   0.04889
  70        5PY         0.49899   0.00000   0.00000  -0.27672   0.74593
  71        5PZ         0.00000   0.20313   0.71495   0.00000   0.00000
                          56        57        58        59        60
                           V         V         V         V         V
     Eigenvalues --     0.86004   0.86004   0.91338   0.91339   1.04025
   1 1   I  1S         -0.00001  -0.00003   0.00000   0.00000   0.00000
   2        2S          0.00008  -0.00006   0.00000   0.00000   0.00000
   3        3PX         0.09601  -0.49912   0.00000   0.00000   0.00000
   4        3PY         0.49910   0.09599   0.00000   0.00000   0.00000
   5        3PZ         0.00000   0.00000  -0.00229  -0.00065  -0.94829
   6        4PX         0.05508  -0.28637   0.00000   0.00000   0.00000
   7        4PY         0.28640   0.05510   0.00000   0.00000   0.00000
   8        4PZ         0.00000   0.00000   0.00145   0.00045   1.19768
   9 2   F  1S          0.00296  -0.00139   0.00000   0.00000   0.00000
  10        2S          0.03335  -0.01562   0.00000   0.00000   0.00000
  11        3S         -0.13279   0.06226   0.00000   0.00000   0.00000
  12        4PX        -0.32639  -0.20074   0.00000   0.00000   0.00000
  13        4PY        -0.16297   0.33377   0.00000   0.00000   0.00000
  14        4PZ         0.00000   0.00000   0.30625   0.23587   0.26381
  15        5PX         0.50807   0.25677   0.00000   0.00000   0.00000
  16        5PY         0.29877  -0.50019   0.00000   0.00000   0.00000
  17        5PZ         0.00000   0.00000  -0.43006  -0.33119  -0.47831
  18 3   F  1S          0.00224   0.00239   0.00000   0.00000   0.00000
  19        2S          0.02512   0.02683   0.00000   0.00000   0.00000
  20        3S         -0.10024  -0.10701   0.00000   0.00000   0.00000
  21        4PX         0.37758  -0.06571   0.00000   0.00000   0.00000
  22        4PY        -0.02786  -0.37034   0.00000   0.00000   0.00000
  23        4PZ         0.00000   0.00000   0.31985  -0.21733   0.26405
  24        5PX        -0.56709   0.05056   0.00000   0.00000   0.00000
  25        5PY         0.09244   0.57524   0.00000   0.00000   0.00000
  26        5PZ         0.00000   0.00000  -0.44918   0.30512  -0.47868
  27 4   F  1S         -0.00040  -0.00326   0.00000   0.00000   0.00000
  28        2S         -0.00460  -0.03644   0.00000   0.00000   0.00000
  29        3S          0.01819   0.14547   0.00000   0.00000   0.00000
  30        4PX         0.16369   0.32247   0.00000   0.00000   0.00000
  31        4PY         0.36013  -0.15646   0.00000   0.00000   0.00000
  32        4PZ         0.00000   0.00000  -0.12909   0.36497   0.26464
  33        5PX        -0.24038  -0.54236   0.00000   0.00000   0.00000
  34        5PY        -0.50019   0.24854   0.00000   0.00000   0.00000
  35        5PZ         0.00000   0.00000   0.18115  -0.51249  -0.47958
  36 5   F  1S         -0.00159   0.00289   0.00000   0.00000   0.00000
  37        2S         -0.01770   0.03204   0.00000   0.00000   0.00000
[...]
                                                    40(r)
    49. RY*(   1) F   4                  0.00230     1.37524   
    50. RY*(   2) F   4                  0.00028     0.80646   
    51. RY*(   3) F   4                  0.00014     0.87790   
    52. RY*(   4) F   4                  0.00011     1.07907   
       -------------------------------
              Total Lewis    9.46559  ( 99.9701%)
        Valence non-Lewis    0.00000  (  0.0000%)
        Rydberg non-Lewis    0.00283  (  0.0299%)
       -------------------------------
            Total unit  3    9.46842  (100.0000%)
           Charge unit  3   -0.46842

 Molecular unit  4  (F)
     9. CR (   1) F   7                  2.00000   -24.59762  71(r),70(r),69(r),11(r)
                                                    37(r)
    29. LP (   1) F   7                  1.99055    -1.38041  71(r),70(r),69(r),11(r)
                                                    37(r),40(r)
    30. LP (   2) F   7                  1.96949    -0.52567  11(r),69(r),70(r),71(r)
                                                    66(r)
    31. LP (   3) F   7                  1.96948    -0.52567  11(r),70(r),69(r),71(r)
                                                    50(r),54(r),38(r)
    32. LP (   4) F   7                  1.53457    -0.62032  70(r),69(r),11(r),71(r)
                                                    40(r),60(r)
    61. RY*(   1) F   7                  0.00219     1.41808   
    62. RY*(   2) F   7                  0.00044     0.82273   
    63. RY*(   3) F   7                  0.00044     0.82275   
    64. RY*(   4) F   7                  0.00010     1.04078   
       -------------------------------
              Total Lewis    9.46408  ( 99.9664%)
        Valence non-Lewis    0.00000  (  0.0000%)
        Rydberg non-Lewis    0.00318  (  0.0336%)
       -------------------------------
            Total unit  4    9.46726  (100.0000%)
           Charge unit  4   -0.46726

 Molecular unit  5  (F)
    10. CR (   1) F   8                  1.99999   -24.55898  11(r),70(r),69(r),71(r)
                                                    39(r),38(r)
    33. LP (   1) F   8                  1.98931    -1.36498  11(r),70(r),69(r),71(r)
                                                    39(r),38(r)
    34. LP (   2) F   8                  1.98448    -0.48717  11(r),70(r),69(r),71(r)
    35. LP (   3) F   8                  1.96425    -0.48989  71(r),11(r),69(r),70(r)
                                                    37(r),59(r),62(r)
    36. LP (   4) F   8                  1.52761    -0.55912  11(r),70(r),71(r),69(r)
                                                    40(r)
    65. RY*(   1) F   8                  0.00230     1.37519   
    66. RY*(   2) F   8                  0.00028     0.80653   
    67. RY*(   3) F   8                  0.00014     0.87786   
    68. RY*(   4) F   8                  0.00011     1.07918   
       -------------------------------
              Total Lewis    9.46565  ( 99.9701%)
        Valence non-Lewis    0.00000  (  0.0000%)
        Rydberg non-Lewis    0.00283  (  0.0299%)
       -------------------------------
            Total unit  5    9.46848  (100.0000%)
           Charge unit  5   -0.46848
   2 Symmetry operations used in ECPInt.
 ECPInt:  NShTT=     780 NPrTT=    6414 LenC2=     765 LenP2D=    3883.
 LDataN:  DoStor=T MaxTD1= 5 Len=  102
 Calling FoFJK, ICntrl=      2127 FMM=F ISym2X=1 I1Cent= 0 IOpClX= 0 NMat=1 NMatS=1 NMatT=0.
 Defaulting to unpruned grid for atomic number  53.
 Defaulting to unpruned grid for atomic number  53.
 Defaulting to unpruned grid for atomic number  53.
 Defaulting to unpruned grid for atomic number  53.
 ***** Axes restored to original set *****
 -------------------------------------------------------------------
 Center     Atomic                   Forces (Hartrees/Bohr)
 Number     Number              X              Y              Z
 -------------------------------------------------------------------
      1       53           0.000029272   -0.000030332    0.000000000
      2        9          -0.000011918   -0.000017647    0.000000000
      3        9          -0.000005728   -0.000011689    0.000000000
      4        9          -0.000032704    0.000036592    0.000000000
      5        9           0.000019567    0.000022756    0.000000000
      6        9           0.000009445   -0.000015641    0.000025109
      7        9           0.000009445   -0.000015641   -0.000025109
      8        9          -0.000017379    0.000031603    0.000000000
 -------------------------------------------------------------------
 Cartesian Forces:  Max     0.000036592 RMS     0.000019298

 GradGradGradGradGradGradGradGradGradGradGradGradGradGradGradGradGradGrad
 Berny optimization.
 Internal  Forces:  Max     0.000042413 RMS     0.000013445
 Search for a local minimum.
 Step number   1 out of a maximum of   67
 All quantities printed in internal units (Hartrees-Bohrs-Radians)
 Mixed Optimization -- En-DIIS/RFO-DIIS
 Second derivative matrix not updated -- first step.
     Eigenvalues ---    0.01351   0.01865   0.02237   0.09754   0.09757
     Eigenvalues ---    0.09757   0.09759   0.09969   0.18427   0.18428
     Eigenvalues ---    0.18430   0.18430   0.18433   0.21265   0.21265
     Eigenvalues ---    0.25000   0.25000   0.250001000.000001000.00000
     Eigenvalues --- 1000.000001000.000001000.000001000.000001000.00000
     Eigenvalues --- 1000.000001000.000001000.000001000.000001000.00000
     Eigenvalues --- 1000.000001000.000001000.000001000.000001000.00000
     Eigenvalues --- 1000.000001000.000001000.000001000.000001000.00000
     Eigenvalues --- 1000.000001000.000001000.000001000.000001000.00000
     Eigenvalues --- 1000.000001000.000001000.000001000.000001000.00000
     Eigenvalues --- 1000.000001000.000001000.000001000.000001000.00000
     Eigenvalues --- 1000.000001000.00000
 RFO step:  Lambda=-5.60964374D-08 EMin= 1.35083562D-02
 Linear search not attempted -- first point.
 Iteration  1 RMS(Cart)=  0.00010344 RMS(Int)=  0.00000001
 Iteration  2 RMS(Cart)=  0.00000001 RMS(Int)=  0.00000000
 ClnCor:  largest displacement from symmetrization is 1.79D-12 for atom     7.
 Variable       Old X    -DE/DX   Delta X   Delta X   Delta X     New X
                                 (Linear)    (Quad)   (Total)
    R1        3.76613  -0.00002   0.00000  -0.00012  -0.00012   3.76601
    R2        3.76599  -0.00001   0.00000  -0.00003  -0.00003   3.76596
    R3        3.76609  -0.00004   0.00000  -0.00023  -0.00023   3.76586
    R4        3.76589  -0.00003   0.00000  -0.00014  -0.00014   3.76575
    R5        3.66767   0.00003   0.00000   0.00012   0.00012   3.66779
    R6        3.66767   0.00003   0.00000   0.00012   0.00012   3.66779
    R7        3.76599  -0.00003   0.00000  -0.00017  -0.00017   3.76582
    A1        1.25645   0.00000   0.00000   0.00004   0.00004   1.25649
    A2        1.25659  -0.00001   0.00000  -0.00008  -0.00008   1.25651
    A3        2.51316   0.00000   0.00000  -0.00004  -0.00004   2.51311
    A4        1.57127   0.00002   0.00000   0.00004   0.00004   1.57132
    A5        1.57127   0.00002   0.00000   0.00004   0.00004   1.57132
    A6        2.51323   0.00002   0.00000   0.00005   0.00005   2.51328
    A7        2.51304   0.00000   0.00000  -0.00004  -0.00004   2.51300
    A8        1.25670  -0.00001   0.00000  -0.00008  -0.00008   1.25662
    A9        1.57113   0.00002   0.00000   0.00011   0.00011   1.57123
   A10        1.57113   0.00002   0.00000   0.00011   0.00011   1.57123
   A11        2.51350  -0.00002   0.00000  -0.00009  -0.00009   2.51341
   A12        2.51344   0.00001   0.00000   0.00012   0.00012   2.51356
   A13        1.57076  -0.00001   0.00000  -0.00008  -0.00008   1.57068
   A14        1.57076  -0.00001   0.00000  -0.00008  -0.00008   1.57068
   A15        1.25664   0.00002   0.00000   0.00013   0.00013   1.25677
   A16        1.57052   0.00000   0.00000   0.00002   0.00002   1.57055
   A17        1.57052   0.00000   0.00000   0.00002   0.00002   1.57055
   A18        1.25680  -0.00001   0.00000  -0.00001  -0.00001   1.25679
   A19        1.57030  -0.00002   0.00000  -0.00009  -0.00009   1.57020
   A20        1.57030  -0.00002   0.00000  -0.00009  -0.00009   1.57020
    D1        0.00000   0.00000   0.00000   0.00000   0.00000   0.00000
    D2        0.00000   0.00000   0.00000   0.00000   0.00000   0.00000
    D3        1.25645   0.00000   0.00000   0.00004   0.00004   1.25649
    D4       -1.25645   0.00000   0.00000  -0.00004  -0.00004  -1.25649
    D5        3.14159   0.00000   0.00000   0.00000   0.00000   3.14159
    D6        3.14159   0.00000   0.00000   0.00000   0.00000   3.14159
    D7       -1.25659   0.00001   0.00000   0.00008   0.00008  -1.25651
    D8        1.25659  -0.00001   0.00000  -0.00008  -0.00008   1.25651
    D9        0.00000   0.00000   0.00000   0.00000   0.00000   0.00000
   D10        2.51316   0.00000   0.00000  -0.00004  -0.00004   2.51311
   D11       -2.51316   0.00000   0.00000   0.00004   0.00004  -2.51311
   D12        3.14159   0.00000   0.00000   0.00000   0.00000   3.14159
   D13        1.57092  -0.00001   0.00000  -0.00005  -0.00005   1.57087
   D14       -1.57092   0.00001   0.00000   0.00005   0.00005  -1.57087
   D15        3.14159   0.00000   0.00000   0.00000   0.00000   3.14159
   D16       -2.51304   0.00000   0.00000   0.00004   0.00004  -2.51300
   D17        2.51304   0.00000   0.00000  -0.00004  -0.00004   2.51300
   D18        3.14159   0.00000   0.00000   0.00000   0.00000   3.14159
   D19        1.25670  -0.00001   0.00000  -0.00008  -0.00008   1.25662
   D20       -1.25670   0.00001   0.00000   0.00008   0.00008  -1.25662
   D21        0.00000   0.00000   0.00000   0.00000   0.00000   0.00000
   D22       -1.57067  -0.00001   0.00000  -0.00005  -0.00005  -1.57073
   D23        1.57067   0.00001   0.00000   0.00005   0.00005   1.57073
   D24       -2.51344  -0.00001   0.00000  -0.00012  -0.00012  -2.51356
   D25        2.51344   0.00001   0.00000   0.00012   0.00012   2.51356
   D26        3.14159   0.00000   0.00000   0.00000   0.00000   3.14159
   D27        1.57092  -0.00001   0.00000  -0.00005  -0.00005   1.57087
   D28       -1.57092   0.00001   0.00000   0.00005   0.00005  -1.57087
   D29       -1.57067  -0.00001   0.00000  -0.00005  -0.00005  -1.57073
   D30        1.57067   0.00001   0.00000   0.00005   0.00005   1.57073
         Item               Value     Threshold  Converged?
 Maximum Force            0.000042     0.000450     YES
 RMS     Force            0.000013     0.000300     YES
 Maximum Displacement     0.000349     0.001800     YES
 RMS     Displacement     0.000103     0.001200     YES
 Predicted change in Energy=-2.804853D-08
 Optimization completed.
    -- Stationary point found.
                           ----------------------------
                           !   Optimized Parameters   !
                           ! (Angstroms and Degrees)  !
 --------------------------                            --------------------------
 ! Name  Definition              Value          Derivative Info.                !
 --------------------------------------------------------------------------------
 ! R1    R(1,2)                  1.9929         -DE/DX =    0.0                 !
 ! R2    R(1,3)                  1.9929         -DE/DX =    0.0                 !
 ! R3    R(1,4)                  1.9929         -DE/DX =    0.0                 !
 ! R4    R(1,5)                  1.9928         -DE/DX =    0.0                 !
 ! R5    R(1,6)                  1.9408         -DE/DX =    0.0                 !
 ! R6    R(1,7)                  1.9408         -DE/DX =    0.0                 !
 ! R7    R(1,8)                  1.9929         -DE/DX =    0.0                 !
 ! A1    A(2,1,3)               71.9895         -DE/DX =    0.0                 !
 ! A2    A(2,1,4)               71.9972         -DE/DX =    0.0                 !
 ! A3    A(2,1,5)              143.9932         -DE/DX =    0.0                 !
 ! A4    A(2,1,6)               90.0274         -DE/DX =    0.0                 !
 ! A5    A(2,1,7)               90.0274         -DE/DX =    0.0                 !
 ! A6    A(2,1,8)              143.9976         -DE/DX =    0.0                 !
 ! A7    A(3,1,4)              143.9868         -DE/DX =    0.0                 !
 ! A8    A(3,1,5)               72.0037         -DE/DX =    0.0                 !
 ! A9    A(3,1,6)               90.019          -DE/DX =    0.0                 !
 ! A10   A(3,1,7)               90.019          -DE/DX =    0.0                 !
 ! A11   A(3,1,8)              144.0129         -DE/DX =    0.0                 !
 ! A12   A(4,1,5)              144.0095         -DE/DX =    0.0                 !
 ! A13   A(4,1,6)               89.9979         -DE/DX =    0.0                 !
 ! A14   A(4,1,7)               89.9979         -DE/DX =    0.0                 !
 ! A15   A(4,1,8)               72.0004         -DE/DX =    0.0                 !
 ! A16   A(5,1,6)               89.9844         -DE/DX =    0.0                 !
 ! A17   A(5,1,7)               89.9844         -DE/DX =    0.0                 !
 ! A18   A(5,1,8)               72.0092         -DE/DX =    0.0                 !
 ! A19   A(6,1,8)               89.9713         -DE/DX =    0.0                 !
 ! A20   A(7,1,8)               89.9713         -DE/DX =    0.0                 !
 ! D1    D(2,1,4,3)              0.0            -DE/DX =    0.0                 !
 ! D2    D(2,1,5,3)              0.0            -DE/DX =    0.0                 !
 ! D3    D(2,1,6,3)             71.9895         -DE/DX =    0.0                 !
 ! D4    D(2,1,7,3)            -71.9895         -DE/DX =    0.0                 !
 ! D5    D(2,1,8,3)            180.0            -DE/DX =    0.0                 !
 ! D6    D(2,1,5,4)            180.0            -DE/DX =    0.0                 !
 ! D7    D(2,1,6,4)            -71.9972         -DE/DX =    0.0                 !
 ! D8    D(2,1,7,4)             71.9972         -DE/DX =    0.0                 !
 ! D9    D(2,1,8,4)              0.0            -DE/DX =    0.0                 !
 ! D10   D(2,1,6,5)            143.9932         -DE/DX =    0.0                 !
 ! D11   D(2,1,7,5)           -143.9932         -DE/DX =    0.0                 !
 ! D12   D(2,1,8,5)            180.0            -DE/DX =    0.0                 !
 ! D13   D(2,1,8,6)             90.0071         -DE/DX =    0.0                 !
 ! D14   D(2,1,8,7)            -90.0071         -DE/DX =    0.0                 !
 ! D15   D(3,1,5,4)            180.0            -DE/DX =    0.0                 !
 ! D16   D(3,1,6,4)           -143.9868         -DE/DX =    0.0                 !
 ! D17   D(3,1,7,4)            143.9868         -DE/DX =    0.0                 !
 ! D18   D(3,1,8,4)            180.0            -DE/DX =    0.0                 !
 ! D19   D(3,1,6,5)             72.0037         -DE/DX =    0.0                 !
 ! D20   D(3,1,7,5)            -72.0037         -DE/DX =    0.0                 !
 ! D21   D(3,1,8,5)              0.0            -DE/DX =    0.0                 !
 ! D22   D(3,1,8,6)            -89.9929         -DE/DX =    0.0                 !
 ! D23   D(3,1,8,7)             89.9929         -DE/DX =    0.0                 !
 ! D24   D(4,1,6,5)           -144.0095         -DE/DX =    0.0                 !
 ! D25   D(4,1,7,5)            144.0095         -DE/DX =    0.0                 !
 ! D26   D(4,1,8,5)            180.0            -DE/DX =    0.0                 !
 ! D27   D(4,1,8,6)             90.0071         -DE/DX =    0.0                 !
 ! D28   D(4,1,8,7)            -90.0071         -DE/DX =    0.0                 !
 ! D29   D(5,1,8,6)            -89.9929         -DE/DX =    0.0                 !
 ! D30   D(5,1,8,7)             89.9929         -DE/DX =    0.0                 !
 --------------------------------------------------------------------------------
 GradGradGradGradGradGradGradGradGradGradGradGradGradGradGradGradGradGrad

                          Input orientation:                          
 ---------------------------------------------------------------------
 Center     Atomic      Atomic             Coordinates (Angstroms)
 Number     Number       Type             X           Y           Z
 ---------------------------------------------------------------------
      1         53           0        0.000000    0.000105    0.000000
      2          9           0        1.171689    1.612243    0.000000
      3          9           0       -1.170826    1.612781    0.000000
      4          9           0        1.895316   -0.615960    0.000000
      5          9           0       -1.895458   -0.615178    0.000000
      6          9           0       -0.000242   -0.000867    1.940848
      7          9           0       -0.000242   -0.000867   -1.940848
      8          9           0       -0.000242   -1.992771    0.000000
 ---------------------------------------------------------------------
                    Distance matrix (angstroms):
                    1          2          3          4          5
     1  I    0.000000
     2  F    1.992949   0.000000
     3  F    1.992876   2.342515   0.000000
     4  F    1.992928   2.342761   3.790583   0.000000
     5  F    1.992821   3.790619   2.342838   3.790774   0.000000
     6  F    1.940848   2.782523   2.782268   2.781792   2.781387
     7  F    1.940848   2.782523   2.782268   2.781792   2.781387
     8  F    1.992876   3.790719   3.790814   2.342808   2.342992
                    6          7          8
     6  F    0.000000
     7  F    3.881695   0.000000
     8  F    2.781110   2.781110   0.000000
 Stoichiometry    F7I
 Framework group  CS[SG(F5I),X(F2)]
 Deg. of freedom    12
 Full point group                 CS      NOp   2
 Largest Abelian subgroup         CS      NOp   2
 Largest concise Abelian subgroup CS      NOp   2
                         Standard orientation:                         
 ---------------------------------------------------------------------
 Center     Atomic      Atomic             Coordinates (Angstroms)
 Number     Number       Type             X           Y           Z
 ---------------------------------------------------------------------
      1         53           0        0.000000    0.000105    0.000000
      2          9           0        1.171689    1.612243    0.000000
      3          9           0       -1.170826    1.612781    0.000000
      4          9           0        1.895317   -0.615960    0.000000
      5          9           0       -1.895458   -0.615178    0.000000
      6          9           0       -0.000241   -0.000867    1.940848
      7          9           0       -0.000241   -0.000867   -1.940848
      8          9           0       -0.000241   -1.992771    0.000000
 ---------------------------------------------------------------------
 Rotational constants (GHZ):      1.5233358      1.5232687      1.3395639
 1\1\GINC-CX1-7-36-1\FOpt\RB3LYP\LANL2DZ\F7I1\SCAN-USER-1\15-Mar-2010\0
 \\# opt rb3lyp/lanl2dz pop=(nbo,full) geom=connectivity\\IF7 MO Calcul
 ation\\0,1\I,-0.0000000015,0.0001051,0.\F,1.17168859,1.61224342,0.\F,-
 1.17082615,1.61278051,0.\F,1.89531636,-0.61596043,0.\F,-1.89545797,-0.
 61517759,0.\F,-0.0002415,-0.00086681,1.94084763\F,-0.0002415,-0.000866
 81,-1.94084763\F,-0.0002415,-1.99277125,0.\\Version=EM64L-G09RevA.02\S
 tate=1-A'\HF=-709.951554\RMSD=2.890e-09\RMSF=1.930e-05\Dipole=0.000031
 4,0.0011407,0.\Quadrupole=-1.2040447,-1.2046866,2.4087313,0.0001279,0.
 ,0.\PG=CS [SG(F5I1),X(F2)]\\@


 "A LITTLE BIT GOES A LONG WAY"
 R.S. MULLIKEN AS QUOTED BY K. RUEDENBERG
 Job cpu time:  0 days  0 hours  0 minutes 27.8 seconds.
 File lengths (MBytes):  RWF=      5 Int=      0 D2E=      0 Chk=      2 Scr=      1
 Normal termination of Gaussian 09 at Mon Mar 15 12:07:53 2010.
