 Entering Gaussian System, Link 0=g03
 Initial command:
 /apps/gaussian/g09/g09/l1.exe /home/scan-user-1/run/26157/Gau-13493.inp -scrdir=/home/scan-user-1/run/26157/
 Entering Link 1 = /apps/gaussian/g09/g09/l1.exe PID=     13494.
  
 Copyright (c) 1988,1990,1992,1993,1995,1998,2003,2009, Gaussian, Inc.
                  All Rights Reserved.
  
 This is part of the Gaussian(R) 09 program.  It is based on
 the Gaussian(R) 03 system (copyright 2003, Gaussian, Inc.),
 the Gaussian(R) 98 system (copyright 1998, Gaussian, Inc.),
 the Gaussian(R) 94 system (copyright 1995, Gaussian, Inc.),
 the Gaussian 92(TM) system (copyright 1992, Gaussian, Inc.),
 the Gaussian 90(TM) system (copyright 1990, Gaussian, Inc.),
 the Gaussian 88(TM) system (copyright 1988, Gaussian, Inc.),
 the Gaussian 86(TM) system (copyright 1986, Carnegie Mellon
 University), and the Gaussian 82(TM) system (copyright 1983,
 Carnegie Mellon University). Gaussian is a federally registered
 trademark of Gaussian, Inc.
  
 This software contains proprietary and confidential information,
 including trade secrets, belonging to Gaussian, Inc.
  
 This software is provided under written license and may be
 used, copied, transmitted, or stored only in accord with that
 written license.
  
 The following legend is applicable only to US Government
 contracts under FAR:
  
                    RESTRICTED RIGHTS LEGEND
  
 Use, reproduction and disclosure by the US Government is
 subject to restrictions as set forth in subparagraphs (a)
 and (c) of the Commercial Computer Software - Restricted
 Rights clause in FAR 52.227-19.
  
 Gaussian, Inc.
 340 Quinnipiac St., Bldg. 40, Wallingford CT 06492
  
  
 ---------------------------------------------------------------
 Warning -- This program may not be used in any manner that
 competes with the business of Gaussian, Inc. or will provide
 assistance to any competitor of Gaussian, Inc.  The licensee
 of this program is prohibited from giving any competitor of
 Gaussian, Inc. access to this program.  By using this program,
 the user acknowledges that Gaussian, Inc. is engaged in the
 business of creating and licensing software in the field of
 computational chemistry and represents and warrants to the
 licensee that it is not a competitor of Gaussian, Inc. and that
 it will not use this program in any manner prohibited above.
 ---------------------------------------------------------------
  

 Cite this work as:
 Gaussian 09, Revision A.02,
 M. J. Frisch, G. W. Trucks, H. B. Schlegel, G. E. Scuseria, 
 M. A. Robb, J. R. Cheeseman, G. Scalmani, V. Barone, B. Mennucci, 
 G. A. Petersson, H. Nakatsuji, M. Caricato, X. Li, H. P. Hratchian, 
 A. F. Izmaylov, J. Bloino, G. Zheng, J. L. Sonnenberg, M. Hada, 
 M. Ehara, K. Toyota, R. Fukuda, J. Hasegawa, M. Ishida, T. Nakajima, 
 Y. Honda, O. Kitao, H. Nakai, T. Vreven, J. A. Montgomery, Jr., 
 J. E. Peralta, F. Ogliaro, M. Bearpark, J. J. Heyd, E. Brothers, 
 K. N. Kudin, V. N. Staroverov, R. Kobayashi, J. Normand, 
 K. Raghavachari, A. Rendell, J. C. Burant, S. S. Iyengar, J. Tomasi, 
 M. Cossi, N. Rega, J. M. Millam, M. Klene, J. E. Knox, J. B. Cross, 
 V. Bakken, C. Adamo, J. Jaramillo, R. Gomperts, R. E. Stratmann, 
 O. Yazyev, A. J. Austin, R. Cammi, C. Pomelli, J. W. Ochterski, 
 R. L. Martin, K. Morokuma, V. G. Zakrzewski, G. A. Voth, 
 P. Salvador, J. J. Dannenberg, S. Dapprich, A. D. Daniels, 
 O. Farkas, J. B. Foresman, J. V. Ortiz, J. Cioslowski, 
 and D. J. Fox, Gaussian, Inc., Wallingford CT, 2009.
 
 ******************************************
 Gaussian 09:  EM64L-G09RevA.02 11-Jun-2009
                15-Mar-2010 
 ******************************************
 %nprocshared=4
 Will use up to    4 processors via shared memory.
 %mem=7000MB
 %NoSave
 %Chk=chk.chk
 %rwf=/tmp/pbs.3645962.cx1/rwf
 ---------------------------------------------------------
 # opt=(calcfc,ts,noeigen) freq hf/3-21g geom=connectivity
 ---------------------------------------------------------
 1/5=1,10=4,11=1,18=20,38=1,57=2/1,3;
 2/9=110,12=2,17=6,18=5,40=1/2;
 3/5=5,11=9,16=1,25=1,30=1,71=2/1,2,3;
 4//1;
 5/5=2,38=5/2;
 8/6=4,10=90,11=11/1;
 11/6=1,8=1,9=11,15=111,16=1/1,2,10;
 10/6=1,7=6,13=1/2;
 6/7=2,8=2,9=2,10=2,28=1/1;
 7/10=1,18=20,25=1/1,2,3,16;
 1/5=1,10=4,11=1,18=20/3(2);
 2/9=110/2;
 99//99;
 2/9=110/2;
 3/5=5,11=9,16=1,25=1,30=1,71=1/1,2,3;
 4/5=5,16=3/1;
 5/5=2,38=5/2;
 7//1,2,3,16;
 1/5=1,11=1,18=20/3(-5);
 2/9=110/2;
 6/7=2,8=2,9=2,10=2,19=2,28=1/1;
 99/9=1/99;
 -----------------------------
 Chair Transistion State Opt 1
 -----------------------------
 Symbolic Z-matrix:
 Charge =  0 Multiplicity = 1
 C
 C                    1    B1
 H                    1    B2       2    A1
 H                    1    B3       2    A2       3    D1       0
 C                    2    B4       1    A3       3    D2       0
 H                    2    B5       1    A4       5    D3       0
 H                    5    B6       2    A5       1    D4       0
 H                    5    B7       2    A6       1    D5       0
 C                    1    B8       2    A7       5    D6       0
 C                    9    B9       1    A8       2    D7       0
 H                    9    B10      1    A9       2    D8       0
 H                    9    B11      1    A10      2    D9       0
 C                    10   B12      9    A11      1    D10      0
 H                    10   B13      9    A12      1    D11      0
 H                    13   B14      10   A13      9    D12      0
 H                    13   B15      10   A14      9    D13      0
       Variables:
  B1                    1.38855                  
  B2                    1.07223                  
  B3                    1.07398                  
  B4                    1.38855                  
  B5                    1.07564                  
  B6                    1.07223                  
  B7                    1.07398                  
  B8                    3.33551                  
  B9                    1.38855                  
  B10                   1.07223                  
  B11                   1.07398                  
  B12                   1.38855                  
  B13                   1.07564                  
  B14                   1.07223                  
  B15                   1.07398                  
  A1                  121.41968                  
  A2                  121.1212                   
  A3                  124.30536                  
  A4                  117.84732                  
  A5                  121.41968                  
  A6                  121.1212                   
  A7                   53.15516                  
  A8                   55.42122                  
  A9                  138.81311                  
  A10                  80.51318                  
  A11                 124.30536                  
  A12                 117.84732                  
  A13                 121.41968                  
  A14                 121.1212                   
  D1                  180.                       
  D2                 -180.                       
  D3                  180.                       
  D4                  180.                       
  D5                    0.                       
  D6                   51.21006                  
  D7                  177.6292                   
  D8                  -82.36622                  
  D9                   38.89701                  
  D10                 -49.45812                  
  D11                 130.54188                  
  D12                 180.                       
  D13                   0.                       
 

 GradGradGradGradGradGradGradGradGradGradGradGradGradGradGradGradGradGrad
 Berny optimization.
 Initialization pass.
                           ----------------------------
                           !    Initial Parameters    !
                           ! (Angstroms and Degrees)  !
 --------------------------                            --------------------------
 ! Name  Definition              Value          Derivative Info.                !
 --------------------------------------------------------------------------------
 ! R1    R(1,2)                  1.3885         calculate D2E/DX2 analytically  !
 ! R2    R(1,3)                  1.0722         calculate D2E/DX2 analytically  !
 ! R3    R(1,4)                  1.074          calculate D2E/DX2 analytically  !
 ! R4    R(1,13)                 2.2            calculate D2E/DX2 analytically  !
 ! R5    R(1,15)                 2.5796         calculate D2E/DX2 analytically  !
 ! R6    R(1,16)                 2.121          calculate D2E/DX2 analytically  !
 ! R7    R(2,5)                  1.3885         calculate D2E/DX2 analytically  !
 ! R8    R(2,6)                  1.0756         calculate D2E/DX2 analytically  !
 ! R9    R(2,12)                 2.436          calculate D2E/DX2 analytically  !
 ! R10   R(2,13)                 2.6902         calculate D2E/DX2 analytically  !
 ! R11   R(2,16)                 2.379          calculate D2E/DX2 analytically  !
 ! R12   R(3,13)                 2.5994         calculate D2E/DX2 analytically  !
 ! R13   R(4,10)                 2.5615         calculate D2E/DX2 analytically  !
 ! R14   R(4,13)                 2.2011         calculate D2E/DX2 analytically  !
 ! R15   R(5,7)                  1.0722         calculate D2E/DX2 analytically  !
 ! R16   R(5,8)                  1.074          calculate D2E/DX2 analytically  !
 ! R17   R(5,9)                  2.1526         calculate D2E/DX2 analytically  !
 ! R18   R(5,11)                 2.577          calculate D2E/DX2 analytically  !
 ! R19   R(5,12)                 2.0751         calculate D2E/DX2 analytically  !
 ! R20   R(7,9)                  2.4913         calculate D2E/DX2 analytically  !
 ! R21   R(8,9)                  2.1468         calculate D2E/DX2 analytically  !
 ! R22   R(8,10)                 2.4646         calculate D2E/DX2 analytically  !
 ! R23   R(9,10)                 1.3885         calculate D2E/DX2 analytically  !
 ! R24   R(9,11)                 1.0722         calculate D2E/DX2 analytically  !
 ! R25   R(9,12)                 1.074          calculate D2E/DX2 analytically  !
 ! R26   R(10,13)                1.3885         calculate D2E/DX2 analytically  !
 ! R27   R(10,14)                1.0756         calculate D2E/DX2 analytically  !
 ! R28   R(13,15)                1.0722         calculate D2E/DX2 analytically  !
 ! R29   R(13,16)                1.074          calculate D2E/DX2 analytically  !
 ! A1    A(2,1,3)              121.4197         calculate D2E/DX2 analytically  !
 ! A2    A(2,1,4)              121.1212         calculate D2E/DX2 analytically  !
 ! A3    A(3,1,4)              117.4591         calculate D2E/DX2 analytically  !
 ! A4    A(1,2,5)              124.3054         calculate D2E/DX2 analytically  !
 ! A5    A(1,2,6)              117.8473         calculate D2E/DX2 analytically  !
 ! A6    A(5,2,6)              117.8473         calculate D2E/DX2 analytically  !
 ! A7    A(2,5,7)              121.4197         calculate D2E/DX2 analytically  !
 ! A8    A(2,5,8)              121.1212         calculate D2E/DX2 analytically  !
 ! A9    A(7,5,8)              117.4591         calculate D2E/DX2 analytically  !
 ! A10   A(10,9,11)            121.4197         calculate D2E/DX2 analytically  !
 ! A11   A(10,9,12)            121.1212         calculate D2E/DX2 analytically  !
 ! A12   A(11,9,12)            117.4591         calculate D2E/DX2 analytically  !
 ! A13   A(9,10,13)            124.3054         calculate D2E/DX2 analytically  !
 ! A14   A(9,10,14)            117.8473         calculate D2E/DX2 analytically  !
 ! A15   A(13,10,14)           117.8473         calculate D2E/DX2 analytically  !
 ! A16   A(10,13,15)           121.4197         calculate D2E/DX2 analytically  !
 ! A17   A(10,13,16)           121.1212         calculate D2E/DX2 analytically  !
 ! A18   A(15,13,16)           117.4591         calculate D2E/DX2 analytically  !
 ! D1    D(3,1,2,5)            180.0            calculate D2E/DX2 analytically  !
 ! D2    D(3,1,2,6)              0.0            calculate D2E/DX2 analytically  !
 ! D3    D(4,1,2,5)              0.0            calculate D2E/DX2 analytically  !
 ! D4    D(4,1,2,6)            180.0            calculate D2E/DX2 analytically  !
 ! D5    D(1,2,5,7)            180.0            calculate D2E/DX2 analytically  !
 ! D6    D(1,2,5,8)              0.0            calculate D2E/DX2 analytically  !
 ! D7    D(6,2,5,7)              0.0            calculate D2E/DX2 analytically  !
 ! D8    D(6,2,5,8)            180.0            calculate D2E/DX2 analytically  !
 ! D9    D(11,9,10,13)         180.0            calculate D2E/DX2 analytically  !
 ! D10   D(11,9,10,14)           0.0            calculate D2E/DX2 analytically  !
 ! D11   D(12,9,10,13)           0.0            calculate D2E/DX2 analytically  !
 ! D12   D(12,9,10,14)         180.0            calculate D2E/DX2 analytically  !
 ! D13   D(9,10,13,15)         180.0            calculate D2E/DX2 analytically  !
 ! D14   D(9,10,13,16)           0.0            calculate D2E/DX2 analytically  !
 ! D15   D(14,10,13,15)          0.0            calculate D2E/DX2 analytically  !
 ! D16   D(14,10,13,16)       -180.0            calculate D2E/DX2 analytically  !
 --------------------------------------------------------------------------------
 Trust Radius=3.00D-01 FncErr=1.00D-07 GrdErr=1.00D-07
 Number of steps in this run=  73 maximum allowed number of steps= 100.
 Search for a saddle point of order  1.
 GradGradGradGradGradGradGradGradGradGradGradGradGradGradGradGradGradGrad

                          Input orientation:                          
 ---------------------------------------------------------------------
 Center     Atomic      Atomic             Coordinates (Angstroms)
 Number     Number       Type             X           Y           Z
 ---------------------------------------------------------------------
      1          6           0        0.000000    0.000000    0.000000
      2          6           0        0.000000    0.000000    1.388549
      3          1           0        0.915007    0.000000   -0.558954
      4          1           0       -0.919411    0.000000   -0.555088
      5          6           0       -1.147005    0.000000    2.171140
      6          1           0        0.951079    0.000000    1.891000
      7          1           0       -1.093026    0.000000    3.242006
      8          1           0       -2.123716    0.000000    1.724515
      9          6           0       -1.672217    2.080567    2.000138
     10          6           0       -1.669382    2.152530    0.613458
     11          1           0       -2.586995    2.101639    2.559069
     12          1           0       -0.755316    2.001517    2.553746
     13          6           0       -0.522497    2.130361   -0.168994
     14          1           0       -2.618012    2.230584    0.112441
     15          1           0       -0.574209    2.188812   -1.238376
     16          1           0        0.451841    2.053799    0.276252
 ---------------------------------------------------------------------
                    Distance matrix (angstroms):
                    1          2          3          4          5
     1  C    0.000000
     2  C    1.388549   0.000000
     3  H    1.072225   2.151745   0.000000
     4  H    1.073983   2.150126   1.834422   0.000000
     5  C    2.455498   1.388549   3.421302   2.735712   0.000000
     6  H    2.116703   1.075643   2.450220   3.079299   2.116703
     7  H    3.421302   2.151745   4.298778   3.801061   1.072225
     8  H    2.735712   2.150126   3.801061   2.578166   1.073983
     9  C    3.335509   2.738450   4.191830   3.380038   2.152637
    10  C    2.792231   2.832136   3.561882   2.561512   2.707885
    11  H    4.202174   3.532640   5.138382   4.110438   2.577003
    12  H    3.331395   2.436033   4.060166   3.701060   2.075061
    13  C    2.200000   2.690238   2.599408   2.201147   3.225628
    14  H    3.441240   3.668507   4.231843   2.882073   3.373071
    15  H    2.579572   3.467182   2.733181   2.318824   4.091918
    16  H    2.120982   2.378961   2.264990   2.605676   3.219472
                    6          7          8          9         10
     6  H    0.000000
     7  H    2.450220   0.000000
     8  H    3.079299   1.834422   0.000000
     9  C    3.349977   2.491276   2.146760   0.000000
    10  C    3.623854   3.445989   2.464600   1.388549   0.000000
    11  H    4.169073   2.667440   2.308245   1.072225   2.151745
    12  H    2.712394   2.143320   2.562462   1.073983   2.150126
    13  C    3.309598   4.061879   3.269207   2.455498   1.388549
    14  H    4.569156   4.134642   2.796179   2.116703   1.075643
    15  H    4.112225   5.013371   3.996322   3.421302   2.151745
    16  H    2.659838   3.924334   3.598478   2.735712   2.150126
                   11         12         13         14         15
    11  H    0.000000
    12  H    1.834422   0.000000
    13  C    3.421302   2.735712   0.000000
    14  H    2.450220   3.079299   2.116703   0.000000
    15  H    4.298778   3.801061   1.072225   2.450220   0.000000
    16  H    3.801061   2.578166   1.073983   3.079299   1.834422
                   16
    16  H    0.000000
 Stoichiometry    C6H10
 Framework group  C1[X(C6H10)]
 Deg. of freedom    42
 Full point group                 C1      NOp   1
 Largest Abelian subgroup         C1      NOp   1
 Largest concise Abelian subgroup C1      NOp   1
                         Standard orientation:                         
 ---------------------------------------------------------------------
 Center     Atomic      Atomic             Coordinates (Angstroms)
 Number     Number       Type             X           Y           Z
 ---------------------------------------------------------------------
      1          6           0       -1.459957    0.774987    0.300598
      2          6           0       -1.291986   -0.483390   -0.261844
      3          1           0       -2.067359    1.521772   -0.171677
      4          1           0       -0.984721    1.036652    1.227486
      5          6           0       -0.520669   -1.493756    0.296995
      6          1           0       -1.792271   -0.689038   -1.191592
      7          1           0       -0.422972   -2.450060   -0.177985
      8          1           0        0.001490   -1.345430    1.223703
      9          6           0        1.429490   -0.787336   -0.278936
     10          6           0        1.317525    0.493935    0.244397
     11          1           0        2.053577   -1.527058    0.182578
     12          1           0        0.892447   -1.074509   -1.163557
     13          6           0        0.528597    1.496798   -0.303259
     14          1           0        1.878852    0.724787    1.132443
     15          1           0        0.476406    2.471718    0.139995
     16          1           0       -0.053452    1.323732   -1.189096
 ---------------------------------------------------------------------
 Rotational constants (GHZ):      4.5375939      3.8827431      2.3728489
 Standard basis: 3-21G (6D, 7F)
 There are    74 symmetry adapted basis functions of A   symmetry.
 Integral buffers will be    131072 words long.
 Raffenetti 1 integral format.
 Two-electron integral symmetry is turned on.
    74 basis functions,   120 primitive gaussians,    74 cartesian basis functions
    23 alpha electrons       23 beta electrons
       nuclear repulsion energy       230.0892262967 Hartrees.
 NAtoms=   16 NActive=   16 NUniq=   16 SFac= 7.50D-01 NAtFMM=   80 NAOKFM=F Big=F
 One-electron integrals computed using PRISM.
 NBasis=    74 RedAO= T  NBF=    74
 NBsUse=    74 1.00D-06 NBFU=    74
 Harris functional with IExCor=  205 diagonalized for initial guess.
 ExpMin= 1.83D-01 ExpMax= 1.72D+02 ExpMxC= 1.72D+02 IAcc=1 IRadAn=         1 AccDes= 0.00D+00
 HarFok:  IExCor=  205 AccDes= 0.00D+00 IRadAn=         1 IDoV= 1
 ScaDFX=  1.000000  1.000000  1.000000  1.000000
 FoFCou: FMM=F IPFlag=           0 FMFlag=      100000 FMFlg1=           0
         NFxFlg=           0 DoJE=T BraDBF=F KetDBF=T FulRan=T
         Omega=  0.000000  0.000000  1.000000  0.000000  0.000000 ICntrl=     500 IOpCl=  0
         NMat0=    1 NMatS0=    1 NMatT0=    0 NMatD0=    1 NMtDS0=    0 NMtDT0=    0
         I1Cent=           4 NGrid=           0.
 Petite list used in FoFCou.
 Initial guess orbital symmetries:
       Occupied  (A) (A) (A) (A) (A) (A) (A) (A) (A) (A) (A) (A)
                 (A) (A) (A) (A) (A) (A) (A) (A) (A) (A) (A)
       Virtual   (A) (A) (A) (A) (A) (A) (A) (A) (A) (A) (A) (A)
                 (A) (A) (A) (A) (A) (A) (A) (A) (A) (A) (A) (A)
                 (A) (A) (A) (A) (A) (A) (A) (A) (A) (A) (A) (A)
                 (A) (A) (A) (A) (A) (A) (A) (A) (A) (A) (A) (A)
                 (A) (A) (A)
 The electronic state of the initial guess is 1-A.
 Requested convergence on RMS density matrix=1.00D-08 within 128 cycles.
 Requested convergence on MAX density matrix=1.00D-06.
 Requested convergence on             energy=1.00D-06.
 No special actions if energy rises.
 Keep R1 ints in memory in canonical form, NReq=4687320.
 SCF Done:  E(RHF) =  -231.562926208     A.U. after   14 cycles
             Convg  =    0.1827D-08             -V/T =  2.0016
 Range of M.O.s used for correlation:     1    74
 NBasis=    74 NAE=    23 NBE=    23 NFC=     0 NFV=     0
 NROrb=     74 NOA=    23 NOB=    23 NVA=    51 NVB=    51
 Symmetrizing basis deriv contribution to polar:
 IMax=3 JMax=2 DiffMx= 0.00D+00
 G2DrvN: will do    17 centers at a time, making    1 passes doing MaxLOS=1.
 Calling FoFCou, ICntrl=  3107 FMM=F I1Cent=   0 AccDes= 0.00D+00.
 FoFDir/FoFCou used for L=0 through L=1.
 End of G2Drv Frequency-dependent properties file   721 does not exist.
 End of G2Drv Frequency-dependent properties file   722 does not exist.
          IDoAtm=1111111111111111
          Differentiating once with respect to nuclear coordinates.
          Keep R1 ints in memory in canonical form, NReq=4652799.
          There are    51 degrees of freedom in the 1st order CPHF.  IDoFFX=5.
     45 vectors produced by pass  0 Test12= 2.30D-11 1.96D-07 XBig12= 7.25D-02 1.33D-01.
 AX will form    45 AO Fock derivatives at one time.
     45 vectors produced by pass  1 Test12= 2.30D-11 1.96D-07 XBig12= 3.73D-03 1.78D-02.
     45 vectors produced by pass  2 Test12= 2.30D-11 1.96D-07 XBig12= 3.19D-05 9.45D-04.
     45 vectors produced by pass  3 Test12= 2.30D-11 1.96D-07 XBig12= 2.15D-07 8.38D-05.
     45 vectors produced by pass  4 Test12= 2.30D-11 1.96D-07 XBig12= 1.38D-09 6.55D-06.
      5 vectors produced by pass  5 Test12= 2.30D-11 1.96D-07 XBig12= 7.75D-12 4.51D-07.
 Inverted reduced A of dimension   230 with in-core refinement.
 End of Minotr Frequency-dependent properties file   721 does not exist.
 End of Minotr Frequency-dependent properties file   722 does not exist.

 **********************************************************************

            Population analysis using the SCF density.

 **********************************************************************

 Orbital symmetries:
       Occupied  (A) (A) (A) (A) (A) (A) (A) (A) (A) (A) (A) (A)
                 (A) (A) (A) (A) (A) (A) (A) (A) (A) (A) (A)
       Virtual   (A) (A) (A) (A) (A) (A) (A) (A) (A) (A) (A) (A)
                 (A) (A) (A) (A) (A) (A) (A) (A) (A) (A) (A) (A)
                 (A) (A) (A) (A) (A) (A) (A) (A) (A) (A) (A) (A)
                 (A) (A) (A) (A) (A) (A) (A) (A) (A) (A) (A) (A)
                 (A) (A) (A)
 The electronic state is 1-A.
 Alpha  occ. eigenvalues --  -11.17372 -11.17155 -11.17072 -11.16756 -11.15979
 Alpha  occ. eigenvalues --  -11.15884  -1.09988  -1.03249  -0.95946  -0.87243
 Alpha  occ. eigenvalues --   -0.77366  -0.74625  -0.66115  -0.64269  -0.61559
 Alpha  occ. eigenvalues --   -0.58615  -0.54299  -0.52324  -0.51557  -0.50266
 Alpha  occ. eigenvalues --   -0.45588  -0.31169  -0.27123
 Alpha virt. eigenvalues --    0.13325   0.17156   0.27284   0.28414   0.29663
 Alpha virt. eigenvalues --    0.29753   0.32279   0.36276   0.36833   0.37382
 Alpha virt. eigenvalues --    0.38576   0.39405   0.41271   0.53232   0.55013
 Alpha virt. eigenvalues --    0.58545   0.58729   0.86297   0.90721   0.92147
 Alpha virt. eigenvalues --    0.93162   0.99468   1.00502   1.02693   1.06334
 Alpha virt. eigenvalues --    1.06567   1.07151   1.13672   1.17801   1.19538
 Alpha virt. eigenvalues --    1.21895   1.28352   1.30397   1.32574   1.33941
 Alpha virt. eigenvalues --    1.36988   1.37494   1.40810   1.42240   1.43091
 Alpha virt. eigenvalues --    1.48477   1.55488   1.65206   1.65834   1.72223
 Alpha virt. eigenvalues --    1.73248   1.85315   2.01879   2.22568   2.23865
 Alpha virt. eigenvalues --    2.54768
          Condensed to atoms (all electrons):
              1          2          3          4          5          6
     1  C    5.371470   0.446881   0.392069   0.401232  -0.092570  -0.038654
     2  C    0.446881   5.322926  -0.047253  -0.048944   0.433966   0.404559
     3  H    0.392069  -0.047253   0.456765  -0.019969   0.002318  -0.001240
     4  H    0.401232  -0.048944  -0.019969   0.440299   0.001656   0.001766
     5  C   -0.092570   0.433966   0.002318   0.001656   5.407654  -0.039111
     6  H   -0.038654   0.404559  -0.001240   0.001766  -0.039111   0.451565
     7  H    0.002320  -0.046971  -0.000044  -0.000004   0.393074  -0.001213
     8  H    0.001733  -0.048667  -0.000002   0.001252   0.402850   0.001771
     9  C   -0.010960  -0.043266   0.000053   0.000364   0.039762   0.000244
    10  C   -0.033842  -0.038321   0.000929  -0.007492  -0.045923   0.000140
    11  H    0.000051   0.001186   0.000000   0.000000  -0.004605  -0.000009
    12  H    0.000431  -0.012346  -0.000002   0.000039  -0.027842   0.000559
    13  C    0.031076  -0.047936  -0.004530  -0.017591  -0.015018   0.000263
    14  H    0.000174   0.000035  -0.000007   0.000348   0.000238   0.000001
    15  H   -0.003838   0.001149  -0.000117  -0.001165   0.000110  -0.000010
    16  H   -0.024492  -0.014210  -0.001179   0.001190   0.000487   0.000474
              7          8          9         10         11         12
     1  C    0.002320   0.001733  -0.010960  -0.033842   0.000051   0.000431
     2  C   -0.046971  -0.048667  -0.043266  -0.038321   0.001186  -0.012346
     3  H   -0.000044  -0.000002   0.000053   0.000929   0.000000  -0.000002
     4  H   -0.000004   0.001252   0.000364  -0.007492   0.000000   0.000039
     5  C    0.393074   0.402850   0.039762  -0.045923  -0.004605  -0.027842
     6  H   -0.001213   0.001771   0.000244   0.000140  -0.000009   0.000559
     7  H    0.457714  -0.019514  -0.008114   0.001334  -0.000150  -0.002169
     8  H   -0.019514   0.442445  -0.023023  -0.010576  -0.001219   0.001478
     9  C   -0.008114  -0.023023   5.394604   0.430387   0.392371   0.405372
    10  C    0.001334  -0.010576   0.430387   5.301608  -0.046549  -0.048870
    11  H   -0.000150  -0.001219   0.392371  -0.046549   0.456590  -0.020179
    12  H   -0.002169   0.001478   0.405372  -0.048870  -0.020179   0.447600
    13  C    0.000123   0.000626  -0.091727   0.447724   0.002287   0.001907
    14  H   -0.000013   0.000418  -0.039267   0.405070  -0.001268   0.001768
    15  H    0.000000  -0.000002   0.002321  -0.046698  -0.000043  -0.000004
    16  H   -0.000006   0.000059   0.001786  -0.049918  -0.000001   0.001252
             13         14         15         16
     1  C    0.031076   0.000174  -0.003838  -0.024492
     2  C   -0.047936   0.000035   0.001149  -0.014210
     3  H   -0.004530  -0.000007  -0.000117  -0.001179
     4  H   -0.017591   0.000348  -0.001165   0.001190
     5  C   -0.015018   0.000238   0.000110   0.000487
     6  H    0.000263   0.000001  -0.000010   0.000474
     7  H    0.000123  -0.000013   0.000000  -0.000006
     8  H    0.000626   0.000418  -0.000002   0.000059
     9  C   -0.091727  -0.039267   0.002321   0.001786
    10  C    0.447724   0.405070  -0.046698  -0.049918
    11  H    0.002287  -0.001268  -0.000043  -0.000001
    12  H    0.001907   0.001768  -0.000004   0.001252
    13  C    5.377709  -0.038083   0.392295   0.406825
    14  H   -0.038083   0.451810  -0.001324   0.001776
    15  H    0.392295  -0.001324   0.458349  -0.020494
    16  H    0.406825   0.001776  -0.020494   0.450138
 Mulliken atomic charges:
              1
     1  C   -0.443080
     2  C   -0.262789
     3  H    0.222209
     4  H    0.247020
     5  C   -0.457047
     6  H    0.218894
     7  H    0.223633
     8  H    0.250370
     9  C   -0.450907
    10  C   -0.259003
    11  H    0.221537
    12  H    0.251007
    13  C   -0.445949
    14  H    0.218325
    15  H    0.219470
    16  H    0.246313
 Sum of Mulliken atomic charges =   0.00000
 Mulliken charges with hydrogens summed into heavy atoms:
              1
     1  C    0.026148
     2  C   -0.043895
     5  C    0.016956
     9  C    0.021637
    10  C   -0.040679
    13  C    0.019834
 Sum of Mulliken charges with hydrogens summed into heavy atoms =   0.00000
 APT atomic charges:
              1
     1  C   -0.838345
     2  C   -0.522411
     3  H    0.542679
     4  H    0.319205
     5  C   -0.833334
     6  H    0.499559
     7  H    0.521932
     8  H    0.314650
     9  C   -0.827938
    10  C   -0.537079
    11  H    0.546298
    12  H    0.301145
    13  C   -0.835915
    14  H    0.511827
    15  H    0.535480
    16  H    0.302247
 Sum of APT charges=   0.00000
 APT Atomic charges with hydrogens summed into heavy atoms:
              1
     1  C    0.023539
     2  C   -0.022852
     3  H    0.000000
     4  H    0.000000
     5  C    0.003248
     6  H    0.000000
     7  H    0.000000
     8  H    0.000000
     9  C    0.019505
    10  C   -0.025252
    11  H    0.000000
    12  H    0.000000
    13  C    0.001812
    14  H    0.000000
    15  H    0.000000
    16  H    0.000000
 Sum of APT charges=   0.00000
 Electronic spatial extent (au):  <R**2>=            581.6151
 Charge=              0.0000 electrons
 Dipole moment (field-independent basis, Debye):
    X=             -0.0410    Y=             -0.0248    Z=              0.0537  Tot=              0.0720
 Quadrupole moment (field-independent basis, Debye-Ang):
   XX=            -43.3252   YY=            -36.4749   ZZ=            -38.6393
   XY=             -3.5282   XZ=              4.6007   YZ=              1.9054
 Traceless Quadrupole moment (field-independent basis, Debye-Ang):
   XX=             -3.8454   YY=              3.0049   ZZ=              0.8405
   XY=             -3.5282   XZ=              4.6007   YZ=              1.9054
 Octapole moment (field-independent basis, Debye-Ang**2):
  XXX=              0.6229  YYY=              0.1200  ZZZ=              0.3744  XYY=              0.2017
  XXY=              0.5904  XXZ=              0.4549  XZZ=             -0.5179  YZZ=             -0.1563
  YYZ=             -0.0104  XYZ=             -0.0260
 Hexadecapole moment (field-independent basis, Debye-Ang**3):
 XXXX=           -402.0761 YYYY=           -317.2015 ZZZZ=            -87.6153 XXXY=            -16.9391
 XXXZ=             22.7898 YYYX=            -12.0928 YYYZ=             10.2085 ZZZX=              9.1862
 ZZZY=              3.8646 XXYY=           -119.1543 XXZZ=            -79.4733 YYZZ=            -71.7304
 XXYZ=              1.8955 YYXZ=              8.0582 ZZXY=             -1.5736
 N-N= 2.300892262967D+02 E-N=-9.982749263083D+02  KE= 2.312009883361D+02
  Exact polarizability:   0.000   0.000   0.000   0.000   0.000   0.000
 Approx polarizability:  75.015  -3.231  76.272   3.209   1.600  41.955
 Calling FoFJK, ICntrl=    100147 FMM=F ISym2X=0 I1Cent= 0 IOpClX= 0 NMat=1 NMatS=1 NMatT=0.
 ***** Axes restored to original set *****
 -------------------------------------------------------------------
 Center     Atomic                   Forces (Hartrees/Bohr)
 Number     Number              X              Y              Z
 -------------------------------------------------------------------
      1        6          -0.018415785    0.021512331    0.015681298
      2        6          -0.003398022   -0.047827899   -0.006008435
      3        1          -0.000151910   -0.003580107    0.000151492
      4        1           0.005508047   -0.026275526    0.001122131
      5        6          -0.005616676    0.021947396   -0.016857350
      6        1           0.000672447    0.001836197    0.000231659
      7        1          -0.000010624   -0.008275610   -0.000429903
      8        1           0.004532539   -0.030757359    0.004139466
      9        6           0.018953090   -0.023530246   -0.008456427
     10        6           0.009430318    0.039651617   -0.002322164
     11        1           0.000293846    0.003549051    0.000119445
     12        1          -0.005721511    0.035711344    0.000307420
     13        6          -0.001379011   -0.019800163    0.016554148
     14        1          -0.000565154   -0.001983186   -0.000312044
     15        1           0.000136903    0.005081451    0.000380405
     16        1          -0.004268498    0.032740711   -0.004301141
 -------------------------------------------------------------------
 Cartesian Forces:  Max     0.047827899 RMS     0.015646014

 GradGradGradGradGradGradGradGradGradGradGradGradGradGradGradGradGradGrad
 Berny optimization.
 Internal  Forces:  Max     0.020449167 RMS     0.008236854
 Search for a saddle point.
 Step number   1 out of a maximum of   73
 All quantities printed in internal units (Hartrees-Bohrs-Radians)
 Swaping is turned off.
 Second derivative matrix not updated -- analytic derivatives used.
     Eigenvalues ---   -0.05292   0.00660   0.01261   0.01578   0.01701
     Eigenvalues ---    0.01864   0.02180   0.02252   0.02330   0.02430
     Eigenvalues ---    0.02621   0.03075   0.03563   0.03636   0.04445
     Eigenvalues ---    0.05170   0.08647   0.09877   0.11234   0.11532
     Eigenvalues ---    0.12296   0.12412   0.12801   0.13654   0.15881
     Eigenvalues ---    0.16268   0.18986   0.21513   0.30176   0.36488
     Eigenvalues ---    0.36613   0.37739   0.38158   0.39131   0.39172
     Eigenvalues ---    0.39481   0.39763   0.40318   0.40415   0.47116
     Eigenvalues ---    0.48955   0.495051000.000001000.000001000.00000
     Eigenvalues --- 1000.000001000.000001000.000001000.000001000.00000
     Eigenvalues --- 1000.000001000.000001000.000001000.000001000.00000
     Eigenvalues --- 1000.000001000.000001000.000001000.000001000.00000
     Eigenvalues --- 1000.000001000.000001000.00000
 Eigenvectors required to have negative eigenvalues:
                          R17       R4        R18       R20       R12
   1                    0.39582  -0.33887   0.27132   0.24336  -0.24278
                          D5        R5        D7        D10       D2
   1                    0.21648  -0.21346   0.19853   0.18699   0.18189
 RFO step:  Lambda0=4.798307216D-04 Lambda=-4.25840456D-02.
 Linear search not attempted -- option 19 set.
 Maximum step size (   0.300) exceeded in Quadratic search.
    -- Step size scaled by   0.364
 Iteration  1 RMS(Cart)=  0.03265481 RMS(Int)=  0.00106024
 Iteration  2 RMS(Cart)=  0.00090351 RMS(Int)=  0.00055989
 Iteration  3 RMS(Cart)=  0.00000073 RMS(Int)=  0.00055989
 Variable       Old X    -DE/DX   Delta X   Delta X   Delta X     New X
                                 (Linear)    (Quad)   (Total)
    R1        2.62398  -0.01996   0.00000  -0.00650  -0.00660   2.61738
    R2        2.02621   0.00039   0.00000   0.00165   0.00184   2.02805
    R3        2.02953  -0.00862   0.00000  -0.00632  -0.00628   2.02325
    R4        4.15740  -0.00082   0.00000  -0.05716  -0.05722   4.10018
    R5        4.87468   0.00147   0.00000  -0.02874  -0.02868   4.84600
    R6        4.00807   0.01474   0.00000   0.08271   0.08239   4.09046
    R7        2.62398  -0.01376   0.00000  -0.01204  -0.01224   2.61174
    R8        2.03267   0.00070   0.00000  -0.00016  -0.00016   2.03251
    R9        4.60343   0.00273   0.00000   0.05039   0.05097   4.65440
   R10        5.08381   0.00017   0.00000  -0.01528  -0.01553   5.06829
   R11        4.49558   0.00817   0.00000   0.07179   0.07240   4.56798
   R12        4.91217  -0.00109   0.00000  -0.04180  -0.04214   4.87003
   R13        4.84056  -0.00105   0.00000   0.02567   0.02622   4.86678
   R14        4.15956   0.01351   0.00000   0.07325   0.07306   4.23262
   R15        2.02621  -0.00167   0.00000   0.00000   0.00001   2.02622
   R16        2.02953  -0.00932   0.00000  -0.00684  -0.00678   2.02275
   R17        4.06789  -0.00215   0.00000  -0.02177  -0.02185   4.04605
   R18        4.86983  -0.00345   0.00000  -0.01914  -0.01935   4.85048
   R19        3.92130   0.02045   0.00000   0.09828   0.09796   4.01925
   R20        4.70783   0.00244   0.00000   0.00517   0.00515   4.71298
   R21        4.05679   0.01467   0.00000   0.07603   0.07582   4.13261
   R22        4.65742   0.00558   0.00000   0.05703   0.05733   4.71475
   R23        2.62398  -0.01250   0.00000  -0.01100  -0.01118   2.61280
   R24        2.02621   0.00185   0.00000   0.00151   0.00163   2.02784
   R25        2.02953  -0.01093   0.00000  -0.00788  -0.00778   2.02175
   R26        2.62398  -0.01791   0.00000  -0.00601  -0.00637   2.61761
   R27        2.03267   0.00050   0.00000  -0.00023  -0.00023   2.03244
   R28        2.02621  -0.00090   0.00000   0.00081   0.00078   2.02699
   R29        2.02953  -0.00994   0.00000  -0.00721  -0.00711   2.02242
    A1        2.11917  -0.00144   0.00000   0.00241   0.00102   2.12020
    A2        2.11396   0.00243   0.00000  -0.00548  -0.00728   2.10668
    A3        2.05005  -0.00099   0.00000   0.00307   0.00180   2.05184
    A4        2.16954  -0.00923   0.00000  -0.02074  -0.02142   2.14812
    A5        2.05682   0.00450   0.00000   0.00973   0.00968   2.06650
    A6        2.05682   0.00472   0.00000   0.01101   0.01097   2.06780
    A7        2.11917   0.00094   0.00000   0.00466   0.00399   2.12317
    A8        2.11396  -0.00088   0.00000  -0.00698  -0.00793   2.10604
    A9        2.05005  -0.00006   0.00000   0.00232   0.00166   2.05171
   A10        2.11917  -0.00119   0.00000   0.00272   0.00196   2.12113
   A11        2.11396   0.00082   0.00000  -0.00523  -0.00648   2.10748
   A12        2.05005   0.00037   0.00000   0.00251   0.00184   2.05189
   A13        2.16954  -0.01007   0.00000  -0.01982  -0.02058   2.14896
   A14        2.05682   0.00501   0.00000   0.01031   0.01037   2.06719
   A15        2.05682   0.00506   0.00000   0.00951   0.00958   2.06640
   A16        2.11917   0.00114   0.00000   0.00399   0.00298   2.12216
   A17        2.11396  -0.00187   0.00000  -0.00918  -0.01083   2.10313
   A18        2.05005   0.00072   0.00000   0.00519   0.00414   2.05419
    D1        3.14159  -0.00024   0.00000   0.01456   0.01489  -3.12670
    D2        0.00000   0.00797   0.00000   0.05758   0.05761   0.05761
    D3        0.00000  -0.01634   0.00000  -0.08941  -0.08894  -0.08894
    D4        3.14159  -0.00813   0.00000  -0.04640  -0.04623   3.09536
    D5        3.14159  -0.00129   0.00000  -0.00136  -0.00149   3.14010
    D6        0.00000   0.01424   0.00000   0.07297   0.07275   0.07275
    D7        0.00000  -0.00949   0.00000  -0.04438  -0.04424  -0.04424
    D8        3.14159   0.00603   0.00000   0.02995   0.03001  -3.11159
    D9        3.14159  -0.00157   0.00000  -0.00635  -0.00658   3.13501
   D10        0.00000  -0.00930   0.00000  -0.04527  -0.04528  -0.04528
   D11        0.00000   0.01514   0.00000   0.07431   0.07402   0.07402
   D12        3.14159   0.00741   0.00000   0.03539   0.03532  -3.10627
   D13        3.14159  -0.00049   0.00000   0.01696   0.01700  -3.12460
   D14        0.00000  -0.01322   0.00000  -0.07792  -0.07756  -0.07756
   D15        0.00000   0.00724   0.00000   0.05588   0.05568   0.05568
   D16        3.14159  -0.00549   0.00000  -0.03900  -0.03888   3.10271
         Item               Value     Threshold  Converged?
 Maximum Force            0.020449     0.000450     NO 
 RMS     Force            0.008237     0.000300     NO 
 Maximum Displacement     0.101343     0.001800     NO 
 RMS     Displacement     0.032803     0.001200     NO 
 Predicted change in Energy=-1.442483D-02
 GradGradGradGradGradGradGradGradGradGradGradGradGradGradGradGradGradGrad

                          Input orientation:                          
 ---------------------------------------------------------------------
 Center     Atomic      Atomic             Coordinates (Angstroms)
 Number     Number       Type             X           Y           Z
 ---------------------------------------------------------------------
      1          6           0       -0.022218    0.016531    0.006582
      2          6           0       -0.003447   -0.005472    1.391339
      3          1           0        0.884940   -0.002287   -0.566535
      4          1           0       -0.947640   -0.042415   -0.528611
      5          6           0       -1.151051    0.000380    2.161464
      6          1           0        0.949149    0.012233    1.890412
      7          1           0       -1.109800   -0.018423    3.232734
      8          1           0       -2.116918   -0.044274    1.702279
      9          6           0       -1.656074    2.073998    1.990396
     10          6           0       -1.665884    2.153075    0.610062
     11          1           0       -2.564477    2.105383    2.560778
     12          1           0       -0.732817    2.052830    2.530546
     13          6           0       -0.513573    2.123461   -0.158065
     14          1           0       -2.614915    2.205308    0.106717
     15          1           0       -0.548812    2.202054   -1.227238
     16          1           0        0.449679    2.107427    0.308042
 ---------------------------------------------------------------------
                    Distance matrix (angstroms):
                    1          2          3          4          5
     1  C    0.000000
     2  C    1.385059   0.000000
     3  H    1.073198   2.150003   0.000000
     4  H    1.070660   2.139877   1.833411   0.000000
     5  C    2.432702   1.382071   3.404004   2.698094   0.000000
     6  H    2.119525   1.075558   2.457828   3.074486   2.117652
     7  H    3.404719   2.148237   4.291118   3.764916   1.072229
     8  H    2.695710   2.136574   3.763035   2.518747   1.070394
     9  C    3.292138   2.722911   4.160002   3.365484   2.141076
    10  C    2.762362   2.834328   3.540716   2.575388   2.702961
    11  H    4.165369   3.518831   5.110855   4.095305   2.566762
    12  H    3.319918   2.463002   4.053709   3.714114   2.126898
    13  C    2.169721   2.682021   2.577109   2.239807   3.208437
    14  H    3.394532   3.654800   4.192341   2.869792   3.350610
    15  H    2.564395   3.468075   2.711327   2.384278   4.085751
    16  H    2.164581   2.417271   2.324915   2.697092   3.230658
                    6          7          8          9         10
     6  H    0.000000
     7  H    2.458056   0.000000
     8  H    3.072353   1.832279   0.000000
     9  C    3.323862   2.494002   2.186884   0.000000
    10  C    3.613986   3.450079   2.494937   1.382633   0.000000
    11  H    4.144422   2.660482   2.357616   1.073087   2.148263
    12  H    2.720812   2.219296   2.645676   1.069866   2.137504
    13  C    3.285285   4.054710   3.275770   2.433854   1.385178
    14  H    4.549032   4.120963   2.802577   2.117750   1.075520
    15  H    4.093769   5.013640   4.010862   3.405231   2.150795
    16  H    2.672676   3.937644   3.627827   2.695483   2.137500
                   11         12         13         14         15
    11  H    0.000000
    12  H    1.832663   0.000000
    13  C    3.405678   2.698461   0.000000
    14  H    2.456612   3.072538   2.119539   0.000000
    15  H    4.292006   3.765245   1.072637   2.459314   0.000000
    16  H    3.762972   2.518095   1.070219   3.072759   1.833855
                   16
    16  H    0.000000
 Stoichiometry    C6H10
 Framework group  C1[X(C6H10)]
 Deg. of freedom    42
 Full point group                 C1      NOp   1
 Largest Abelian subgroup         C1      NOp   1
 Largest concise Abelian subgroup C1      NOp   1
                         Standard orientation:                         
 ---------------------------------------------------------------------
 Center     Atomic      Atomic             Coordinates (Angstroms)
 Number     Number       Type             X           Y           Z
 ---------------------------------------------------------------------
      1          6           0       -1.364501    0.886775    0.298341
      2          6           0       -1.328637   -0.375379   -0.270930
      3          1           0       -1.913688    1.690189   -0.154066
      4          1           0       -0.921179    1.067340    1.256034
      5          6           0       -0.646649   -1.437592    0.291845
      6          1           0       -1.822975   -0.525341   -1.214310
      7          1           0       -0.635314   -2.406059   -0.168176
      8          1           0       -0.165349   -1.335289    1.242438
      9          6           0        1.344556   -0.893307   -0.276543
     10          6           0        1.351149    0.382711    0.255817
     11          1           0        1.904717   -1.691301    0.171721
     12          1           0        0.836339   -1.100226   -1.194973
     13          6           0        0.646948    1.438313   -0.299630
     14          1           0        1.901206    0.556159    1.163614
     15          1           0        0.681859    2.422551    0.125347
     16          1           0        0.117182    1.312850   -1.221029
 ---------------------------------------------------------------------
 Rotational constants (GHZ):      4.5785724      3.9119974      2.4048079
 Standard basis: 3-21G (6D, 7F)
 There are    74 symmetry adapted basis functions of A   symmetry.
 Integral buffers will be    131072 words long.
 Raffenetti 1 integral format.
 Two-electron integral symmetry is turned on.
    74 basis functions,   120 primitive gaussians,    74 cartesian basis functions
    23 alpha electrons       23 beta electrons
       nuclear repulsion energy       230.8822225807 Hartrees.
 NAtoms=   16 NActive=   16 NUniq=   16 SFac= 7.50D-01 NAtFMM=   80 NAOKFM=F Big=F
 One-electron integrals computed using PRISM.
 NBasis=    74 RedAO= T  NBF=    74
 NBsUse=    74 1.00D-06 NBFU=    74
 Initial guess read from the read-write file.
 B after Tr=     0.000000    0.000000    0.000000
         Rot=    1.000000    0.000000    0.000000    0.000000 Ang=   0.00 deg.
 Initial guess orbital symmetries:
       Occupied  (A) (A) (A) (A) (A) (A) (A) (A) (A) (A) (A) (A)
                 (A) (A) (A) (A) (A) (A) (A) (A) (A) (A) (A)
       Virtual   (A) (A) (A) (A) (A) (A) (A) (A) (A) (A) (A) (A)
                 (A) (A) (A) (A) (A) (A) (A) (A) (A) (A) (A) (A)
                 (A) (A) (A) (A) (A) (A) (A) (A) (A) (A) (A) (A)
                 (A) (A) (A) (A) (A) (A) (A) (A) (A) (A) (A) (A)
                 (A) (A) (A)
 Harris functional with IExCor=  205 diagonalized for initial guess.
 ExpMin= 1.83D-01 ExpMax= 1.72D+02 ExpMxC= 1.72D+02 IAcc=1 IRadAn=         1 AccDes= 0.00D+00
 HarFok:  IExCor=  205 AccDes= 0.00D+00 IRadAn=         1 IDoV= 1
 ScaDFX=  1.000000  1.000000  1.000000  1.000000
 FoFCou: FMM=F IPFlag=           0 FMFlag=      100000 FMFlg1=           0
         NFxFlg=           0 DoJE=T BraDBF=F KetDBF=T FulRan=T
         Omega=  0.000000  0.000000  1.000000  0.000000  0.000000 ICntrl=     500 IOpCl=  0
         NMat0=    1 NMatS0=    1 NMatT0=    0 NMatD0=    1 NMtDS0=    0 NMtDT0=    0
         I1Cent=           4 NGrid=           0.
 Petite list used in FoFCou.
 Requested convergence on RMS density matrix=1.00D-08 within 128 cycles.
 Requested convergence on MAX density matrix=1.00D-06.
 Requested convergence on             energy=1.00D-06.
 No special actions if energy rises.
 Keep R1 ints in memory in canonical form, NReq=4687320.
 SCF Done:  E(RHF) =  -231.577293874     A.U. after   14 cycles
             Convg  =    0.1769D-08             -V/T =  2.0013
 Calling FoFJK, ICntrl=      2127 FMM=F ISym2X=0 I1Cent= 0 IOpClX= 0 NMat=1 NMatS=1 NMatT=0.
 ***** Axes restored to original set *****
 -------------------------------------------------------------------
 Center     Atomic                   Forces (Hartrees/Bohr)
 Number     Number              X              Y              Z
 -------------------------------------------------------------------
      1        6          -0.014103077    0.020729993    0.009548898
      2        6          -0.001792946   -0.042400081   -0.003923949
      3        1          -0.000955610   -0.002724338    0.000178688
      4        1           0.004139029   -0.023081363   -0.000483351
      5        6          -0.005716081    0.019710005   -0.011675557
      6        1           0.000399024    0.001718916    0.000115838
      7        1          -0.000183695   -0.006674652   -0.000373812
      8        1           0.002165794   -0.027099065    0.003681015
      9        6           0.013825244   -0.020598190   -0.005262878
     10        6           0.005839793    0.035919535   -0.001752081
     11        1           0.000934803    0.002822049    0.000049458
     12        1          -0.004063443    0.030905885    0.001854107
     13        6           0.001094927   -0.020303508    0.011499168
     14        1          -0.000347716   -0.001856740   -0.000183171
     15        1           0.000471728    0.003966815    0.000706418
     16        1          -0.001707773    0.028964737   -0.003978794
 -------------------------------------------------------------------
 Cartesian Forces:  Max     0.042400081 RMS     0.013563503

 GradGradGradGradGradGradGradGradGradGradGradGradGradGradGradGradGradGrad
 Berny optimization.
 Internal  Forces:  Max     0.016910031 RMS     0.006452525
 Search for a saddle point.
 Step number   2 out of a maximum of   73
 All quantities printed in internal units (Hartrees-Bohrs-Radians)
 Swaping is turned off.
 Update second derivatives using D2CorX and points    1    2
     Eigenvalues ---   -0.05301   0.00751   0.01262   0.01580   0.01698
     Eigenvalues ---    0.01836   0.02178   0.02252   0.02332   0.02428
     Eigenvalues ---    0.02617   0.03074   0.03557   0.03641   0.04460
     Eigenvalues ---    0.05207   0.08644   0.09886   0.11216   0.11527
     Eigenvalues ---    0.12290   0.12403   0.12794   0.13636   0.15873
     Eigenvalues ---    0.16257   0.18984   0.21517   0.30173   0.36485
     Eigenvalues ---    0.36607   0.37738   0.38157   0.39128   0.39169
     Eigenvalues ---    0.39444   0.39749   0.40303   0.40409   0.47114
     Eigenvalues ---    0.49041   0.495141000.000001000.000001000.00000
     Eigenvalues --- 1000.000001000.000001000.000001000.000001000.00000
     Eigenvalues --- 1000.000001000.000001000.000001000.000001000.00000
     Eigenvalues --- 1000.000001000.000001000.000001000.000001000.00000
     Eigenvalues --- 1000.000001000.000001000.00000
 Eigenvectors required to have negative eigenvalues:
                          R17       R4        R18       R12       R20
   1                    0.39558  -0.34088   0.27082  -0.24373   0.24349
                          D5        R5        D7        D10       D2
   1                    0.21658  -0.21324   0.19684   0.18541   0.18297
 RFO step:  Lambda0=1.459168266D-04 Lambda=-3.56030406D-02.
 Linear search not attempted -- option 19 set.
 Maximum step size (   0.300) exceeded in Quadratic search.
    -- Step size scaled by   0.366
 Iteration  1 RMS(Cart)=  0.02967086 RMS(Int)=  0.00099016
 Iteration  2 RMS(Cart)=  0.00079252 RMS(Int)=  0.00053696
 Iteration  3 RMS(Cart)=  0.00000062 RMS(Int)=  0.00053696
 Variable       Old X    -DE/DX   Delta X   Delta X   Delta X     New X
                                 (Linear)    (Quad)   (Total)
    R1        2.61738  -0.01275   0.00000  -0.00355  -0.00363   2.61376
    R2        2.02805   0.00035   0.00000   0.00127   0.00142   2.02947
    R3        2.02325  -0.00549   0.00000  -0.00350  -0.00347   2.01978
    R4        4.10018  -0.00243   0.00000  -0.05623  -0.05627   4.04391
    R5        4.84600   0.00007   0.00000  -0.02921  -0.02917   4.81683
    R6        4.09046   0.01244   0.00000   0.07745   0.07714   4.16761
    R7        2.61174  -0.00874   0.00000  -0.00606  -0.00625   2.60549
    R8        2.03251   0.00044   0.00000  -0.00028  -0.00028   2.03223
    R9        4.65440   0.00424   0.00000   0.05737   0.05788   4.71228
   R10        5.06829  -0.00042   0.00000  -0.01683  -0.01706   5.05122
   R11        4.56798   0.00865   0.00000   0.07799   0.07852   4.64650
   R12        4.87003  -0.00216   0.00000  -0.04094  -0.04121   4.82882
   R13        4.86678   0.00091   0.00000   0.03431   0.03477   4.90155
   R14        4.23262   0.01121   0.00000   0.06633   0.06617   4.29879
   R15        2.02622  -0.00105   0.00000   0.00037   0.00038   2.02660
   R16        2.02275  -0.00603   0.00000  -0.00412  -0.00408   2.01868
   R17        4.04605  -0.00278   0.00000  -0.03377  -0.03383   4.01222
   R18        4.85048  -0.00344   0.00000  -0.02757  -0.02777   4.82271
   R19        4.01925   0.01691   0.00000   0.09411   0.09382   4.11308
   R20        4.71298   0.00151   0.00000  -0.00366  -0.00369   4.70929
   R21        4.13261   0.01238   0.00000   0.07368   0.07351   4.20612
   R22        4.71475   0.00615   0.00000   0.06135   0.06163   4.77638
   R23        2.61280  -0.00795   0.00000  -0.00561  -0.00577   2.60703
   R24        2.02784   0.00129   0.00000   0.00117   0.00129   2.02913
   R25        2.02175  -0.00705   0.00000  -0.00465  -0.00457   2.01718
   R26        2.61761  -0.01142   0.00000  -0.00356  -0.00385   2.61376
   R27        2.03244   0.00030   0.00000  -0.00033  -0.00033   2.03211
   R28        2.02699  -0.00047   0.00000   0.00076   0.00074   2.02773
   R29        2.02242  -0.00638   0.00000  -0.00421  -0.00412   2.01830
    A1        2.12020  -0.00115   0.00000  -0.00055  -0.00179   2.11841
    A2        2.10668   0.00088   0.00000  -0.00728  -0.00882   2.09786
    A3        2.05184  -0.00094   0.00000  -0.00054  -0.00169   2.05015
    A4        2.14812  -0.00679   0.00000  -0.01631  -0.01694   2.13118
    A5        2.06650   0.00321   0.00000   0.00720   0.00711   2.07361
    A6        2.06780   0.00334   0.00000   0.00754   0.00746   2.07526
    A7        2.12317   0.00056   0.00000   0.00125   0.00042   2.12359
    A8        2.10604  -0.00115   0.00000  -0.00690  -0.00798   2.09805
    A9        2.05171  -0.00022   0.00000   0.00067  -0.00016   2.05154
   A10        2.12113  -0.00090   0.00000   0.00031  -0.00060   2.12053
   A11        2.10748  -0.00016   0.00000  -0.00622  -0.00753   2.09995
   A12        2.05189   0.00010   0.00000   0.00020  -0.00063   2.05126
   A13        2.14896  -0.00741   0.00000  -0.01601  -0.01669   2.13227
   A14        2.06719   0.00356   0.00000   0.00747   0.00746   2.07465
   A15        2.06640   0.00364   0.00000   0.00721   0.00721   2.07361
   A16        2.12216   0.00070   0.00000   0.00071  -0.00025   2.12191
   A17        2.10313  -0.00195   0.00000  -0.00893  -0.01041   2.09272
   A18        2.05419   0.00034   0.00000   0.00111   0.00011   2.05430
    D1       -3.12670   0.00046   0.00000   0.01075   0.01097  -3.11573
    D2        0.05761   0.00723   0.00000   0.05420   0.05415   0.11176
    D3       -0.08894  -0.01365   0.00000  -0.08633  -0.08587  -0.17482
    D4        3.09536  -0.00688   0.00000  -0.04288  -0.04269   3.05268
    D5        3.14010  -0.00129   0.00000  -0.00433  -0.00443   3.13567
    D6        0.07275   0.01203   0.00000   0.07685   0.07658   0.14933
    D7       -0.04424  -0.00807   0.00000  -0.04783  -0.04766  -0.09190
    D8       -3.11159   0.00525   0.00000   0.03335   0.03334  -3.07824
    D9        3.13501  -0.00164   0.00000  -0.00770  -0.00788   3.12713
   D10       -0.04528  -0.00802   0.00000  -0.04838  -0.04835  -0.09363
   D11        0.07402   0.01268   0.00000   0.07783   0.07750   0.15152
   D12       -3.10627   0.00629   0.00000   0.03715   0.03704  -3.06924
   D13       -3.12460   0.00025   0.00000   0.01240   0.01241  -3.11219
   D14       -0.07756  -0.01128   0.00000  -0.07813  -0.07778  -0.15534
   D15        0.05568   0.00664   0.00000   0.05306   0.05284   0.10852
   D16        3.10271  -0.00490   0.00000  -0.03748  -0.03734   3.06537
         Item               Value     Threshold  Converged?
 Maximum Force            0.016910     0.000450     NO 
 RMS     Force            0.006453     0.000300     NO 
 Maximum Displacement     0.097354     0.001800     NO 
 RMS     Displacement     0.029743     0.001200     NO 
 Predicted change in Energy=-1.221069D-02
 GradGradGradGradGradGradGradGradGradGradGradGradGradGradGradGradGradGrad

                          Input orientation:                          
 ---------------------------------------------------------------------
 Center     Atomic      Atomic             Coordinates (Angstroms)
 Number     Number       Type             X           Y           Z
 ---------------------------------------------------------------------
      1          6           0       -0.041293    0.032628    0.010394
      2          6           0       -0.009377   -0.010601    1.392490
      3          1           0        0.860895   -0.002877   -0.571128
      4          1           0       -0.967914   -0.082005   -0.509815
      5          6           0       -1.159414    0.003820    2.152886
      6          1           0        0.943302    0.023961    1.890196
      7          1           0       -1.126713   -0.035357    3.224103
      8          1           0       -2.114900   -0.088090    1.684134
      9          6           0       -1.639026    2.065297    1.985112
     10          6           0       -1.660299    2.153541    0.608521
     11          1           0       -2.542277    2.108971    2.564085
     12          1           0       -0.712158    2.103214    2.513245
     13          6           0       -0.504184    2.115757   -0.149798
     14          1           0       -2.609889    2.180695    0.104625
     15          1           0       -0.529620    2.211907   -1.218207
     16          1           0        0.449010    2.158944    0.330059
 ---------------------------------------------------------------------
                    Distance matrix (angstroms):
                    1          2          3          4          5
     1  C    0.000000
     2  C    1.383140   0.000000
     3  H    1.073951   2.147843   0.000000
     4  H    1.068824   2.131350   1.831546   0.000000
     5  C    2.416877   1.378765   3.391451   2.670957   0.000000
     6  H    2.122065   1.075409   2.462850   3.069858   2.119157
     7  H    3.392740   2.145660   4.284322   3.737584   1.072432
     8  H    2.667550   2.127037   3.734812   2.475686   1.068237
     9  C    3.253307   2.704868   4.130534   3.359457   2.123173
    10  C    2.734448   2.832607   3.521097   2.593788   2.693928
    11  H    4.133698   3.504398   5.086358   4.089970   2.552069
    12  H    3.316873   2.493633   4.052588   3.738914   2.176546
    13  C    2.139943   2.672992   2.555302   2.274821   3.192484
    14  H    3.349740   3.636349   4.155835   2.862416   3.322354
    15  H    2.548957   3.467843   2.693977   2.440482   4.078793
    16  H    2.205403   2.458822   2.378079   2.781171   3.248735
                    6          7          8          9         10
     6  H    0.000000
     7  H    2.463288   0.000000
     8  H    3.067184   1.830519   0.000000
     9  C    3.293096   2.492050   2.225785   0.000000
    10  C    3.599519   3.452138   2.527551   1.379580   0.000000
    11  H    4.117117   2.652845   2.405004   1.073769   2.145717
    12  H    2.729841   2.291432   2.730737   1.067448   2.128256
    13  C    3.260736   4.049449   3.288563   2.418316   1.383140
    14  H    4.523818   4.103881   2.808424   2.119462   1.075346
    15  H    4.076613   5.014063   4.028235   3.393158   2.149134
    16  H    2.690075   3.958958   3.668285   2.666057   2.127617
                   11         12         13         14         15
    11  H    0.000000
    12  H    1.830833   0.000000
    13  C    3.393969   2.671181   0.000000
    14  H    2.461435   3.067382   2.122013   0.000000
    15  H    4.285687   3.737494   1.073028   2.465436   0.000000
    16  H    3.733787   2.473401   1.068039   3.067271   1.832389
                   16
    16  H    0.000000
 Stoichiometry    C6H10
 Framework group  C1[X(C6H10)]
 Deg. of freedom    42
 Full point group                 C1      NOp   1
 Largest Abelian subgroup         C1      NOp   1
 Largest concise Abelian subgroup C1      NOp   1
                         Standard orientation:                         
 ---------------------------------------------------------------------
 Center     Atomic      Atomic             Coordinates (Angstroms)
 Number     Number       Type             X           Y           Z
 ---------------------------------------------------------------------
      1          6           0        1.283553   -0.964894    0.294262
      2          6           0        1.348516    0.292211   -0.278928
      3          1           0        1.786791   -1.806134   -0.144415
      4          1           0        0.885627   -1.086977    1.278708
      5          6           0        0.733340    1.388511    0.287357
      6          1           0        1.827970    0.401552   -1.235312
      7          1           0        0.792719    2.361238   -0.160289
      8          1           0        0.301275    1.318697    1.261819
      9          6           0       -1.270498    0.968271   -0.274687
     10          6           0       -1.367956   -0.297121    0.266171
     11          1           0       -1.781248    1.805834    0.161893
     12          1           0       -0.807311    1.113747   -1.225339
     13          6           0       -0.729728   -1.388726   -0.294311
     14          1           0       -1.898168   -0.426275    1.192758
     15          1           0       -0.833557   -2.373538    0.118914
     16          1           0       -0.257464   -1.297657   -1.247925
 ---------------------------------------------------------------------
 Rotational constants (GHZ):      4.6060355      3.9474412      2.4347175
 Standard basis: 3-21G (6D, 7F)
 There are    74 symmetry adapted basis functions of A   symmetry.
 Integral buffers will be    131072 words long.
 Raffenetti 1 integral format.
 Two-electron integral symmetry is turned on.
    74 basis functions,   120 primitive gaussians,    74 cartesian basis functions
    23 alpha electrons       23 beta electrons
       nuclear repulsion energy       231.5526237451 Hartrees.
 NAtoms=   16 NActive=   16 NUniq=   16 SFac= 7.50D-01 NAtFMM=   80 NAOKFM=F Big=F
 One-electron integrals computed using PRISM.
 NBasis=    74 RedAO= T  NBF=    74
 NBsUse=    74 1.00D-06 NBFU=    74
 Initial guess read from the read-write file.
 B after Tr=     0.000000    0.000000    0.000000
         Rot=    1.000000    0.000000    0.000000    0.000000 Ang=   0.00 deg.
 Initial guess orbital symmetries:
       Occupied  (A) (A) (A) (A) (A) (A) (A) (A) (A) (A) (A) (A)
                 (A) (A) (A) (A) (A) (A) (A) (A) (A) (A) (A)
       Virtual   (A) (A) (A) (A) (A) (A) (A) (A) (A) (A) (A) (A)
                 (A) (A) (A) (A) (A) (A) (A) (A) (A) (A) (A) (A)
                 (A) (A) (A) (A) (A) (A) (A) (A) (A) (A) (A) (A)
                 (A) (A) (A) (A) (A) (A) (A) (A) (A) (A) (A) (A)
                 (A) (A) (A)
 Harris functional with IExCor=  205 diagonalized for initial guess.
 ExpMin= 1.83D-01 ExpMax= 1.72D+02 ExpMxC= 1.72D+02 IAcc=1 IRadAn=         1 AccDes= 0.00D+00
 HarFok:  IExCor=  205 AccDes= 0.00D+00 IRadAn=         1 IDoV= 1
 ScaDFX=  1.000000  1.000000  1.000000  1.000000
 FoFCou: FMM=F IPFlag=           0 FMFlag=      100000 FMFlg1=           0
         NFxFlg=           0 DoJE=T BraDBF=F KetDBF=T FulRan=T
         Omega=  0.000000  0.000000  1.000000  0.000000  0.000000 ICntrl=     500 IOpCl=  0
         NMat0=    1 NMatS0=    1 NMatT0=    0 NMatD0=    1 NMtDS0=    0 NMtDT0=    0
         I1Cent=           4 NGrid=           0.
 Petite list used in FoFCou.
 Requested convergence on RMS density matrix=1.00D-08 within 128 cycles.
 Requested convergence on MAX density matrix=1.00D-06.
 Requested convergence on             energy=1.00D-06.
 No special actions if energy rises.
 Keep R1 ints in memory in canonical form, NReq=4687320.
 SCF Done:  E(RHF) =  -231.589352962     A.U. after   14 cycles
             Convg  =    0.9258D-08             -V/T =  2.0012
 Calling FoFJK, ICntrl=      2127 FMM=F ISym2X=0 I1Cent= 0 IOpClX= 0 NMat=1 NMatS=1 NMatT=0.
 ***** Axes restored to original set *****
 -------------------------------------------------------------------
 Center     Atomic                   Forces (Hartrees/Bohr)
 Number     Number              X              Y              Z
 -------------------------------------------------------------------
      1        6          -0.010457239    0.019037152    0.005563623
      2        6          -0.000548494   -0.037218620   -0.002467537
      3        1          -0.001403923   -0.001976640    0.000145636
      4        1           0.003197152   -0.019603233   -0.001631300
      5        6          -0.005219671    0.017526311   -0.007898774
      6        1           0.000220693    0.001553081    0.000046364
      7        1          -0.000376133   -0.005255409   -0.000365611
      8        1           0.000490098   -0.023274429    0.003401101
      9        6           0.009829398   -0.017833806   -0.003142966
     10        6           0.003091005    0.032186501   -0.001362153
     11        1           0.001338291    0.002088176    0.000030479
     12        1          -0.002934200    0.026188411    0.002878422
     13        6           0.002267029   -0.019649767    0.007870264
     14        1          -0.000200761   -0.001679155   -0.000098017
     15        1           0.000689585    0.002950194    0.000828647
     16        1           0.000017171    0.024961235   -0.003798178
 -------------------------------------------------------------------
 Cartesian Forces:  Max     0.037218620 RMS     0.011692498

 GradGradGradGradGradGradGradGradGradGradGradGradGradGradGradGradGradGrad
 Berny optimization.
 Internal  Forces:  Max     0.013485293 RMS     0.005061901
 Search for a saddle point.
 Step number   3 out of a maximum of   73
 All quantities printed in internal units (Hartrees-Bohrs-Radians)
 Swaping is turned off.
 Update second derivatives using D2CorX and points    1    2    3
     Eigenvalues ---   -0.05298   0.00934   0.01264   0.01588   0.01700
     Eigenvalues ---    0.01806   0.02172   0.02251   0.02341   0.02424
     Eigenvalues ---    0.02609   0.03072   0.03551   0.03655   0.04502
     Eigenvalues ---    0.05322   0.08638   0.09879   0.11161   0.11512
     Eigenvalues ---    0.12280   0.12377   0.12775   0.13581   0.15848
     Eigenvalues ---    0.16228   0.18977   0.21516   0.30157   0.36474
     Eigenvalues ---    0.36589   0.37733   0.38153   0.39120   0.39154
     Eigenvalues ---    0.39337   0.39713   0.40225   0.40417   0.47108
     Eigenvalues ---    0.49218   0.495521000.000001000.000001000.00000
     Eigenvalues --- 1000.000001000.000001000.000001000.000001000.00000
     Eigenvalues --- 1000.000001000.000001000.000001000.000001000.00000
     Eigenvalues --- 1000.000001000.000001000.000001000.000001000.00000
     Eigenvalues --- 1000.000001000.000001000.00000
 Eigenvectors required to have negative eigenvalues:
                          R17       R4        R18       R12       R20
   1                    0.39495  -0.34305   0.26993  -0.24521   0.24311
                          D5        R5        D7        D2        D10
   1                    0.21626  -0.21367   0.19451   0.18377   0.18317
 RFO step:  Lambda0=2.905410740D-05 Lambda=-2.82722101D-02.
 Linear search not attempted -- option 19 set.
 Maximum step size (   0.300) exceeded in Quadratic search.
    -- Step size scaled by   0.383
 Iteration  1 RMS(Cart)=  0.02610399 RMS(Int)=  0.00088792
 Iteration  2 RMS(Cart)=  0.00066854 RMS(Int)=  0.00050504
 Iteration  3 RMS(Cart)=  0.00000045 RMS(Int)=  0.00050504
 Variable       Old X    -DE/DX   Delta X   Delta X   Delta X     New X
                                 (Linear)    (Quad)   (Total)
    R1        2.61376  -0.00766   0.00000  -0.00107  -0.00111   2.61265
    R2        2.02947   0.00023   0.00000   0.00093   0.00104   2.03051
    R3        2.01978  -0.00317   0.00000  -0.00100  -0.00099   2.01879
    R4        4.04391  -0.00319   0.00000  -0.05349  -0.05348   3.99043
    R5        4.81683  -0.00076   0.00000  -0.02874  -0.02872   4.78811
    R6        4.16761   0.01005   0.00000   0.07074   0.07046   4.23807
    R7        2.60549  -0.00506   0.00000  -0.00123  -0.00140   2.60409
    R8        2.03223   0.00027   0.00000  -0.00030  -0.00030   2.03192
    R9        4.71228   0.00516   0.00000   0.06751   0.06794   4.78023
   R10        5.05122  -0.00058   0.00000  -0.01434  -0.01456   5.03666
   R11        4.64650   0.00855   0.00000   0.08651   0.08695   4.73345
   R12        4.82882  -0.00252   0.00000  -0.03773  -0.03793   4.79089
   R13        4.90155   0.00231   0.00000   0.04480   0.04514   4.94669
   R14        4.29879   0.00876   0.00000   0.05590   0.05577   4.35456
   R15        2.02660  -0.00064   0.00000   0.00069   0.00071   2.02731
   R16        2.01868  -0.00359   0.00000  -0.00171  -0.00168   2.01699
   R17        4.01222  -0.00296   0.00000  -0.04016  -0.04018   3.97203
   R18        4.82271  -0.00319   0.00000  -0.03215  -0.03234   4.79037
   R19        4.11308   0.01349   0.00000   0.08844   0.08819   4.20126
   R20        4.70929   0.00086   0.00000  -0.00796  -0.00800   4.70129
   R21        4.20612   0.01002   0.00000   0.06971   0.06959   4.27571
   R22        4.77638   0.00626   0.00000   0.06769   0.06795   4.84432
   R23        2.60703  -0.00462   0.00000  -0.00127  -0.00140   2.60563
   R24        2.02913   0.00081   0.00000   0.00088   0.00099   2.03012
   R25        2.01718  -0.00421   0.00000  -0.00184  -0.00177   2.01541
   R26        2.61376  -0.00668   0.00000  -0.00098  -0.00118   2.61258
   R27        2.03211   0.00018   0.00000  -0.00036  -0.00036   2.03175
   R28        2.02773  -0.00015   0.00000   0.00093   0.00092   2.02865
   R29        2.01830  -0.00379   0.00000  -0.00166  -0.00158   2.01672
    A1        2.11841  -0.00097   0.00000  -0.00351  -0.00458   2.11383
    A2        2.09786   0.00005   0.00000  -0.00644  -0.00769   2.09017
    A3        2.05015  -0.00104   0.00000  -0.00497  -0.00599   2.04416
    A4        2.13118  -0.00477   0.00000  -0.01143  -0.01199   2.11919
    A5        2.07361   0.00213   0.00000   0.00419   0.00403   2.07764
    A6        2.07526   0.00222   0.00000   0.00396   0.00382   2.07908
    A7        2.12359   0.00022   0.00000  -0.00230  -0.00325   2.12033
    A8        2.09805  -0.00113   0.00000  -0.00595  -0.00709   2.09096
    A9        2.05154  -0.00053   0.00000  -0.00280  -0.00376   2.04779
   A10        2.12053  -0.00071   0.00000  -0.00239  -0.00337   2.11716
   A11        2.09995  -0.00067   0.00000  -0.00604  -0.00732   2.09264
   A12        2.05126  -0.00026   0.00000  -0.00356  -0.00448   2.04679
   A13        2.13227  -0.00531   0.00000  -0.01206  -0.01268   2.11959
   A14        2.07465   0.00243   0.00000   0.00454   0.00443   2.07908
   A15        2.07361   0.00251   0.00000   0.00456   0.00446   2.07807
   A16        2.12191   0.00027   0.00000  -0.00266  -0.00355   2.11836
   A17        2.09272  -0.00167   0.00000  -0.00687  -0.00817   2.08455
   A18        2.05430  -0.00016   0.00000  -0.00382  -0.00475   2.04955
    D1       -3.11573   0.00065   0.00000   0.00545   0.00558  -3.11015
    D2        0.11176   0.00623   0.00000   0.05021   0.05011   0.16187
    D3       -0.17482  -0.01112   0.00000  -0.08345  -0.08305  -0.25787
    D4        3.05268  -0.00555   0.00000  -0.03869  -0.03852   3.01416
    D5        3.13567  -0.00112   0.00000  -0.00493  -0.00498   3.13069
    D6        0.14933   0.01005   0.00000   0.08049   0.08017   0.22950
    D7       -0.09190  -0.00670   0.00000  -0.04972  -0.04954  -0.14144
    D8       -3.07824   0.00447   0.00000   0.03570   0.03561  -3.04264
    D9        3.12713  -0.00138   0.00000  -0.00555  -0.00568   3.12145
   D10       -0.09363  -0.00670   0.00000  -0.04943  -0.04937  -0.14299
   D11        0.15152   0.01047   0.00000   0.08112   0.08079   0.23231
   D12       -3.06924   0.00515   0.00000   0.03724   0.03710  -3.03214
   D13       -3.11219   0.00049   0.00000   0.00645   0.00642  -3.10577
   D14       -0.15534  -0.00952   0.00000  -0.07970  -0.07937  -0.23471
   D15        0.10852   0.00581   0.00000   0.05030   0.05009   0.15861
   D16        3.06537  -0.00420   0.00000  -0.03584  -0.03571   3.02966
         Item               Value     Threshold  Converged?
 Maximum Force            0.013485     0.000450     NO 
 RMS     Force            0.005062     0.000300     NO 
 Maximum Displacement     0.091930     0.001800     NO 
 RMS     Displacement     0.026137     0.001200     NO 
 Predicted change in Energy=-1.001472D-02
 GradGradGradGradGradGradGradGradGradGradGradGradGradGradGradGradGradGrad

                          Input orientation:                          
 ---------------------------------------------------------------------
 Center     Atomic      Atomic             Coordinates (Angstroms)
 Number     Number       Type             X           Y           Z
 ---------------------------------------------------------------------
      1          6           0       -0.056512    0.047740    0.011901
      2          6           0       -0.017202   -0.017268    1.392365
      3          1           0        0.843986   -0.002328   -0.572176
      4          1           0       -0.979232   -0.117108   -0.500620
      5          6           0       -1.170615    0.009486    2.145945
      6          1           0        0.934501    0.032185    1.890335
      7          1           0       -1.141893   -0.050837    3.216670
      8          1           0       -2.116983   -0.130007    1.672493
      9          6           0       -1.622402    2.055845    1.983699
     10          6           0       -1.653524    2.155913    0.608849
     11          1           0       -2.522158    2.112158    2.567968
     12          1           0       -0.695757    2.151862    2.502885
     13          6           0       -0.495113    2.107423   -0.144200
     14          1           0       -2.603740    2.159205    0.105823
     15          1           0       -0.517478    2.218008   -1.211771
     16          1           0        0.450263    2.207532    0.340736
 ---------------------------------------------------------------------
                    Distance matrix (angstroms):
                    1          2          3          4          5
     1  C    0.000000
     2  C    1.382553   0.000000
     3  H    1.074500   2.145062   0.000000
     4  H    1.068300   2.125762   1.828229   0.000000
     5  C    2.407661   1.378027   3.383332   2.656494   0.000000
     6  H    2.123879   1.075248   2.464415   3.066159   2.120699
     7  H    3.385012   2.143395   4.278016   3.721437   1.072807
     8  H    2.652300   2.121381   3.717819   2.452971   1.067346
     9  C    3.220634   2.687776   4.105075   3.362623   2.101909
    10  C    2.711307   2.830929   3.505764   2.617674   2.683844
    11  H    4.107883   3.491604   5.065815   4.094689   2.534956
    12  H    3.322794   2.529587   4.057997   3.774868   2.223212
    13  C    2.111643   2.665285   2.535232   2.304333   3.178429
    14  H    3.309906   3.616960   4.125376   2.861539   3.291996
    15  H    2.533757   3.468178   2.681894   2.484294   4.071660
    16  H    2.242690   2.504832   2.423202   2.855747   3.273749
                    6          7          8          9         10
     6  H    0.000000
     7  H    2.465253   0.000000
     8  H    3.063546   1.827990   0.000000
     9  C    3.262157   2.487814   2.262611   0.000000
    10  C    3.584731   3.454308   2.563506   1.378837   0.000000
    11  H    4.090717   2.646600   2.448131   1.074292   2.143499
    12  H    2.743353   2.358052   2.813602   1.066510   2.122429
    13  C    3.238787   4.046215   3.307103   2.408608   1.382516
    14  H    4.497537   4.086398   2.816359   2.121349   1.075154
    15  H    4.063142   5.014842   4.048527   3.384994   2.146885
    16  H    2.714383   3.988256   3.718658   2.649202   2.121430
                   11         12         13         14         15
    11  H    0.000000
    12  H    1.827991   0.000000
    13  C    3.385969   2.655050   0.000000
    14  H    2.463945   3.063716   2.124029   0.000000
    15  H    4.279764   3.719520   1.073517   2.468198   0.000000
    16  H    3.715500   2.447723   1.067202   3.063405   1.829456
                   16
    16  H    0.000000
 Stoichiometry    C6H10
 Framework group  C1[X(C6H10)]
 Deg. of freedom    42
 Full point group                 C1      NOp   1
 Largest Abelian subgroup         C1      NOp   1
 Largest concise Abelian subgroup C1      NOp   1
                         Standard orientation:                         
 ---------------------------------------------------------------------
 Center     Atomic      Atomic             Coordinates (Angstroms)
 Number     Number       Type             X           Y           Z
 ---------------------------------------------------------------------
      1          6           0        1.214798   -1.023873    0.288308
      2          6           0        1.360526    0.225845   -0.284770
      3          1           0        1.681267   -1.890367   -0.143138
      4          1           0        0.867104   -1.108328    1.294907
      5          6           0        0.795573    1.347003    0.283378
      6          1           0        1.821631    0.305577   -1.252852
      7          1           0        0.916258    2.318675   -0.155033
      8          1           0        0.416085    1.302776    1.280002
      9          6           0       -1.205595    1.025236   -0.273231
     10          6           0       -1.377175   -0.228466    0.274477
     11          1           0       -1.677069    1.890561    0.154587
     12          1           0       -0.796196    1.125923   -1.252873
     13          6           0       -0.790925   -1.347366   -0.287417
     14          1           0       -1.883301   -0.322311    1.218398
     15          1           0       -0.951623   -2.327136    0.120829
     16          1           0       -0.377372   -1.285646   -1.269295
 ---------------------------------------------------------------------
 Rotational constants (GHZ):      4.6202681      3.9827146      2.4591334
 Standard basis: 3-21G (6D, 7F)
 There are    74 symmetry adapted basis functions of A   symmetry.
 Integral buffers will be    131072 words long.
 Raffenetti 1 integral format.
 Two-electron integral symmetry is turned on.
    74 basis functions,   120 primitive gaussians,    74 cartesian basis functions
    23 alpha electrons       23 beta electrons
       nuclear repulsion energy       232.0374445492 Hartrees.
 NAtoms=   16 NActive=   16 NUniq=   16 SFac= 7.50D-01 NAtFMM=   80 NAOKFM=F Big=F
 One-electron integrals computed using PRISM.
 NBasis=    74 RedAO= T  NBF=    74
 NBsUse=    74 1.00D-06 NBFU=    74
 Initial guess read from the read-write file.
 B after Tr=     0.000000    0.000000    0.000000
[...]
 ,-0.7084895254,2.3408904144,2.5450644792\C,-0.4549711739,2.0776371732,
 -0.13587854\H,-2.5599038786,2.1301208924,0.1223493789\H,-0.5156956792,
 2.1936791333,-1.2038749766\H,0.4803932259,2.3998407292,0.2828183419\\V
 ersion=EM64L-G09RevA.02\State=1-A\HF=-231.6193223\RMSD=8.259e-10\RMSF=
 3.102e-05\ZeroPoint=0.1526247\Thermal=0.1579827\Dipole=0.0000652,-0.00
 00237,-0.0001176\DipoleDeriv=0.1120736,0.0261833,0.0903628,-0.1429765,
 0.1443144,0.1049638,-0.0822019,0.0929251,-0.0033588,0.0196834,0.003982
 3,-0.0025389,0.3238093,-0.6850441,0.1513602,0.0057882,-0.0163586,0.027
 1737,-0.0484119,0.0174756,0.0944639,0.0191925,0.0925132,-0.0977982,0.0
 662976,-0.0381042,0.0101072,-0.0489944,-0.0599155,-0.0703815,-0.010047
 6,0.0179107,-0.0324958,-0.0091954,-0.0484659,0.001799,0.0355548,0.0901
 77,-0.0231987,-0.0030072,0.1543157,-0.174259,0.1423348,-0.0247908,0.06
 2926,-0.0888385,0.0185354,-0.0626597,-0.0853026,0.1738263,-0.0410822,-
 0.0653584,0.0134457,-0.0025493,0.0683168,-0.0213531,-0.0153443,-0.0706
 258,0.0859429,0.0786961,0.0115762,0.0440825,-0.1000336,-0.0494814,-0.0
 750502,-0.0105603,-0.0311247,0.0162256,0.010548,-0.0692633,-0.0227693,
 0.004053,0.1122546,0.0262149,0.0902196,-0.1429031,0.1440546,0.1048321,
 -0.0822258,0.0930379,-0.0034696,0.0196859,0.0037908,-0.0024202,0.32352
 26,-0.6850452,0.1516367,0.0058732,-0.0164584,0.0273068,-0.0484681,0.01
 74595,0.0944323,0.0191785,0.092582,-0.0977588,0.0663146,-0.0380709,0.0
 101152,-0.0490226,-0.0599296,-0.0703837,-0.0099558,0.0180375,-0.032485
 8,-0.0092048,-0.0485209,0.001733,0.0356391,0.0901572,-0.0234645,-0.002
 9271,0.1544535,-0.1744651,0.1423769,-0.0248116,0.0627216,-0.0888162,0.
 01862,-0.0626999,-0.0851927,0.1738491,-0.0410531,-0.0654164,0.0134962,
 -0.0026009,0.0683285,-0.0213375,-0.0152774,-0.0706512,0.0858842,0.0788
 614,0.0116149,0.0441455,-0.0999615,-0.0495038,-0.07501,-0.0105497,-0.0
 309887,0.0161797,0.0104997,-0.0693105,-0.0227823,0.0040381\Polar=60.19
 86773,-8.0522185,56.9177957,-5.8465295,-4.5936496,67.7379407\PolarDeri
 v=-1.01501,1.4198646,0.4051854,2.4638826,1.222845,0.5424404,3.2940678,
 -4.3036147,-1.8638991,4.3264404,-4.1799307,-2.5156917,0.3126726,4.2051
 202,-2.7340231,-1.8929074,-1.1953988,-1.4342499,1.2599434,-3.4989946,3
 .7468811,-1.4556425,-3.117872,-0.6986309,-3.1213348,5.4060809,-6.58167
 09,-2.4675632,2.5544874,0.433681,-2.4513629,-3.1195781,1.6571542,1.221
 1391,0.9686055,2.805496,5.8069718,-1.5878316,0.4123598,-3.8323017,0.83
 39542,2.1365644,-0.8117322,2.0163306,-0.4677509,0.0689884,-0.8559278,-
 0.3808065,-2.165042,0.5234184,-0.3247857,2.8299829,-1.3308476,-3.86400
 12,-2.316251,-1.6378667,-1.3548045,-2.13787,-1.1632863,-1.8947356,-1.0
 266433,-0.9224394,-1.7892259,-0.9612658,-1.5693044,-0.8346375,-0.63935
 2,-0.5219142,-0.872962,-1.1712344,-1.9749702,-3.7036232,-1.01884,2.337
 7225,-2.1841671,0.121078,3.6273368,0.005996,3.4958961,-5.9197255,-2.14
 38138,4.0367628,-0.9046809,-2.5762488,3.5447123,0.479903,1.985262,0.27
 30961,-1.7870783,-3.4393109,7.181534,-1.1735478,0.131893,2.818315,-0.4
 346834,1.4328942,1.1100427,1.0335979,0.0747206,0.7700473,0.5640913,0.0
 247085,2.3210376,-0.4387151,0.0897811,2.5245693,-0.5890103,2.2128623,-
 0.6559438,-0.8695418,-0.05289,1.6530003,-0.0576779,0.2631373,-0.494112
 6,0.4194981,-0.6535505,-0.1427595,2.2454531,-0.9463597,0.132905,0.3123
 429,0.6992283,-0.6755037,-2.4330808,9.5762953,-5.2714541,-2.7069218,-1
 .5759736,0.1905276,0.1413725,-0.5273629,-1.7843586,-1.8333281,-1.88594
 25,-0.447987,0.0947483,-0.0725859,-1.2053777,-0.4929303,-0.6341631,-1.
 3803513,-1.0133038,0.0695727,1.0183743,-1.4198371,-0.4037075,-2.461741
 7,-1.2241129,-0.5466116,-3.2977746,4.3118494,1.8498777,-4.3312477,4.18
 47469,2.5150551,-0.3081348,-4.2120955,2.7395062,1.8943619,1.1909951,1.
 4348816,-1.2569018,3.4893248,-3.7424071,1.458907,3.1171216,0.7021362,3
 .1177049,-5.405415,6.5840019,2.4676285,-2.558564,-0.4317399,2.44538,3.
 1281838,-1.6641363,-1.2221492,-0.9638356,-2.8075406,-5.8101692,1.58720
 92,-0.4123241,3.8324262,-0.8336181,-2.1355054,0.8116985,-2.0169137,0.4
 684778,-0.0688007,0.8548669,0.3803091,2.1651465,-0.5232928,0.3241369,-
 2.8292278,1.3297083,3.8618279,2.3145179,1.636178,1.3529419,2.1376257,1
 .1630075,1.8954872,1.0270772,0.9198682,1.7890995,0.9622309,1.5684665,0
 .8340866,0.6396286,0.5215047,0.8723861,1.1708134,1.974982,3.7058159,1.
 0137096,-2.32607,2.1816061,-0.1271585,-3.6267508,-0.0080748,-3.4887107
 ,5.9124009,2.1572588,-4.0319304,0.9061873,2.5733611,-3.5436764,-0.4812
 673,-1.9810018,-0.2761258,1.7836291,3.4401307,-7.1792523,1.1750587,-0.
 1325129,-2.8197742,0.4355264,-1.4339961,-1.1080819,-1.0339378,-0.07395
 53,-0.7699389,-0.5640373,-0.0248672,-2.3221544,0.4397852,-0.0902037,-2
 .5257782,0.5901032,-2.2153424,0.6571377,0.8701116,0.0528582,-1.6526728
 ,0.057103,-0.2607297,0.4939673,-0.4180429,0.6548078,0.1414889,-2.24706
 94,0.948863,-0.1330213,-0.3133471,-0.7007794,0.6782603,2.4359143,-9.57
 49444,5.2716336,2.7051418,1.5750611,-0.188601,-0.1402657,0.5269914,1.7
 822944,1.8337912,1.8815647,0.4479061,-0.0935332,0.0728727,1.2066389,0.
 4928823,0.6346002,1.381055,1.013588,-0.0678697\HyperPolar=-0.0099297,-
 0.0012251,-0.0119153,-0.0204608,0.0016426,-0.000155,-0.0135055,0.02167
 51,0.0141529,-0.0136739\PG=C01 [X(C6H10)]\NImag=1\\0.71564129,0.089534
 92,0.10747650,-0.02450815,0.10285359,0.74715244,-0.13570232,0.02812405
 ,-0.04174661,0.76447168,-0.00744851,-0.06034874,0.02155291,-0.00137181
 ,0.21049013,0.00517358,-0.05367414,-0.36186655,0.02304613,-0.01399097,
 0.73214104,-0.28882680,0.01224453,0.13611199,0.00524655,-0.00107378,-0
 .00556229,0.30261619,0.01715577,-0.03690807,-0.02304210,-0.01278549,0.
 00254152,0.01359559,-0.01582084,0.04308614,0.12760687,-0.01017507,-0.1
 4605114,0.03664780,-0.00554530,-0.01333727,-0.14561893,0.01116617,0.15
 403191,-0.26885880,-0.07815109,-0.12305307,0.00132558,0.00070037,-0.00
 162783,-0.02090270,-0.00934344,-0.01635084,0.28303773,-0.08364910,-0.0
 5619867,-0.06160841,0.00343656,0.00353840,0.02096037,0.00352365,0.0023
 2229,0.00234958,0.07994106,0.07440472,-0.12038085,-0.04460111,-0.14193
 567,-0.03422314,-0.01119020,-0.01657650,0.01569399,0.00698384,0.011484
 78,0.13621955,0.04774238,0.15003019,0.01524286,-0.05257256,0.05355912,
 -0.30559705,0.00519371,0.07492131,0.00119201,0.00547832,-0.00215659,-0
 .00027095,0.00810719,-0.00122499,0.70799378,-0.01449160,0.07257273,-0.
 04963851,-0.03843305,-0.06261316,0.06050029,-0.00066187,-0.00034712,0.
 00120088,0.00220509,-0.01194248,0.00091570,0.14927205,0.11343035,0.038
 22482,0.02204485,-0.05005571,0.12168106,-0.01048320,-0.18983684,-0.000
 83270,-0.00016924,-0.00707669,0.00126288,-0.00351295,0.00155178,-0.017
 76606,-0.01106897,0.74885194,0.00221230,-0.00034419,0.00283999,-0.2971
 3879,-0.01739680,-0.11925322,0.00126586,0.00054959,-0.00047627,0.00129
 645,-0.00038200,0.00073695,-0.02557712,-0.00517281,-0.01716568,0.31899
 010,0.00318758,0.00493906,0.00328651,-0.02605703,-0.04503994,-0.013013
 48,0.00028516,-0.00517320,0.00031576,-0.00116176,0.00672220,-0.0006749
 9,0.00296110,0.00476430,0.00010279,0.02129863,0.03106760,-0.03613378,-
 0.00609884,-0.01588027,-0.11947956,-0.00846188,-0.13382739,0.00060396,
 -0.00050371,0.00130246,0.00031999,0.00240085,-0.00563137,0.02211139,0.
 00336060,0.01209147,0.12947227,0.01007950,0.14169856,-0.00587880,0.000
 38805,0.00259246,0.00721934,-0.00651598,0.03545000,0.00005597,0.000268
 29,0.00159448,0.00002387,0.00004974,0.00024072,-0.06860376,-0.00108414
 ,-0.02491414,0.00134061,0.00058334,-0.00052645,0.06581619,0.00268201,-
 0.00040962,0.00464371,0.00430113,0.00311486,-0.01672635,0.00046776,0.0
 0083178,0.00010283,0.00034148,0.00068689,0.00087623,-0.00923297,-0.039
 41060,0.03991427,0.00001541,-0.00518798,0.00046572,-0.00005272,0.04521
 659,0.00413529,-0.00115616,0.00006232,-0.00678626,0.00286521,-0.015879
 25,-0.00020029,0.00039305,-0.00088121,-0.00009678,0.00008045,0.0003573
 5,-0.01648835,0.02875666,-0.36374229,0.00054548,-0.00019242,0.00123978
 ,0.01828152,-0.03298498,0.38866334,0.00089502,0.00237528,-0.00218142,-
 0.02776483,-0.00889906,-0.01445208,0.00029560,0.00090396,0.00007547,0.
 00079325,-0.00091233,0.00136363,-0.29277175,-0.08201724,-0.10380081,-0
 .00290774,-0.00157114,0.00360850,0.00062960,0.00037332,0.00074485,0.31
 660106,0.00197142,-0.01225250,0.00811292,0.01778210,0.00384495,-0.0097
 4209,0.00009835,0.00071826,0.00002236,-0.00122064,0.00136869,-0.000181
 82,-0.09902718,-0.05707456,-0.03366203,0.00141919,0.00680386,-0.001264
 21,0.00515253,0.00282892,0.00210707,0.08535469,0.07486835,0.00045177,0
 .00079513,0.00068187,0.01889715,0.00698218,0.01221323,-0.00029076,-0.0
 0019737,0.00005581,-0.00009532,-0.00084267,-0.00014756,-0.10705226,-0.
 03886271,-0.11710995,0.00328963,-0.00016898,-0.00150562,-0.03083890,-0
 .01179619,-0.01055585,0.11315870,0.03946961,0.11598861,-0.00564987,0.0
 1474933,-0.01024235,-0.01746867,0.01393948,0.02353065,-0.00022959,-0.0
 0057546,-0.00031950,0.00038911,-0.00097551,0.00000766,-0.01309537,-0.0
 3020969,-0.00755826,-0.00016852,0.00037087,-0.00031184,-0.00038624,0.0
 0390968,-0.00032871,0.00193160,-0.01014827,0.00066387,0.71560980,0.014
 74256,-0.07196726,0.05588132,0.06166273,-0.01527979,-0.08982771,0.0005
 5993,0.00606493,0.00042176,-0.00112339,0.00880046,-0.00013497,-0.08261
 892,0.09350176,0.02271909,-0.00036836,0.00071956,-0.00067876,0.0009601
 8,-0.01324108,-0.00142455,0.00451874,-0.02751383,0.00303552,0.08947688
 ,0.10743958,-0.01023559,0.05587788,-0.04267031,-0.03682632,0.00004302,
 0.05319284,-0.00035703,-0.00473708,0.00036159,0.00076837,-0.00715612,0
 .00036190,0.04525026,-0.07439164,-0.04254102,-0.00046731,0.00054558,0.
 00046119,-0.00156043,0.01972816,0.00004006,-0.00013406,0.00394828,-0.0
 0128738,-0.02447751,0.10276698,0.74721639,-0.01746982,0.06168871,-0.03
 684541,-0.02358952,0.00854107,0.04348305,0.00030913,-0.00469691,-0.000
 35662,0.00298454,-0.00837305,0.00036237,0.02484921,-0.03780956,-0.0070
 0484,0.00018904,0.00026958,0.00057761,0.00009657,0.00162619,0.00079328
 ,0.00060526,0.00377003,0.00096261,-0.13571417,0.02816095,-0.04166162,0
 .76437120,0.01394773,-0.01527816,0.00004340,0.00853669,-0.01542291,0.0
 0684980,0.00020741,-0.00227535,-0.00047073,0.00276171,-0.00049554,-0.0
 0152822,0.01157921,-0.02043711,0.01002535,-0.00024596,0.00039186,-0.00
 009576,-0.00021438,-0.00198057,0.00037140,0.00024536,-0.00001158,0.003
 07207,-0.00745564,-0.06036376,0.02160926,-0.00151923,0.21047293,0.0235
 2299,-0.08981011,0.05318079,0.04344842,0.00684019,-0.08290117,0.000609
 18,0.00518901,-0.00013584,-0.00070122,0.01035976,-0.00016084,-0.067336
 38,0.09901625,0.01604500,0.00056419,0.00017307,-0.00059617,-0.00009268
 ,-0.00689371,-0.00021290,0.00222863,-0.01282481,0.00173695,0.00529138,
 -0.05360466,-0.36194267,0.02310863,-0.01409324,0.73218715,-0.00022952,
 0.00056162,-0.00035860,0.00030817,0.00020820,0.00061133,-0.00002504,0.
 00009545,-0.00001649,-0.00000461,-0.00007525,-0.00000566,-0.00135860,-
 0.00039042,0.00023378,0.00019206,0.00000200,-0.00007297,-0.00036189,0.
 00039728,-0.00052132,0.00053941,0.00013456,0.00022330,-0.28886481,0.01
 224337,0.13602768,0.00523272,-0.00106971,-0.00555297,0.30266410,-0.000
 57327,0.00605659,-0.00473023,-0.00468830,-0.00227434,0.00518259,0.0000
 9576,-0.00069405,0.00004158,0.00007098,-0.00085233,0.00005321,0.018738
 79,-0.01255269,-0.00851719,0.00004081,0.00001199,0.00029033,0.00016685
 ,0.00139638,0.00038646,-0.00025827,0.00185542,-0.00092221,0.01715673,-
 0.03692616,-0.02301949,-0.01278983,0.00254674,0.01358342,-0.01581365,0
 .04308042,-0.00031992,0.00042451,0.00035964,-0.00035744,-0.00047034,-0
 .00013367,-0.00001657,0.00004145,-0.00003660,0.00005078,-0.00001471,-0
 .00002308,-0.00041937,0.00103293,0.00034902,0.00009430,0.00001017,-0.0
 0000617,-0.00021514,-0.00003604,0.00016438,-0.00013747,-0.00042609,-0.
 00020326,0.12752644,-0.01015352,-0.14595831,0.03664974,-0.00554455,-0.
 01332297,-0.14553622,0.01114642,0.15392440,0.00038918,-0.00112336,0.00
 076771,0.00298281,0.00276754,-0.00069946,-0.00000457,0.00007092,0.0000
 5080,-0.00008026,0.00018816,-0.00000867,-0.00006758,0.00555073,0.00245
 000,0.00014496,-0.00055016,0.00000475,0.00010305,-0.00096364,0.0004970
 7,0.00008487,0.00075349,0.00036004,-0.26882049,-0.07808360,-0.12314161
 ,0.00134084,0.00070859,-0.00161904,-0.02090374,-0.00933882,-0.01636172
 ,0.28298841,-0.00097724,0.00881001,-0.00716499,-0.00837597,-0.00049956
 ,0.01037319,-0.00007517,-0.00085439,-0.00001406,0.00018836,-0.00114127
 ,0.00014196,-0.00196723,-0.02706694,-0.01168663,0.00065898,-0.00009749
 ,0.00000494,-0.00032038,0.00179963,0.00042580,0.00077316,-0.00188645,0
 .00034794,-0.08357850,-0.05611088,-0.06161344,0.00342958,0.00353325,0.
 02098148,0.00352035,0.00231985,0.00234772,0.07985689,0.07436767,0.0000
 0822,-0.00013395,0.00036096,0.00036089,-0.00152799,-0.00015885,-0.0000
 0576,0.00005312,-0.00002313,-0.00000877,0.00014189,0.00004483,0.001076
 92,0.00088609,0.00024964,0.00013382,-0.00002719,0.00011309,0.00016290,
 0.00037947,0.00029088,-0.00015596,0.00035928,-0.00000840,-0.12046707,-
 0.04459599,-0.14205628,-0.03421610,-0.01118105,-0.01658809,0.01568506,
 0.00697846,0.01148569,0.13630685,0.04773300,0.15015919,-0.01314431,-0.
 08257044,0.04521451,0.02481170,0.01157200,-0.06731238,-0.00136211,0.01
 874943,-0.00042234,-0.00006476,-0.00199313,0.00107832,-0.04265476,0.05
 436191,0.01631376,-0.00010384,0.00066038,-0.00048480,-0.00006670,-0.00
 433185,-0.00059545,0.00089299,-0.00663677,0.00028055,0.01522627,-0.052
 54659,0.05355155,-0.30559633,0.00524559,0.07487014,0.00119417,0.005470
 09,-0.00215189,-0.00026899,0.00811129,-0.00122463,0.70806948,-0.030194
 88,0.09353269,-0.07439802,-0.03778316,-0.02044348,0.09905439,-0.000383
 90,-0.01257992,0.00103639,0.00555089,-0.02702260,0.00088942,0.05439853
 ,-0.06794425,-0.02174574,-0.00077102,0.00071882,0.00008364,0.00055117,
 0.00587379,0.00043901,-0.00090836,0.00853761,-0.00049218,-0.01451218,0
 .07259083,-0.04964373,-0.03842543,-0.06261743,0.06050949,-0.00066452,-
 0.00033879,0.00120292,0.00220439,-0.01195588,0.00091443,0.14908660,0.1
 1333440,-0.00757346,0.02273474,-0.04256446,-0.00700065,0.01003485,0.01
 605373,0.00023734,-0.00852860,0.00034986,0.00245262,-0.01168150,0.0002
 5090,0.01633246,-0.02174897,-0.00969569,-0.00038674,0.00000244,0.00040
 289,-0.00040261,0.00243545,0.00038470,-0.00033764,0.00360734,0.0001292
 3,0.03822534,0.02205121,-0.05004120,0.12157088,-0.01048232,-0.18970381
 ,-0.00083051,-0.00016581,-0.00707668,0.00126329,-0.00351845,0.00155078
 ,-0.01764741,-0.01126144,0.74884079,-0.00016754,-0.00036861,-0.0004666
 7,0.00018907,-0.00024635,0.00056415,0.00019200,0.00004064,0.00009431,0
 .00014512,0.00065946,0.00013353,-0.00010247,-0.00076996,-0.00038646,0.
 00001497,0.00005039,0.00004869,0.00006172,0.00026240,0.00002348,0.0001
 8650,0.00038459,-0.00000020,0.00222491,-0.00034150,0.00284704,-0.29705
 553,-0.01730529,-0.11931653,0.00126623,0.00054859,-0.00047603,0.001295
 77,-0.00038199,0.00073904,-0.02557942,-0.00516153,-0.01717977,0.318898
 41,0.00037070,0.00072276,0.00054327,0.00026900,0.00039185,0.00017570,0
 .00000212,0.00001175,0.00001042,-0.00054953,-0.00009833,-0.00002736,0.
 00066103,0.00071474,0.00000058,0.00005062,-0.00056282,0.00001386,0.000
 00315,0.00002351,-0.00000746,-0.00033188,-0.00010097,-0.00044456,0.003
 19566,0.00494472,0.00328763,-0.02596558,-0.04502208,-0.01296954,0.0002
 8432,-0.00517603,0.00031420,-0.00116083,0.00672448,-0.00067350,0.00296
 275,0.00475768,0.00010608,0.02119466,0.03105314,-0.00031238,-0.0006788
 4,0.00046118,0.00057761,-0.00009557,-0.00059635,-0.00007284,0.00029062
 ,-0.00000605,0.00000454,0.00000513,0.00011311,-0.00048501,0.00008474,0
 .00040143,0.00004850,0.00001377,-0.00004915,0.00018302,-0.00013127,0.0
 0011274,0.00007877,0.00053433,0.00007389,-0.03612724,-0.00608603,-0.01
 589040,-0.11954304,-0.00841958,-0.13391862,0.00060392,-0.00050461,0.00
 130233,0.00032281,0.00240270,-0.00563042,0.02210006,0.00335093,0.01209
 382,0.12954018,0.01003210,0.14179661,-0.00038447,0.00095707,-0.0015545
 5,0.00009657,-0.00021533,-0.00009505,-0.00036148,0.00016803,-0.0002153
 6,0.00010148,-0.00031906,0.00016270,-0.00006739,0.00055264,-0.00040213
 ,0.00006215,0.00000338,0.00018318,-0.00005242,0.00010212,0.00000255,0.
 00000292,-0.00003792,0.00004280,-0.00588115,0.00038957,0.00259265,0.00
 720902,-0.00653269,0.03545127,0.00005549,0.00026878,0.00159494,0.00002
 372,0.00004964,0.00024089,-0.06858563,-0.00107665,-0.02481051,0.001340
 59,0.00058183,-0.00052635,0.06579910,0.00390589,-0.01324564,0.01973141
 ,0.00162263,-0.00198220,-0.00689580,0.00039745,0.00139860,-0.00003543,
 -0.00096469,0.00179992,0.00037633,-0.00433700,0.00587433,0.00243634,0.
 00026267,0.00002297,-0.00013174,0.00010228,-0.00069335,0.00002746,0.00
 010311,-0.00085085,-0.00000392,0.00268862,-0.00041530,0.00464483,0.004
 30954,0.00311898,-0.01673374,0.00046823,0.00083066,0.00010226,0.000340
 78,0.00068833,0.00087673,-0.00923284,-0.03942906,0.04007351,0.00001317
 ,-0.00518584,0.00046420,-0.00005760,0.04523638,-0.00032295,-0.00142915
 ,0.00004858,0.00079325,0.00037102,-0.00021745,-0.00052209,0.00038691,0
 .00016539,0.00049509,0.00042762,0.00028896,-0.00059844,0.00044241,0.00
 038606,0.00002376,-0.00000798,0.00011249,0.00000250,0.00002724,-0.0000
 0996,-0.00000617,-0.00008775,-0.00003392,0.00413461,-0.00115658,0.0000
 6727,-0.00677486,0.00287237,-0.01587713,-0.00019965,0.00039326,-0.0008
 8057,-0.00009679,0.00008103,0.00035758,-0.01639396,0.02890823,-0.36376
 315,0.00054536,-0.00019550,0.00124000,0.01817025,-0.03314725,0.3886854
 1,0.00193160,0.00450671,-0.00012896,0.00060972,0.00024524,0.00222211,0
 .00053899,-0.00025827,-0.00013678,0.00008494,0.00077362,-0.00015610,0.
 00088894,-0.00090208,-0.00033521,0.00018750,-0.00033231,0.00007906,0.0
 0000287,0.00010240,-0.00000636,-0.00001376,0.00024983,-0.00005299,0.00
 089718,0.00236747,-0.00217606,-0.02776217,-0.00888939,-0.01447603,0.00
 029585,0.00090475,0.00007557,0.00079202,-0.00091178,0.00136369,-0.2927
 6776,-0.08190995,-0.10391264,-0.00291032,-0.00156801,0.00360745,0.0006
 4149,0.00037775,0.00075008,0.31658293,-0.01016398,-0.02750168,0.003933
 22,0.00375993,-0.00001760,-0.01282138,0.00013344,0.00185683,-0.0004271
 3,0.00075459,-0.00189234,0.00035961,-0.00663406,0.00853069,0.00360267,
 0.00038524,-0.00010079,0.00053547,-0.00003796,-0.00084913,-0.00008700,
 0.00025066,-0.00113529,0.00002834,0.00196799,-0.01224379,0.00810988,0.
 01778395,0.00384073,-0.00972287,0.00009816,0.00071633,0.00002266,-0.00
 122109,0.00136963,-0.00018280,-0.09890842,-0.05701440,-0.03365851,0.00
 142134,0.00680143,-0.00126260,0.00516619,0.00283207,0.00211411,0.08524
 402,0.07480731,0.00066354,0.00302667,-0.00128367,0.00096766,0.00307607
 ,0.00173046,0.00022280,-0.00092166,-0.00020386,0.00036002,0.00034833,-
 0.00000878,0.00027599,-0.00048575,0.00013186,0.00000033,-0.00044453,0.
 00007421,0.00004274,-0.00000454,-0.00003409,-0.00005295,0.00002761,-0.
 00002765,0.00045252,0.00078689,0.00068634,0.01889431,0.00697181,0.0122
 1034,-0.00029067,-0.00019619,0.00005586,-0.00009602,-0.00084219,-0.000
 14747,-0.10717602,-0.03884774,-0.11721171,0.00328988,-0.00016593,-0.00
 150410,-0.03083729,-0.01178518,-0.01056956,0.11328315,0.03945633,0.116
 10181\\0.00003167,0.00005894,-0.00004646,0.00004097,-0.00001650,0.0000
 1178,-0.00001463,-0.00000438,-0.00001019,-0.00000261,-0.00000249,-0.00
 001045,0.00001045,0.00009354,0.00004470,0.00000430,0.00000103,0.000002
 53,-0.00001596,-0.00000003,0.00001162,-0.00002478,0.00001285,0.0000042
 5,-0.00004279,-0.00010458,0.00003986,-0.00002886,0.00003330,-0.0000304
 3,-0.00000487,0.00001938,0.00002287,0.00000400,-0.00003238,0.00001110,
 0.00002053,-0.00004362,-0.00004792,-0.00000782,-0.00000229,-0.00000419
 ,0.00001364,0.00000635,0.00000346,0.00001676,-0.00001912,-0.00000253\\
 \@


 Sometimes the fool who rushes in gets the job done.
                                    -- Al Bernstein
 Job cpu time:  0 days  0 hours  0 minutes 17.7 seconds.
 File lengths (MBytes):  RWF=     17 Int=      0 D2E=      0 Chk=      2 Scr=      1
 Normal termination of Gaussian 09 at Mon Mar 15 14:09:21 2010.
