<?xml version="1.0" encoding="UTF-8"?>
<module cmlx:templateRef="gaussian.log" xmlns="http://www.xml-cml.org/schema" xmlns:cmlx="http://www.xml-cml.org/schema/cmlx"> Entering Gaussian System, Link 0=g03 Initial command: /apps/gaussian/g09/g09/l1.exe /home/scan-user-1/run/25818/Gau-2970.inp -scrdir=/home/scan-user-1/run/25818/ Entering Link 1 = /apps/gaussian/g09/g09/l1.exe PID=      2971.  <module cmlx:lineCount="48" cmlx:templateRef="l1.legal"><scalar dataType="xsd:string" dictRef="g:l1.legal">Copyright (c) 1988,1990,1992,1993,1995,1998,2003,2009, Gaussian, Inc.</scalar></module>  <module cmlx:lineCount="18" cmlx:templateRef="l1.citation"><list cmlx:templateRef="citation"><scalar dataType="xsd:string" dictRef="g:l1.citation">Cite this work as:</scalar></list></module> <module cmlx:lineCount="26" cmlx:templateRef="l1.end"><scalar dataType="xsd:string" dictRef="cc:run.date">12-Mar-2010</scalar><scalar dataType="xsd:string" dictRef="cc:program">Gaussian 09</scalar><scalar dataType="xsd:string" dictRef="cc:version">EM64L-G09RevA.02</scalar><scalar dataType="xsd:string" dictRef="cc:program.date">11-Jun-2009</scalar> Will use up to    4 processors via shared memory. %mem=7000MB %NoSave %Chk=chk.chk %rwf=/tmp/pbs.3637348.cx1/rwf<scalar dataType="xsd:string" dictRef="cc:keywords">r=9</scalar><list cmlx:templateRef="control"><scalar dataType="xsd:string" dictRef="g:control">1/10=4,30=1,38=1,57=2/1,3</scalar></list><list cmlx:templateRef="control"><scalar dataType="xsd:string" dictRef="g:control">2/12=2,17=6,18=5,40=1/2</scalar></list><list cmlx:templateRef="control"><scalar dataType="xsd:string" dictRef="g:control">3/5=6,6=3,11=2,16=1,25=1,30=1,71=2,74=-5,75=-5/1,2,3</scalar></list><list cmlx:templateRef="control"><scalar dataType="xsd:string" dictRef="g:control">4//1</scalar></list><list cmlx:templateRef="control"><scalar dataType="xsd:string" dictRef="g:control">5/5=2,6=9,38=5,98=1/2</scalar></list><list cmlx:templateRef="control"><scalar dataType="xsd:string" dictRef="g:control">8/6=4,10=90,11=11/1</scalar></list><list cmlx:templateRef="control"><scalar dataType="xsd:string" dictRef="g:control">11/6=1,8=1,9=11,15=111,16=1/1,2,10</scalar></list><list cmlx:templateRef="control"><scalar dataType="xsd:string" dictRef="g:control">10/6=1/2</scalar></list><list cmlx:templateRef="control"><scalar dataType="xsd:string" dictRef="g:control">6/7=2,8=2,9=2,10=2,18=1,28=1/1,7</scalar></list><list cmlx:templateRef="control"><scalar dataType="xsd:string" dictRef="g:control">7/8=1,10=1,25=1/1,2,3,16</scalar></list><list cmlx:templateRef="control"><scalar dataType="xsd:string" dictRef="g:control">1/10=4,30=1/3</scalar></list><list cmlx:templateRef="control"><scalar dataType="xsd:string" dictRef="g:control">99//99</scalar></list></module><module cmlx:lineCount="3" cmlx:templateRef="l101.title"><scalar dataType="xsd:string" dictRef="cc:title" cmlx:templateRef="title">trans form Fq Optimisation 1</scalar></module><module cmlx:lineCount="20" cmlx:templateRef="l101"><list cmlx:templateRef="rest"><scalar dataType="xsd:string" dictRef="x:l101"/></list></module><module cmlx:lineCount="6" cmlx:templateRef="l103"><list cmlx:templateRef="berny"><scalar dataType="xsd:string" dictRef="g:optimization">Initialization pass.</scalar></list><module cmlx:lineCount="2" cmlx:templateRef="l103.trust"><scalar dataType="xsd:double" dictRef="g:trustrad">0.3</scalar><scalar dataType="xsd:double" dictRef="g:fncerr">1.0E-7</scalar><scalar dataType="xsd:double" dictRef="g:grderr">1.0E-7</scalar><scalar dataType="xsd:integer" dictRef="g:nstep">2</scalar><scalar dataType="xsd:integer" dictRef="g:allowedstep">2</scalar></module> GradGradGradGradGradGradGradGradGradGradGradGradGradGradGradGradGradGrad</module><module cmlx:lineCount="23" cmlx:templateRef="l202.orient"><molecule id="mol.l202.orient" cmlx:templateRef="atom"><atomArray><atom id="a1" elementType="Mo" x3="1.0E-6" y3="0.056938" z3="-3.81E-4"><scalar dataType="xsd:integer" dictRef="cc:serial">1</scalar><scalar dataType="xsd:integer" dictRef="g:atomicType">0</scalar><scalar dataType="xsd:integer" dictRef="compchem:atomicNumber">42</scalar></atom><atom id="a2" elementType="P" x3="2.444312" y3="0.001289" z3="-8.0E-5"><scalar dataType="xsd:integer" dictRef="cc:serial">2</scalar><scalar dataType="xsd:integer" dictRef="g:atomicType">0</scalar><scalar dataType="xsd:integer" dictRef="compchem:atomicNumber">15</scalar></atom><atom id="a3" elementType="P" x3="-2.444309" y3="0.00129" z3="7.9E-5"><scalar dataType="xsd:integer" dictRef="cc:serial">3</scalar><scalar dataType="xsd:integer" dictRef="g:atomicType">0</scalar><scalar dataType="xsd:integer" dictRef="compchem:atomicNumber">15</scalar></atom><atom id="a4" elementType="Cl" x3="3.447989" y3="-1.050059" z3="1.706158"><scalar dataType="xsd:integer" dictRef="cc:serial">4</scalar><scalar dataType="xsd:integer" dictRef="g:atomicType">0</scalar><scalar dataType="xsd:integer" dictRef="compchem:atomicNumber">17</scalar></atom><atom id="a5" elementType="Cl" x3="3.619726" y3="1.908573" z3="-1.0E-5"><scalar dataType="xsd:integer" dictRef="cc:serial">5</scalar><scalar dataType="xsd:integer" dictRef="g:atomicType">0</scalar><scalar dataType="xsd:integer" dictRef="compchem:atomicNumber">17</scalar></atom><atom id="a6" elementType="Cl" x3="3.449284" y3="-1.050988" z3="-1.704969"><scalar dataType="xsd:integer" dictRef="cc:serial">6</scalar><scalar dataType="xsd:integer" dictRef="g:atomicType">0</scalar><scalar dataType="xsd:integer" dictRef="compchem:atomicNumber">17</scalar></atom><atom id="a7" elementType="Cl" x3="-3.448206" y3="-1.04725" z3="1.707901"><scalar dataType="xsd:integer" dictRef="cc:serial">7</scalar><scalar dataType="xsd:integer" dictRef="g:atomicType">0</scalar><scalar dataType="xsd:integer" dictRef="compchem:atomicNumber">17</scalar></atom><atom id="a8" elementType="Cl" x3="-3.619775" y3="1.908539" z3="-0.003292"><scalar dataType="xsd:integer" dictRef="cc:serial">8</scalar><scalar dataType="xsd:integer" dictRef="g:atomicType">0</scalar><scalar dataType="xsd:integer" dictRef="compchem:atomicNumber">17</scalar></atom><atom id="a9" elementType="Cl" x3="-3.449007" y3="-1.053818" z3="-1.703227"><scalar dataType="xsd:integer" dictRef="cc:serial">9</scalar><scalar dataType="xsd:integer" dictRef="g:atomicType">0</scalar><scalar dataType="xsd:integer" dictRef="compchem:atomicNumber">17</scalar></atom><atom id="a10" elementType="C" x3="-9.0E-6" y3="2.11687" z3="-0.005509"><scalar dataType="xsd:integer" dictRef="cc:serial">10</scalar><scalar dataType="xsd:integer" dictRef="g:atomicType">0</scalar><scalar dataType="xsd:integer" dictRef="compchem:atomicNumber">6</scalar></atom><atom id="a11" elementType="C" x3="-1.95E-4" y3="0.069813" z3="-2.060752"><scalar dataType="xsd:integer" dictRef="cc:serial">11</scalar><scalar dataType="xsd:integer" dictRef="g:atomicType">0</scalar><scalar dataType="xsd:integer" dictRef="compchem:atomicNumber">6</scalar></atom><atom id="a12" elementType="C" x3="2.08E-4" y3="0.079888" z3="2.059901"><scalar dataType="xsd:integer" dictRef="cc:serial">12</scalar><scalar dataType="xsd:integer" dictRef="g:atomicType">0</scalar><scalar dataType="xsd:integer" dictRef="compchem:atomicNumber">6</scalar></atom><atom id="a13" elementType="C" x3="-1.3E-5" y3="-2.002964" z3="0.004594"><scalar dataType="xsd:integer" dictRef="cc:serial">13</scalar><scalar dataType="xsd:integer" dictRef="g:atomicType">0</scalar><scalar dataType="xsd:integer" dictRef="compchem:atomicNumber">6</scalar></atom><atom id="a14" elementType="O" x3="-4.6E-5" y3="3.289079" z3="-0.008509"><scalar dataType="xsd:integer" dictRef="cc:serial">14</scalar><scalar dataType="xsd:integer" dictRef="g:atomicType">0</scalar><scalar dataType="xsd:integer" dictRef="compchem:atomicNumber">8</scalar></atom><atom id="a15" elementType="O" x3="-3.21E-4" y3="0.094041" z3="-3.233166"><scalar dataType="xsd:integer" dictRef="cc:serial">15</scalar><scalar dataType="xsd:integer" dictRef="g:atomicType">0</scalar><scalar dataType="xsd:integer" dictRef="compchem:atomicNumber">8</scalar></atom><atom id="a16" elementType="O" x3="3.55E-4" y3="0.109834" z3="3.232188"><scalar dataType="xsd:integer" dictRef="cc:serial">16</scalar><scalar dataType="xsd:integer" dictRef="g:atomicType">0</scalar><scalar dataType="xsd:integer" dictRef="compchem:atomicNumber">8</scalar></atom><atom id="a17" elementType="O" x3="-1.8E-5" y3="-3.176287" z3="0.00737"><scalar dataType="xsd:integer" dictRef="cc:serial">17</scalar><scalar dataType="xsd:integer" dictRef="g:atomicType">0</scalar><scalar dataType="xsd:integer" dictRef="compchem:atomicNumber">8</scalar></atom></atomArray><formula formalCharge="0" concise="C 4 Cl 6 Mo 1 O 4 P 2"><atomArray elementType="C Cl Mo O P" count="4.0 6.0 1.0 4.0 2.0"/></formula><bondArray><bond atomRefs2="a1 a2" id="a1_a2" order="S"/><bond atomRefs2="a1 a3" id="a1_a3" order="S"/><bond atomRefs2="a1 a10" id="a1_a10" order="S"/><bond atomRefs2="a1 a11" id="a1_a11" order="S"/><bond atomRefs2="a1 a12" id="a1_a12" order="S"/><bond atomRefs2="a1 a13" id="a1_a13" order="S"/><bond atomRefs2="a2 a4" id="a2_a4" order="S"/><bond atomRefs2="a2 a5" id="a2_a5" order="S"/><bond atomRefs2="a2 a6" id="a2_a6" order="S"/><bond atomRefs2="a3 a7" id="a3_a7" order="S"/><bond atomRefs2="a3 a8" id="a3_a8" order="S"/><bond atomRefs2="a3 a9" id="a3_a9" order="S"/><bond atomRefs2="a10 a14" id="a10_a14" order="S"/><bond atomRefs2="a11 a15" id="a11_a15" order="S"/><bond atomRefs2="a12 a16" id="a12_a16" order="S"/><bond atomRefs2="a13 a17" id="a13_a17" order="S"/></bondArray><property dictRef="cml:molmass"><scalar dataType="xsd:double" units="unit:dalton" xmlns:unit="http://www.xml-cml.org/unit/si/">482.645922</scalar></property></molecule></module><module cmlx:lineCount="43" cmlx:templateRef="l202.distmat"><array dataType="xsd:double" size="150" dictRef="cc:distance">0.0 2.444944 0.0 2.444943 4.888621 0.0 4.003291 2.241417 6.223762 0.0 4.065828 2.240386 6.356906 3.41965 0.0 4.003832 2.241406 6.224863 3.411127 3.419786 0.0 4.003447 6.224018 2.241406 6.896196 7.849173 7.695652 0.0 4.065859 6.356946 2.240386 7.850402 7.239502 7.850229 3.419694 0.0 4.003638 6.224562 2.241411 7.693665 7.85135 6.898292 3.411134 3.419722 0.0 2.059938 3.232711 3.232694 4.98477 3.625727 4.982079 4.983723 3.625757 4.983081 0.0 2.060411 3.197918 3.19772 5.228164 4.553188 3.644404 5.228705 4.551419 3.644815 2.90077 0.0 2.06041 3.197396 3.19761 3.645423 4.548432 5.229651 3.644983 4.550275 5.229102 2.900899 4.120665 0.0 2.059908 3.160977 3.160955 3.961321 5.329414 3.965667 3.962913 5.329408 3.963974 4.119846 2.9261 2.926185 0.0 3.232151 4.096892 4.096834 5.801478 3.874096 5.797589 5.799967 3.874062 5.798979 1.172213 3.817771 3.818013 5.292059 0.0 3.232998 4.054341 4.054079 6.131617 5.181753 3.942874 6.132259 5.17928 3.943568 3.809148 1.172664 5.293086 3.857528 4.539458 0.0 3.233002 4.053673 4.053972 3.944655 5.175173 6.133363 3.943966 5.177742 6.13274 3.809314 5.293091 1.172669 3.857626 4.539793 6.465373 3.233234 4.008964 4.008941 4.392662 6.241667 4.398487 4.394838 6.241651 4.396196 5.293173 3.848934 3.849098 1.173326 6.465385 4.603924</array></module><module cmlx:lineCount="6" cmlx:templateRef="l202.stoich"><scalar dataType="xsd:string" dictRef="cc:formula" cmlx:templateRef="stoich">C4Cl6MoO4P2</scalar><scalar dataType="xsd:string" dictRef="cc:frameworkgroup" cmlx:templateRef="framework">C1[X(C4Cl6MoO4P2)]</scalar><scalar dataType="xsd:integer" dictRef="cc:degfreedom" cmlx:templateRef="degfreedom">45</scalar><scalar dataType="xsd:string" dictRef="cc:pointgroup">C1</scalar><scalar dataType="xsd:integer" dictRef="cc:operatorcount">1</scalar><scalar dataType="xsd:string" dictRef="cc:largestabelian">C1</scalar><scalar dataType="xsd:integer" dictRef="cc:operatorcount">1</scalar><scalar dataType="xsd:string" dictRef="cc:largestconciseabelian">C1</scalar><scalar dataType="xsd:integer" dictRef="cc:operatorcount">1</scalar></module><module cmlx:lineCount="23" cmlx:templateRef="l202.orient"><molecule id="a17" cmlx:templateRef="atom"><atomArray><atom id="a1" elementType="Mo" x3="1.0E-6" y3="0.056938" z3="-3.81E-4"><scalar dataType="xsd:integer" dictRef="cc:serial">1</scalar><scalar dataType="xsd:integer" dictRef="g:atomicType">0</scalar><scalar dataType="xsd:integer" dictRef="compchem:atomicNumber">42</scalar></atom><atom id="a2" elementType="P" x3="2.444312" y3="0.001289" z3="-8.0E-5"><scalar dataType="xsd:integer" dictRef="cc:serial">2</scalar><scalar dataType="xsd:integer" dictRef="g:atomicType">0</scalar><scalar dataType="xsd:integer" dictRef="compchem:atomicNumber">15</scalar></atom><atom id="a3" elementType="P" x3="-2.444309" y3="0.00129" z3="7.9E-5"><scalar dataType="xsd:integer" dictRef="cc:serial">3</scalar><scalar dataType="xsd:integer" dictRef="g:atomicType">0</scalar><scalar dataType="xsd:integer" dictRef="compchem:atomicNumber">15</scalar></atom><atom id="a4" elementType="Cl" x3="3.447989" y3="-1.050059" z3="1.706158"><scalar dataType="xsd:integer" dictRef="cc:serial">4</scalar><scalar dataType="xsd:integer" dictRef="g:atomicType">0</scalar><scalar dataType="xsd:integer" dictRef="compchem:atomicNumber">17</scalar></atom><atom id="a5" elementType="Cl" x3="3.619726" y3="1.908573" z3="-1.0E-5"><scalar dataType="xsd:integer" dictRef="cc:serial">5</scalar><scalar dataType="xsd:integer" dictRef="g:atomicType">0</scalar><scalar dataType="xsd:integer" dictRef="compchem:atomicNumber">17</scalar></atom><atom id="a6" elementType="Cl" x3="3.449284" y3="-1.050988" z3="-1.704969"><scalar dataType="xsd:integer" dictRef="cc:serial">6</scalar><scalar dataType="xsd:integer" dictRef="g:atomicType">0</scalar><scalar dataType="xsd:integer" dictRef="compchem:atomicNumber">17</scalar></atom><atom id="a7" elementType="Cl" x3="-3.448206" y3="-1.04725" z3="1.707901"><scalar dataType="xsd:integer" dictRef="cc:serial">7</scalar><scalar dataType="xsd:integer" dictRef="g:atomicType">0</scalar><scalar dataType="xsd:integer" dictRef="compchem:atomicNumber">17</scalar></atom><atom id="a8" elementType="Cl" x3="-3.619775" y3="1.908539" z3="-0.003292"><scalar dataType="xsd:integer" dictRef="cc:serial">8</scalar><scalar dataType="xsd:integer" dictRef="g:atomicType">0</scalar><scalar dataType="xsd:integer" dictRef="compchem:atomicNumber">17</scalar></atom><atom id="a9" elementType="Cl" x3="-3.449007" y3="-1.053818" z3="-1.703227"><scalar dataType="xsd:integer" dictRef="cc:serial">9</scalar><scalar dataType="xsd:integer" dictRef="g:atomicType">0</scalar><scalar dataType="xsd:integer" dictRef="compchem:atomicNumber">17</scalar></atom><atom id="a10" elementType="C" x3="-9.0E-6" y3="2.11687" z3="-0.005509"><scalar dataType="xsd:integer" dictRef="cc:serial">10</scalar><scalar dataType="xsd:integer" dictRef="g:atomicType">0</scalar><scalar dataType="xsd:integer" dictRef="compchem:atomicNumber">6</scalar></atom><atom id="a11" elementType="C" x3="-1.95E-4" y3="0.069813" z3="-2.060752"><scalar dataType="xsd:integer" dictRef="cc:serial">11</scalar><scalar dataType="xsd:integer" dictRef="g:atomicType">0</scalar><scalar dataType="xsd:integer" dictRef="compchem:atomicNumber">6</scalar></atom><atom id="a12" elementType="C" x3="2.08E-4" y3="0.079888" z3="2.059901"><scalar dataType="xsd:integer" dictRef="cc:serial">12</scalar><scalar dataType="xsd:integer" dictRef="g:atomicType">0</scalar><scalar dataType="xsd:integer" dictRef="compchem:atomicNumber">6</scalar></atom><atom id="a13" elementType="C" x3="-1.3E-5" y3="-2.002964" z3="0.004594"><scalar dataType="xsd:integer" dictRef="cc:serial">13</scalar><scalar dataType="xsd:integer" dictRef="g:atomicType">0</scalar><scalar dataType="xsd:integer" dictRef="compchem:atomicNumber">6</scalar></atom><atom id="a14" elementType="O" x3="-4.6E-5" y3="3.289079" z3="-0.008509"><scalar dataType="xsd:integer" dictRef="cc:serial">14</scalar><scalar dataType="xsd:integer" dictRef="g:atomicType">0</scalar><scalar dataType="xsd:integer" dictRef="compchem:atomicNumber">8</scalar></atom><atom id="a15" elementType="O" x3="-3.21E-4" y3="0.094041" z3="-3.233166"><scalar dataType="xsd:integer" dictRef="cc:serial">15</scalar><scalar dataType="xsd:integer" dictRef="g:atomicType">0</scalar><scalar dataType="xsd:integer" dictRef="compchem:atomicNumber">8</scalar></atom><atom id="a16" elementType="O" x3="3.55E-4" y3="0.109834" z3="3.232188"><scalar dataType="xsd:integer" dictRef="cc:serial">16</scalar><scalar dataType="xsd:integer" dictRef="g:atomicType">0</scalar><scalar dataType="xsd:integer" dictRef="compchem:atomicNumber">8</scalar></atom><atom id="a17" elementType="O" x3="-1.8E-5" y3="-3.176287" z3="0.00737"><scalar dataType="xsd:integer" dictRef="cc:serial">17</scalar><scalar dataType="xsd:integer" dictRef="g:atomicType">0</scalar><scalar dataType="xsd:integer" dictRef="compchem:atomicNumber">8</scalar></atom></atomArray><formula formalCharge="0" concise="C 4 Cl 6 Mo 1 O 4 P 2"><atomArray elementType="C Cl Mo O P" count="4.0 6.0 1.0 4.0 2.0"/></formula><bondArray><bond atomRefs2="a1 a2" id="a1_a2" order="S"/><bond atomRefs2="a1 a3" id="a1_a3" order="S"/><bond atomRefs2="a1 a10" id="a1_a10" order="S"/><bond atomRefs2="a1 a11" id="a1_a11" order="S"/><bond atomRefs2="a1 a12" id="a1_a12" order="S"/><bond atomRefs2="a1 a13" id="a1_a13" order="S"/><bond atomRefs2="a2 a4" id="a2_a4" order="S"/><bond atomRefs2="a2 a5" id="a2_a5" order="S"/><bond atomRefs2="a2 a6" id="a2_a6" order="S"/><bond atomRefs2="a3 a7" id="a3_a7" order="S"/><bond atomRefs2="a3 a8" id="a3_a8" order="S"/><bond atomRefs2="a3 a9" id="a3_a9" order="S"/><bond atomRefs2="a10 a14" id="a10_a14" order="S"/><bond atomRefs2="a11 a15" id="a11_a15" order="S"/><bond atomRefs2="a12 a16" id="a12_a16" order="S"/><bond atomRefs2="a13 a17" id="a13_a17" order="S"/></bondArray><property dictRef="cml:molmass"><scalar dataType="xsd:double" units="unit:dalton" xmlns:unit="http://www.xml-cml.org/unit/si/">482.645922</scalar></property></molecule></module><module cmlx:lineCount="1" cmlx:templateRef="l202.rotconst"><array dataType="xsd:double" size="3" dictRef="cc:rotconst" cmlx:templateRef="rotconst">0.2991645 0.1332368 0.133126</array></module><scalar dataType="xsd:integer" dictRef="g:buffer" cmlx:templateRef="buffer">131072</scalar><scalar dataType="xsd:string" dictRef="g:raffenetti" cmlx:templateRef="raff">Raffenetti</scalar><scalar dataType="xsd:string" dictRef="g:twoe" cmlx:templateRef="twoe">Two-electron</scalar><module cmlx:lineCount="9" cmlx:templateRef="l301.basis"><scalar dataType="xsd:string" dictRef="cc:basis">LANL2DZ</scalar><scalar dataType="xsd:string" dictRef="cc:diffuse">(5D, 7F)</scalar><list cmlx:lineCount="1" cmlx:templateRef="symmadapt"><array dataType="xsd:integer" dictRef="cc:adapted" size="1">158</array><array dataType="xsd:string" dictRef="cc:symm" size="1">A</array></list><scalar dataType="xsd:integer" dictRef="cc:basiscount">158</scalar><scalar dataType="xsd:integer" dictRef="g:primbasis">345</scalar><scalar dataType="xsd:integer" dictRef="cc:cartesianbasis">160</scalar><scalar dataType="xsd:integer" dictRef="cc:alphae">61</scalar><scalar dataType="xsd:integer" dictRef="cc:betae">61</scalar> NAtoms=   17 NActive=   17 NUniq=   17 SFac= 7.50D-01 NAtFMM=   80 NAOKFM=F Big=F</module><module cmlx:lineCount="1" cmlx:templateRef="l302.basis"><list cmlx:templateRef="onee"><scalar dataType="xsd:string" dictRef="g:onee">One-electron integrals</scalar></list></module>   1 Symmetry operations used in ECPInt. ECPInt:  NShTT=    3240 NPrTT=   17458 LenC2=    3160 LenP2D=   12245. LDataN:  DoStor=T MaxTD1= 5 Len=  102 NBasis=   158 RedAO= T  NBF=   158 NBsUse=   158 1.00D-06 NBFU=   158 Defaulting to unpruned grid for atomic number  42. Harris functional with IExCor=  402 diagonalized for initial guess. ExpMin= 2.47D-02 ExpMax= 7.82D+03 ExpMxC= 2.73D+02 IAcc=3 IRadAn=         5 AccDes= 0.00D+00 HarFok:  IExCor=  402 AccDes= 0.00D+00 IRadAn=         5 IDoV= 1 ScaDFX=  1.000000  1.000000  1.000000  1.000000 Defaulting to unpruned grid for atomic number  42. Defaulting to unpruned grid for atomic number  42. Defaulting to unpruned grid for atomic number  42. Defaulting to unpruned grid for atomic number  42. FoFCou: FMM=F IPFlag=           0 FMFlag=      100000 FMFlg1=           0         NFxFlg=           0 DoJE=T BraDBF=F KetDBF=T FulRan=T         Omega=  0.000000  0.000000  1.000000  0.000000  0.000000 ICntrl=     500 IOpCl=  0         NMat0=    1 NMatS0=    1 NMatT0=    0 NMatD0=    1 NMtDS0=    0 NMtDT0=    0         I1Cent=           4 NGrid=           0. Petite list used in FoFCou. Initial guess orbital symmetries:       Occupied  (A) (A) (A) (A) (A) (A) (A) (A) (A) (A) (A) (A)                 (A) (A) (A) (A) (A) (A) (A) (A) (A) (A) (A) (A)                 (A) (A) (A) (A) (A) (A) (A) (A) (A) (A) (A) (A)                 (A) (A) (A) (A) (A) (A) (A) (A) (A) (A) (A) (A)                 (A) (A) (A) (A) (A) (A) (A) (A) (A) (A) (A) (A)                 (A)       Virtual   (A) (A) (A) (A) (A) (A) (A) (A) (A) (A) (A) (A)                 (A) (A) (A) (A) (A) (A) (A) (A) (A) (A) (A) (A)                 (A) (A) (A) (A) (A) (A) (A) (A) (A) (A) (A) (A)                 (A) (A) (A) (A) (A) (A) (A) (A) (A) (A) (A) (A)                 (A) (A) (A) (A) (A) (A) (A) (A) (A) (A) (A) (A)                 (A) (A) (A) (A) (A) (A) (A) (A) (A) (A) (A) (A)                 (A) (A) (A) (A) (A) (A) (A) (A) (A) (A) (A) (A)                 (A) (A) (A) (A) (A) (A) (A) (A) (A) (A) (A) (A)                 (A) The electronic state of the initial guess is 1-A. Requested convergence on RMS density matrix=1.00D-09 within 128 cycles. Requested convergence on MAX density matrix=1.00D-07. Requested convergence on             energy=1.00D-07. No special actions if energy rises. Keep R1 ints in memory in canonical form, NReq=85557634. Defaulting to unpruned grid for atomic number  42. Defaulting to unpruned grid for atomic number  42. Defaulting to unpruned grid for atomic number  42. Defaulting to unpruned grid for atomic number  42. EnCoef did   100 forward-backward iterations EnCoef did     4 forward-backward iterations SCF Done:  E(RB3LYP) =  -623.576031126     A.U. after   19 cycles             Convg  =    0.5679D-09             -V/T =  2.2190<module cmlx:lineCount="1" cmlx:templateRef="l801"/> NBasis=   158 NAE=    61 NBE=    61 NFC=     0 NFV=     0 NROrb=    158 NOA=    61 NOB=    61 NVA=    97 NVB=    97   1 Symmetry operations used in ECPInt. ECPInt:  NShTT=    3240 NPrTT=   17458 LenC2=    3160 LenP2D=   12245. LDataN:  DoStor=T MaxTD1= 6 Len=  172 Symmetrizing basis deriv contribution to polar: IMax=3 JMax=2 DiffMx= 0.00D+00 G2DrvN: will do    18 centers at a time, making    1 passes doing MaxLOS=2. Calling FoFCou, ICntrl=  3107 FMM=F I1Cent=   0 AccDes= 0.00D+00. Defaulting to unpruned grid for atomic number  42. Defaulting to unpruned grid for atomic number  42. Defaulting to unpruned grid for atomic number  42. Defaulting to unpruned grid for atomic number  42. FoFDir/FoFCou used for L=0 through L=2. End of G2Drv Frequency-dependent properties file   721 does not exist. End of G2Drv Frequency-dependent properties file   722 does not exist.          IDoAtm=11111111111111111          Differentiating once with respect to electric field.                with respect to dipole field.          Differentiating once with respect to nuclear coordinates. Defaulting to unpruned grid for atomic number  42.          Keep R1 ints in memory in canonical form, NReq=83780313. Defaulting to unpruned grid for atomic number  42. Defaulting to unpruned grid for atomic number  42. Defaulting to unpruned grid for atomic number  42. Defaulting to unpruned grid for atomic number  42.          There are    54 degrees of freedom in the 1st order CPHF.  IDoFFX=5.     51 vectors produced by pass  0 Test12= 1.10D-14 1.85D-09 XBig12= 6.22D+02 1.47D+01. AX will form    51 AO Fock derivatives at one time.     51 vectors produced by pass  1 Test12= 1.10D-14 1.85D-09 XBig12= 8.56D+01 1.49D+00.     51 vectors produced by pass  2 Test12= 1.10D-14 1.85D-09 XBig12= 9.37D-01 2.41D-01.     51 vectors produced by pass  3 Test12= 1.10D-14 1.85D-09 XBig12= 9.85D-03 1.95D-02.     51 vectors produced by pass  4 Test12= 1.10D-14 1.85D-09 XBig12= 3.58D-05 1.47D-03.     51 vectors produced by pass  5 Test12= 1.10D-14 1.85D-09 XBig12= 5.32D-08 5.02D-05.     25 vectors produced by pass  6 Test12= 1.10D-14 1.85D-09 XBig12= 7.18D-11 1.65D-06.      7 vectors produced by pass  7 Test12= 1.10D-14 1.85D-09 XBig12= 1.57D-13 7.93D-08.      2 vectors produced by pass  8 Test12= 1.10D-14 1.85D-09 XBig12= 2.49D-16 2.82D-09. Inverted reduced A of dimension   340 with in-core refinement. Isotropic polarizability for W=    0.000000      240.73 Bohr**3. End of Minotr Frequency-dependent properties file   721 does not exist. End of Minotr Frequency-dependent properties file   722 does not exist.<module cmlx:lineCount="211" cmlx:templateRef="l601.popanal"> Orbital symmetries:<module cmlx:lineCount="6" cmlx:templateRef="l4601.occupied"><list cmlx:templateRef="occ"><scalar dataType="xsd:string" dictRef="g:occorbs">(A) (A) (A) (A) (A) (A) (A) (A) (A) (A) (A) (A)</scalar></list><list cmlx:templateRef="occ"><scalar dataType="xsd:string" dictRef="g:occorbs">(A) (A) (A) (A) (A) (A) (A) (A) (A) (A) (A) (A)</scalar><scalar dataType="xsd:string" dictRef="g:occorbs">(A) (A) (A) (A) (A) (A) (A) (A) (A) (A) (A) (A)</scalar><scalar dataType="xsd:string" dictRef="g:occorbs">(A) (A) (A) (A) (A) (A) (A) (A) (A) (A) (A) (A)</scalar><scalar dataType="xsd:string" dictRef="g:occorbs">(A) (A) (A) (A) (A) (A) (A) (A) (A) (A) (A) (A)</scalar><scalar dataType="xsd:string" dictRef="g:occorbs">(A)</scalar></list></module><module cmlx:lineCount="9" cmlx:templateRef="l4601.virtual"><list cmlx:templateRef="virt"><scalar dataType="xsd:string" dictRef="g:virtorbs">(A) (A) (A) (A) (A) (A) (A) (A) (A) (A) (A) (A)</scalar></list><list cmlx:templateRef="virt"><scalar dataType="xsd:string" dictRef="g:virtorbs">(A) (A) (A) (A) (A) (A) (A) (A) (A) (A) (A) (A)</scalar><scalar dataType="xsd:string" dictRef="g:virtorbs">(A) (A) (A) (A) (A) (A) (A) (A) (A) (A) (A) (A)</scalar><scalar dataType="xsd:string" dictRef="g:virtorbs">(A) (A) (A) (A) (A) (A) (A) (A) (A) (A) (A) (A)</scalar><scalar dataType="xsd:string" dictRef="g:virtorbs">(A) (A) (A) (A) (A) (A) (A) (A) (A) (A) (A) (A)</scalar><scalar dataType="xsd:string" dictRef="g:virtorbs">(A) (A) (A) (A) (A) (A) (A) (A) (A) (A) (A) (A)</scalar><scalar dataType="xsd:string" dictRef="g:virtorbs">(A) (A) (A) (A) (A) (A) (A) (A) (A) (A) (A) (A)</scalar><scalar dataType="xsd:string" dictRef="g:virtorbs">(A) (A) (A) (A) (A) (A) (A) (A) (A) (A) (A) (A)</scalar><scalar dataType="xsd:string" dictRef="g:virtorbs">(A)</scalar></list></module><module cmlx:lineCount="1" cmlx:templateRef="l601.state"><scalar dataType="xsd:string" dictRef="g:l601.state">1-A.</scalar></module><array dataType="xsd:double" size="61" dictRef="g:alphaocc">-19.28397 -19.28306 -19.28305 -19.28278 -10.37113 -10.37089 -10.37072 -10.37071 -2.53008 -1.55947 -1.55486 -1.55466 -1.20137 -1.20051 -1.19991 -1.19973 -0.90487 -0.90413 -0.85127 -0.85125 -0.85063 -0.85062 -0.67899 -0.66681 -0.62324 -0.60728 -0.59712 -0.59683 -0.52215 -0.5137 -0.50928 -0.50727 -0.50695 -0.50441 -0.50127 -0.50111 -0.49714 -0.49043 -0.47153 -0.47104 -0.46717 -0.46513 -0.46468 -0.44295 -0.44274 -0.43795 -0.37768 -0.37754 -0.37749 -0.37742 -0.36849 -0.35889 -0.35847 -0.35844 -0.35794 -0.35265 -0.35259 -0.35087 -0.29545 -0.29487 -0.29419</array><array dataType="xsd:double" size="97" dictRef="g:alphavirt">-0.18306 -0.16607 -0.14272 -0.14197 -0.10851 -0.1063 -0.10065 -0.10029 -0.09851 -0.08857 -0.05058 -0.03729 -0.03699 -0.0265 -0.01552 0.00914 0.01919 0.01938 0.02444 0.04423 0.19278 0.21688 0.21823 0.22081 0.2238 0.26682 0.27161 0.29709 0.29757 0.3081 0.31685 0.32353 0.34949 0.34997 0.37039 0.42288 0.43771 0.43855 0.45962 0.46557 0.49122 0.50131 0.52817 0.53589 0.54353 0.56081 0.56099 0.56866 0.62378 0.62955 0.64069 0.64105 0.65721 0.66252 0.66305 0.66336 0.66766 0.67494 0.68162 0.68892 0.71656 0.72027 0.72226 0.72358 0.72457 0.73576 0.76087 0.76405 0.77716 0.78498 0.78753 0.79063 0.797 0.80232 0.8224 0.82787 0.86431 0.89052 0.89336 0.91805 0.92694 1.16135 1.20549 1.20924 1.66934 1.7472 1.7488 1.76676 6.01879 6.17135 6.27248 6.56735 6.78073 7.88006 12.42745 15.96759 17.25092</array><module cmlx:lineCount="33" cmlx:templateRef="l601.alphabetaeigen"/><module cmlx:lineCount="54" cmlx:templateRef="l601.condensed"><array dataType="xsd:double" size="17" dictRef="x:floatArr">14.31575 -0.009363 -0.009362 -0.057845 -0.052776 -0.057804 -0.057834 -0.052775 -0.057818 -0.055492 -0.017658 -0.017393 0.00842 0.010145 0.00987 0.009872 0.010362</array><array dataType="xsd:double" size="17" dictRef="x:floatArr">-0.009363 4.253893 -0.004781 0.162527 0.167371 0.162569 4.7E-5 3.1E-5 4.7E-5 -0.003913 -0.005999 -0.006039 -0.008913 -0.001186 -0.001146 -0.001145 -0.001146</array><array dataType="xsd:double" size="17" dictRef="x:floatArr">-0.009362 -0.004781 4.253895 4.7E-5 3.1E-5 4.7E-5 0.162543 0.167373 0.162552 -0.003913 -0.006018 -0.006021 -0.008915 -0.001186 -0.001145 -0.001145 -0.001146</array><array dataType="xsd:double" size="17" dictRef="x:floatArr">-0.057845 0.162527 4.7E-5 7.078828 -0.033753 -0.034079 0.0 0.0 0.0 3.19E-4 1.35E-4 0.00229 0.001932 0.0 0.0 2.8E-5 5.9E-5</array><array dataType="xsd:double" size="17" dictRef="x:floatArr">-0.052776 0.167371 3.1E-5 -0.033753 7.064095 -0.033745 0.0 0.0 0.0 0.002669 6.76E-4 6.82E-4 6.6E-5 -1.4E-5 6.0E-6 7.0E-6 0.0</array><array dataType="xsd:double" size="17" dictRef="x:floatArr">-0.057804 0.162569 4.7E-5 -0.034079 -0.033745 7.078703 0.0 0.0 0.0 3.22E-4 0.00229 1.33E-4 0.001923 0.0 2.7E-5 0.0 5.9E-5</array><array dataType="xsd:double" size="17" dictRef="x:floatArr">-0.057834 4.7E-5 0.162543 0.0 0.0 0.0 7.078784 -0.033751 -0.034078 3.2E-4 1.34E-4 0.002289 0.00193 0.0 0.0 2.8E-5 5.9E-5</array><array dataType="xsd:double" size="17" dictRef="x:floatArr">-0.052775 3.1E-5 0.167373 0.0 0.0 0.0 -0.033751 7.064092 -0.033749 0.002669 6.78E-4 6.8E-4 6.6E-5 -1.4E-5 6.0E-6 7.0E-6 0.0</array><array dataType="xsd:double" size="17" dictRef="x:floatArr">-0.057818 4.7E-5 0.162552 0.0 0.0 0.0 -0.034078 -0.033749 7.078753 3.2E-4 0.002291 1.34E-4 0.001926 0.0 2.8E-5 0.0 5.9E-5</array><array dataType="xsd:double" size="17" dictRef="x:floatArr">-0.055492 -0.003913 -0.003913 3.19E-4 0.002669 3.22E-4 3.2E-4 0.002669 3.2E-4 5.382129 0.007427 0.007447 -0.012339 0.597783 -6.39E-4 -6.39E-4 2.9E-5</array><array dataType="xsd:double" size="17" dictRef="x:floatArr">-0.017658 -0.005999 -0.006018 1.35E-4 6.76E-4 0.00229 1.34E-4 6.78E-4 0.002291 0.007427 5.33049 -0.012643 0.011869 -5.48E-4 0.596404 2.9E-5 -3.56E-4</array><array dataType="xsd:double" size="17" dictRef="x:floatArr">-0.017393 -0.006039 -0.006021 0.00229 6.82E-4 1.33E-4 0.002289 6.8E-4 1.34E-4 0.007447 -0.012643 5.330112 0.011886 -5.46E-4 2.9E-5 0.59639 -3.55E-4</array><array dataType="xsd:double" size="17" dictRef="x:floatArr">0.00842 -0.008913 -0.008915 0.001932 6.6E-5 0.001923 0.00193 6.6E-5 0.001926 -0.012339 0.011869 0.011886 5.289701 2.8E-5 -2.45E-4 -2.45E-4 0.594665</array><array dataType="xsd:double" size="17" dictRef="x:floatArr">0.010145 -0.001186 -0.001186 0.0 -1.4E-5 0.0 0.0 -1.4E-5 0.0 0.597783 -5.48E-4 -5.46E-4 2.8E-5 7.473185 4.2E-5 4.2E-5 0.0</array><array dataType="xsd:double" size="17" dictRef="x:floatArr">0.00987 -0.001146 -0.001145 0.0 6.0E-6 2.7E-5 0.0 6.0E-6 2.8E-5 -6.39E-4 0.596404 2.9E-5 -2.45E-4 4.2E-5 7.478386 0.0 3.0E-5</array><array dataType="xsd:double" size="17" dictRef="x:floatArr">0.009872 -0.001145 -0.001145 2.8E-5 7.0E-6 0.0 2.8E-5 7.0E-6 0.0 -6.39E-4 2.9E-5 0.59639 -2.45E-4 4.2E-5 0.0 7.478429 3.0E-5</array><array dataType="xsd:double" size="12" dictRef="x:floatArr">0.010362 -0.001146 -0.001146 5.9E-5 0.0 5.9E-5 5.9E-5 0.0 5.9E-5 2.9E-5 -3.56E-4 -3.55E-4</array></module><list cmlx:templateRef="popanal"><scalar dataType="xsd:string" dictRef="x:popanal">17  O    0.594665   0.000000   0.000030   0.000030   7.483543</scalar></list><module cmlx:lineCount="82" cmlx:templateRef="mulliken"><module cmlx:lineCount="20" cmlx:templateRef="l601.mullik"><scalar dataType="xsd:string" dictRef="g:title">Mulliken atomic charges:</scalar><scalar dataType="xsd:integer" dictRef="cc:serial">1</scalar> Sum of Mulliken atomic charges =   0.00000</module> Mulliken charges with hydrogens summed into heavy atoms:              1     1  Mo   0.081700     2  P    0.297144     3  P    0.297143     4  Cl  -0.120489     5  Cl  -0.115315     6  Cl  -0.120444     7  Cl  -0.120471     8  Cl  -0.115313     9  Cl  -0.120463    10  C    0.075500    11  C    0.090798    12  C    0.090924    13  C    0.106244    14  O   -0.077729    15  O   -0.081652    16  O   -0.081686    17  O   -0.085890 Sum of Mulliken charges with hydrogens summed into heavy atoms =   0.00000<module cmlx:lineCount="20" cmlx:templateRef="l601.mullik"><scalar dataType="xsd:string" dictRef="g:title">APT atomic charges:</scalar><scalar dataType="xsd:integer" dictRef="cc:serial">1</scalar><list cmlx:lineCount="17" cmlx:templateRef="row"><array dataType="xsd:integer" dictRef="cc:serial" size="17">1 2 3 4 5 6 7 8 9 10 11 12 13 14 15 16 17</array><array dataType="xsd:string" dictRef="cc:elementType" size="17">Mo P P Cl Cl Cl Cl Cl Cl C C C C O O O O</array><array dataType="xsd:double" dictRef="x:charge" size="17">-2.622723 1.963817 1.963817 -0.486304 -0.499453 -0.486407 -0.486325 -0.499454 -0.486385 1.134443 1.13431 1.134316 1.136345 -0.721492 -0.725044 -0.725075 -0.728385</array></list><scalar dataType="xsd:string" dictRef="x:type">APT</scalar><scalar dataType="xsd:double" dictRef="x:charge.sum">0.0</scalar></module><module cmlx:lineCount="20" cmlx:templateRef="l601.mullik"><scalar dataType="xsd:string" dictRef="g:title">APT Atomic charges with hydrogens summed into heavy atoms:</scalar><scalar dataType="xsd:integer" dictRef="cc:serial">1</scalar><list cmlx:lineCount="17" cmlx:templateRef="row"><array dataType="xsd:integer" dictRef="cc:serial" size="17">1 2 3 4 5 6 7 8 9 10 11 12 13 14 15 16 17</array><array dataType="xsd:string" dictRef="cc:elementType" size="17">Mo P P Cl Cl Cl Cl Cl Cl C C C C O O O O</array><array dataType="xsd:double" dictRef="x:charge" size="17">-2.622723 1.963817 1.963817 -0.486304 -0.499453 -0.486407 -0.486325 -0.499454 -0.486385 1.134443 1.13431 1.134316 1.136345 -0.721492 -0.725044 -0.725075 -0.728385</array></list><scalar dataType="xsd:string" dictRef="x:type">APT</scalar><scalar dataType="xsd:double" dictRef="x:charge.sum">0.0</scalar></module><scalar dataType="xsd:double" dictRef="g:electextent2">4591.3375</scalar> Charge=              0.0000 electrons</module><module cmlx:lineCount="18" cmlx:templateRef="multipole"><array dataType="xsd:double" size="3" dictRef="cc:dipole">0.0 0.3043 -0.0019</array><scalar dataType="xsd:double" dictRef="x:dipole">0.3043</scalar><array dataType="xsd:double" size="3" dictRef="cc:quadrupole">-179.6822 -173.1394 -173.2919</array><array dataType="xsd:double" size="3" dictRef="cc:quadrupole">0.0 -0.0015 3.0E-4</array><array dataType="xsd:double" size="6" dictRef="cc:quadrupole">-4.311 2.2318 2.0793 0.0 -0.0015 3.0E-4</array><array dataType="xsd:double" size="10" dictRef="cc:octapole">-4.0E-4 -1.3346 -0.0092 4.0E-4 1.8957 -0.0108 -3.0E-4 1.9939 0.0049 0.0011</array><array dataType="xsd:double" size="15" dictRef="cc:hexadecapole">-6733.7472 -2111.343 -2105.2649 -0.0011 3.0E-4 6.0E-4 0.4881 -0.0143 -0.4846 -1428.1697 -1430.2624 -636.6095 0.0032 -0.0013 -4.0E-4</array></module></module><module cmlx:lineCount="2" cmlx:templateRef="l601.polariz"><list cmlx:templateRef="l601.pol"><scalar dataType="xsd:double" dictRef="g:l601.pol.exact">297.762</scalar><scalar dataType="xsd:double" dictRef="g:l601.pol">-0.0010</scalar><scalar dataType="xsd:double" dictRef="g:l601.pol">212.832</scalar><scalar dataType="xsd:double" dictRef="g:l601.pol">0.0050</scalar><scalar dataType="xsd:double" dictRef="g:l601.pol">0.0020</scalar><scalar dataType="xsd:double" dictRef="g:l601.pol">211.601</scalar></list><list cmlx:templateRef="l601.pol"><scalar dataType="xsd:double" dictRef="g:l601.pol.approx">478.104</scalar><scalar dataType="xsd:double" dictRef="g:l601.pol">-0.0020</scalar><scalar dataType="xsd:double" dictRef="g:l601.pol">484.369</scalar><scalar dataType="xsd:double" dictRef="g:l601.pol">0.024</scalar><scalar dataType="xsd:double" dictRef="g:l601.pol">0.0</scalar><scalar dataType="xsd:double" dictRef="g:l601.pol">482.282</scalar></list></module> ******************************Gaussian NBO Version 3.1******************************             N A T U R A L   A T O M I C   O R B I T A L   A N D          N A T U R A L   B O N D   O R B I T A L   A N A L Y S I S ******************************Gaussian NBO Version 3.1******************************       /RESON  / : Allow strongly delocalized NBO set Analyzing the SCF density Job title: trans form Fq Optimisation 1                                     Storage needed:     75934 in NPA,    100641 in NBO ( 917502317 available) NATURAL POPULATIONS:  Natural atomic orbital occupancies                                                              NAO  Atom  No  lang   Type(AO)    Occupancy      Energy ----------------------------------------------------------     1   Mo    1  S      Cor( 4S)     1.97848      -2.39145     2   Mo    1  S      Val( 5S)     0.39644       0.60895     3   Mo    1  S      Ryd( 6S)     0.00299       8.96287     4   Mo    1  px     Cor( 4p)     1.98582      -1.51965     5   Mo    1  px     Val( 6p)     0.30357       0.54443     6   Mo    1  px     Ryd( 5p)     0.00304       0.32215     7   Mo    1  py     Cor( 4p)     1.99166      -1.50743     8   Mo    1  py     Val( 5p)     0.37138       0.12393     9   Mo    1  py     Ryd( 6p)     0.00141       0.13643    10   Mo    1  pz     Cor( 4p)     1.99163      -1.50727    11   Mo    1  pz     Val( 5p)     0.37139       0.12263    12   Mo    1  pz     Ryd( 6p)     0.00140       0.13763    13   Mo    1  dxy    Val( 4d)     1.55242      -0.25036    14   Mo    1  dxy    Ryd( 5d)     0.00209       0.46449    15   Mo    1  dxz    Val( 4d)     1.55529      -0.25032    16   Mo    1  dxz    Ryd( 5d)     0.00219       0.45777    17   Mo    1  dyz    Val( 4d)     1.51479      -0.22982    18   Mo    1  dyz    Ryd( 5d)     0.00364       0.50781    19   Mo    1  dx2y2  Val( 4d)     1.08773      -0.26159    20   Mo    1  dx2y2  Ryd( 5d)     0.00869       1.07102    21   Mo    1  dz2    Val( 4d)     1.09030      -0.26677    22   Mo    1  dz2    Ryd( 5d)     0.00582       0.75432    23    P    2  S      Val( 3S)     1.48776      -0.48274    24    P    2  S      Ryd( 4S)     0.00106      12.34737    25    P    2  px     Val( 3p)     0.98096      -0.22875    26    P    2  px     Ryd( 4p)     0.00970       0.65402    27    P    2  py     Val( 3p)     0.77723      -0.26596    28    P    2  py     Ryd( 4p)     0.00892       0.68385    29    P    2  pz     Val( 3p)     0.77603      -0.26604    30    P    2  pz     Ryd( 4p)     0.00885       0.66785    31    P    3  S      Val( 3S)     1.48776      -0.48274    32    P    3  S      Ryd( 4S)     0.00106      12.34737    33    P    3  px     Val( 3p)     0.98096      -0.22875    34    P    3  px     Ryd( 4p)     0.00970       0.65403    35    P    3  py     Val( 3p)     0.77723      -0.26596    36    P    3  py     Ryd( 4p)     0.00892       0.68385    37    P    3  pz     Val( 3p)     0.77603      -0.26604    38    P    3  pz     Ryd( 4p)     0.00885       0.66785    39   Cl    4  S      Val( 3S)     1.93405      -0.79416    40   Cl    4  S      Ryd( 4S)     0.00027       6.87648    41   Cl    4  px     Val( 3p)     1.85308      -0.35909    42   Cl    4  px     Ryd( 4p)     0.00036       0.86913    43   Cl    4  py     Val( 3p)     1.80675      -0.35922    44   Cl    4  py     Ryd( 4p)     0.00025       0.80452    45   Cl    4  pz     Val( 3p)     1.59258      -0.35435    46   Cl    4  pz     Ryd( 4p)     0.00049       0.90551    47   Cl    5  S      Val( 3S)     1.93334      -0.79451    48   Cl    5  S      Ryd( 4S)     0.00024       7.00822    49   Cl    5  px     Val( 3p)     1.80913      -0.35819    50   Cl    5  px     Ryd( 4p)     0.00035       0.95426    51   Cl    5  py     Val( 3p)     1.50348      -0.35327    52   Cl    5  py     Ryd( 4p)     0.00055       0.93011    53   Cl    5  pz     Val( 3p)     1.93720      -0.36292    54   Cl    5  pz     Ryd( 4p)     0.00011       0.71460    55   Cl    6  S      Val( 3S)     1.93404      -0.79416    56   Cl    6  S      Ryd( 4S)     0.00027       6.87816    57   Cl    6  px     Val( 3p)     1.85278      -0.35908    58   Cl    6  px     Ryd( 4p)     0.00036       0.86981    59   Cl    6  py     Val( 3p)     1.80650      -0.35922    60   Cl    6  py     Ryd( 4p)     0.00025       0.80468    61   Cl    6  pz     Val( 3p)     1.59310      -0.35437    62   Cl    6  pz     Ryd( 4p)     0.00049       0.90490    63   Cl    7  S      Val( 3S)     1.93404      -0.79416    64   Cl    7  S      Ryd( 4S)     0.00027       6.87716    65   Cl    7  px     Val( 3p)     1.85303      -0.35909    66   Cl    7  px     Ryd( 4p)     0.00036       0.86936    67   Cl    7  py     Val( 3p)     1.80744      -0.35924    68   Cl    7  py     Ryd( 4p)     0.00025       0.80413    69   Cl    7  pz     Val( 3p)     1.59193      -0.35434    70   Cl    7  pz     Ryd( 4p)     0.00049       0.90578    71   Cl    8  S      Val( 3S)     1.93334      -0.79451    72   Cl    8  S      Ryd( 4S)     0.00024       7.00818    73   Cl    8  px     Val( 3p)     1.80911      -0.35819    74   Cl    8  px     Ryd( 4p)     0.00035       0.95426    75   Cl    8  py     Val( 3p)     1.50350      -0.35327    76   Cl    8  py     Ryd( 4p)     0.00055       0.93009    77   Cl    8  pz     Val( 3p)     1.93720      -0.36292    78   Cl    8  pz     Ryd( 4p)     0.00011       0.71460    79   Cl    9  S      Val( 3S)     1.93404      -0.79416    80   Cl    9  S      Ryd( 4S)     0.00027       6.87752    81   Cl    9  px     Val( 3p)     1.85285      -0.35908    82   Cl    9  px     Ryd( 4p)     0.00036       0.86958    83   Cl    9  py     Val( 3p)     1.80580      -0.35920    84   Cl    9  py     Ryd( 4p)     0.00025       0.80507    85   Cl    9  pz     Val( 3p)     1.59374      -0.35438    86   Cl    9  pz     Ryd( 4p)     0.00049       0.90465    87    C   10  S      Cor( 1S)     1.99907     -10.23134    88    C   10  S      Val( 2S)     1.15235      -0.37576    89    C   10  S      Ryd( 3S)     0.02656       1.16913    90    C   10  px     Val( 2p)     0.61720      -0.17652    91    C   10  px     Ryd( 3p)     0.00572       0.40935    92    C   10  py     Val( 2p)     0.80346      -0.04495    93    C   10  py     Ryd( 3p)     0.01961       0.71923    94    C   10  pz     Val( 2p)     0.61126      -0.17372    95    C   10  pz     Ryd( 3p)     0.00392       0.35255    96    C   11  S      Cor( 1S)     1.99907     -10.23110    97    C   11  S      Val( 2S)     1.15178      -0.37522    98    C   11  S      Ryd( 3S)     0.02645       1.15847    99    C   11  px     Val( 2p)     0.62088      -0.17666   100    C   11  px     Ryd( 3p)     0.00531       0.42594   101    C   11  py     Val( 2p)     0.61209      -0.17350   102    C   11  py     Ryd( 3p)     0.00401       0.35158   103    C   11  pz     Val( 2p)     0.80253      -0.04519   104    C   11  pz     Ryd( 3p)     0.01977       0.71573   105    C   12  S      Cor( 1S)     1.99907     -10.23110   106    C   12  S      Val( 2S)     1.15177      -0.37522   107    C   12  S      Ryd( 3S)     0.02645       1.15840   108    C   12  px     Val( 2p)     0.62091      -0.17666   109    C   12  px     Ryd( 3p)     0.00531       0.42611   110    C   12  py     Val( 2p)     0.61213      -0.17347   111    C   12  py     Ryd( 3p)     0.00401       0.35154   112    C   12  pz     Val( 2p)     0.80249      -0.04522   113    C   12  pz     Ryd( 3p)     0.01977       0.71573   114    C   13  S      Cor( 1S)     1.99907     -10.23146   115    C   13  S      Val( 2S)     1.15041      -0.37492   116    C   13  S      Ryd( 3S)     0.02648       1.15371   117    C   13  px     Val( 2p)     0.62423      -0.17710   118    C   13  px     Ryd( 3p)     0.00493       0.45004   119    C   13  py     Val( 2p)     0.80189      -0.04610   120    C   13  py     Ryd( 3p)     0.01977       0.71803   121    C   13  pz     Val( 2p)     0.61287      -0.17386   122    C   13  pz     Ryd( 3p)     0.00409       0.34694   123    O   14  S      Cor( 1S)     1.99983     -19.03004   124    O   14  S      Val( 2S)     1.72406      -1.03691   125    O   14  S      Ryd( 3S)     0.00196       1.96067   126    O   14  px     Val( 2p)     1.50539      -0.37495   127    O   14  px     Ryd( 3p)     0.00064       0.77528   128    O   14  py     Val( 2p)     1.64815      -0.45875   129    O   14  py     Ryd( 3p)     0.00102       0.67005   130    O   14  pz     Val( 2p)     1.51396      -0.37557   131    O   14  pz     Ryd( 3p)     0.00062       0.77158   132    O   15  S      Cor( 1S)     1.99983     -19.02907   133    O   15  S      Val( 2S)     1.72380      -1.03621   134    O   15  S      Ryd( 3S)     0.00196       1.96721   135    O   15  px     Val( 2p)     1.50837      -0.37435   136    O   15  px     Ryd( 3p)     0.00067       0.78310   137    O   15  py     Val( 2p)     1.51306      -0.37475   138    O   15  py     Ryd( 3p)     0.00060       0.77126   139    O   15  pz     Val( 2p)     1.64819      -0.45818   140    O   15  pz     Ryd( 3p)     0.00101       0.66939   141    O   16  S      Cor( 1S)     1.99983     -19.02907   142    O   16  S      Val( 2S)     1.72380      -1.03620   143    O   16  S      Ryd( 3S)     0.00196       1.96728   144    O   16  px     Val( 2p)     1.50840      -0.37434   145    O   16  px     Ryd( 3p)     0.00068       0.78317   146    O   16  py     Val( 2p)     1.51308      -0.37477   147    O   16  py     Ryd( 3p)     0.00060       0.77119   148    O   16  pz     Val( 2p)     1.64816      -0.45815   149    O   16  pz     Ryd( 3p)     0.00101       0.66944   150    O   17  S      Cor( 1S)     1.99983     -19.02914   151    O   17  S      Val( 2S)     1.72390      -1.03596   152    O   17  S      Ryd( 3S)     0.00196       1.97803   153    O   17  px     Val( 2p)     1.51161      -0.37441   154    O   17  px     Ryd( 3p)     0.00066       0.79241   155    O   17  py     Val( 2p)     1.64731      -0.45762   156    O   17  py     Ryd( 3p)     0.00100       0.66853   157    O   17  pz     Val( 2p)     1.51261      -0.37453   158    O   17  pz     Ryd( 3p)     0.00057       0.76835 [108 electrons found in the effective core potential] WARNING:  4 low occupancy (&lt;1.9990e) core orbitals found on Mo    1 WARNING:  Population inversion found on atom Mo    1 Summary of Natural Population Analysis:                                                                                                                   Natural Population                 Natural  -----------------------------------------------    Atom  No    Charge         Core      Valence    Rydberg      Total -----------------------------------------------------------------------     Mo    1   -2.22216     35.94759     8.24330    0.03127    44.22216      P    2    0.94948     10.00000     4.02199    0.02853    14.05052      P    3    0.94948     10.00000     4.02199    0.02853    14.05052     Cl    4   -0.18783     10.00000     7.18645    0.00138    17.18783     Cl    5   -0.18440     10.00000     7.18315    0.00125    17.18440     Cl    6   -0.18779     10.00000     7.18642    0.00137    17.18779     Cl    7   -0.18781     10.00000     7.18644    0.00138    17.18781     Cl    8   -0.18440     10.00000     7.18315    0.00125    17.18440     Cl    9   -0.18781     10.00000     7.18643    0.00138    17.18781      C   10    0.76085      1.99907     3.18427    0.05580     5.23915      C   11    0.75811      1.99907     3.18728    0.05554     5.24189      C   12    0.75809      1.99907     3.18730    0.05554     5.24191      C   13    0.75624      1.99907     3.18941    0.05528     5.24376      O   14   -0.39563      1.99983     6.39156    0.00424     8.39563      O   15   -0.39748      1.99983     6.39341    0.00424     8.39748      O   16   -0.39749      1.99983     6.39343    0.00424     8.39749      O   17   -0.39945      1.99983     6.39544    0.00419     8.39945 =======================================================================   * Total *    0.00000    131.94319    97.72140    0.33541   230.00000                                 Natural Population       --------------------------------------------------------   Effective Core           108.00000   Core                      23.94319 ( 99.7633% of  24)   Valence                   97.72140 ( 99.7157% of  98)   Natural Minimal Basis    229.66459 ( 99.8542% of 230)   Natural Rydberg Basis      0.33541 (  0.1458% of 230) --------------------------------------------------------    Atom  No          Natural Electron Configuration ----------------------------------------------------------------------------     Mo    1      [core]5S( 0.40)4d( 6.80)5p( 0.75)5d( 0.02)6p( 0.31)      P    2      [core]3S( 1.49)3p( 2.53)4p( 0.03)      P    3      [core]3S( 1.49)3p( 2.53)4p( 0.03)     Cl    4      [core]3S( 1.93)3p( 5.25)     Cl    5      [core]3S( 1.93)3p( 5.25)     Cl    6      [core]3S( 1.93)3p( 5.25)     Cl    7      [core]3S( 1.93)3p( 5.25)     Cl    8      [core]3S( 1.93)3p( 5.25)     Cl    9      [core]3S( 1.93)3p( 5.25)      C   10      [core]2S( 1.15)2p( 2.03)3S( 0.03)3p( 0.03)      C   11      [core]2S( 1.15)2p( 2.04)3S( 0.03)3p( 0.03)      C   12      [core]2S( 1.15)2p( 2.04)3S( 0.03)3p( 0.03)      C   13      [core]2S( 1.15)2p( 2.04)3S( 0.03)3p( 0.03)      O   14      [core]2S( 1.72)2p( 4.67)      O   15      [core]2S( 1.72)2p( 4.67)      O   16      [core]2S( 1.72)2p( 4.67)      O   17      [core]2S( 1.72)2p( 4.67) NATURAL BOND ORBITAL ANALYSIS:                       Occupancies       Lewis Structure    Low   High           Occ.    -------------------  -----------------   occ   occ  Cycle   Thresh.   Lewis   Non-Lewis     CR  BD  3C  LP    (L)   (NL)   Dev =============================================================================   1(1)    1.90   226.90167   3.09833     12  24   0  25     5     16    0.09   2(2)    1.90   226.90167   3.09833     12  24   0  25     5     16    0.09   3(1)    1.80   226.90167   3.09833     12  24   0  25     3     16    0.09   4(2)    1.80   226.90167   3.09833     12  24   0  25     3     16    0.09   5(1)    1.70   226.22625   3.77375     12  24   0  25     3     16    0.21   6(2)    1.70   226.22619   3.77381     12  24   0  25     4     16    0.21   7(1)    1.60   225.88438   4.11562     12  24   0  25     3     16    1.20   8(2)    1.60   225.89563   4.10437     12  25   0  24     2     17    1.21   9(3)    1.60   225.89558   4.10442     12  25   0  24     2     17    1.21  10(4)    1.60   226.27478   3.72522     12  26   0  23     1     18    0.09  11(5)    1.60   225.88372   4.11628     12  24   0  25     3     16    1.21  12(6)    1.60   225.88379   4.11621     12  24   0  25     3     16    1.21  13(7)    1.60   225.90511   4.09489     12  25   0  24     2     17    1.20  14(8)    1.60   225.88903   4.11097     12  25   0  24     2     17    1.21  15(9)    1.60   226.27478   3.72522     12  26   0  23     1     18    0.09  16(1)    1.50   222.23525   7.76475     12  14   0  35     0     20    1.21  17(2)    1.50   222.23525   7.76475     12  14   0  35     0     20    1.21  18(1)    1.90   226.90167   3.09833     12  24   0  25     5     16    0.09 ----------------------------------------------------------------------------- Structure accepted: RESONANCE keyword permits strongly delocalized structure WARNING:  4 low occupancy (&lt;1.9990e) core orbitals found on Mo    1 --------------------------------------------------------   Effective Core          108.00000   Core                     23.94309 ( 99.763% of  24)   Valence Lewis            94.95858 ( 96.897% of  98)  ==================       ============================   Total Lewis             226.90167 ( 98.653% of 230)  -----------------------------------------------------   Valence non-Lewis         2.88628 (  1.255% of 230)   Rydberg non-Lewis         0.21205 (  0.092% of 230)  ==================       ============================   Total non-Lewis           3.09833 (  1.347% of 230) --------------------------------------------------------       (Occupancy)   Bond orbital/ Coefficients/ Hybrids ---------------------------------------------------------------------------------     1. (1.86984) BD ( 1)Mo   1 - P   2                  ( 26.73%)   0.5170*Mo   1 s( 17.15%)p 2.91( 49.96%)d 1.92( 32.89%)                                           -0.0032  0.4136  0.0208 -0.0021  0.7056                                           -0.0403  0.0001 -0.0069  0.0003  0.0000                                            0.0000  0.0000 -0.0209  0.0004  0.0001                                            0.0000  0.0000  0.0000  0.4935 -0.0520                                           -0.2851  0.0298                ( 73.27%)   0.8560* P   2 s( 58.59%)p 0.71( 41.41%)                                            0.7654 -0.0086 -0.6427  0.0099  0.0303                                            0.0004 -0.0002  0.0000     2. (1.86984) BD ( 1)Mo   1 - P   3                  ( 26.73%)   0.5170*Mo   1 s( 17.15%)p 2.91( 49.96%)d 1.92( 32.89%)                                           -0.0032  0.4136  0.0208  0.0021 -0.7056                                            0.0403  0.0001 -0.0069  0.0003  0.0000                                            0.0001  0.0000  0.0209 -0.0004 -0.0002                                            0.0000  0.0000  0.0000  0.4935 -0.0520                                           -0.2851  0.0298                ( 73.27%)   0.8560* P   3 s( 58.59%)p 0.71( 41.41%)                                            0.7654 -0.0086  0.6427 -0.0099  0.0303                                            0.0004 -0.0002  0.0000     3. (1.91110) BD ( 1)Mo   1 - C  10                  ( 29.45%)   0.5427*Mo   1 s( 16.54%)p 3.02( 49.94%)d 2.03( 33.52%)                                           -0.0040  0.4067  0.0005  0.0000  0.0000                                            0.0000 -0.0008  0.7066  0.0101  0.0000                                           -0.0017  0.0000  0.0000  0.0000  0.0000                                            0.0000 -0.0025  0.0001 -0.4989  0.0199                                           -0.2925  0.0166                ( 70.55%)   0.8400* C  10 s( 68.56%)p 0.46( 31.44%)                                            0.0005  0.8269 -0.0434  0.0000  0.0000                                           -0.5588 -0.0464  0.0014  0.0001     4. (1.91025) BD ( 1)Mo   1 - C  11                  ( 29.50%)   0.5432*Mo   1 s( 16.41%)p 3.05( 50.00%)d 2.05( 33.59%)                                           -0.0041  0.4051  0.0005  0.0000 -0.0001                                            0.0000  0.0000  0.0026 -0.0001  0.0009                                           -0.7070 -0.0101  0.0000  0.0000  0.0001                                            0.0000 -0.0026  0.0019 -0.0040 -0.0057                                            0.5789 -0.0271                ( 70.50%)   0.8396* C  11 s( 68.54%)p 0.46( 31.46%)                                            0.0005  0.8268 -0.0436  0.0001  0.0000                                           -0.0086 -0.0003  0.5589  0.0460     5. (1.91024) BD ( 1)Mo   1 - C  12                  ( 29.51%)   0.5432*Mo   1 s( 16.41%)p 3.05( 50.00%)d 2.05( 33.59%)                                           -0.0041  0.4051  0.0005  0.0000  0.0001                                            0.0000  0.0000  0.0061 -0.0001 -0.0009                                            0.7070  0.0101  0.0000  0.0000  0.0001                                            0.0000  0.0075 -0.0022 -0.0041 -0.0057                                            0.5788 -0.0271                ( 70.49%)   0.8396* C  12 s( 68.54%)p 0.46( 31.46%)                                            0.0005  0.8268 -0.0436 -0.0001  0.0000                                           -0.0113 -0.0005 -0.5589 -0.0460     6. (1.90860) BD ( 1)Mo   1 - C  13                  ( 29.59%)   0.5440*Mo   1 s( 16.25%)p 3.08( 50.05%)d 2.07( 33.70%)                                           -0.0043  0.4031  0.0006  0.0000  0.0000                                            0.0000  0.0010 -0.7074 -0.0104  0.0000                                            0.0017  0.0000  0.0000  0.0000  0.0000                                            0.0000 -0.0024  0.0001 -0.5081  0.0213                                           -0.2793  0.0201                ( 70.41%)   0.8391* C  13 s( 68.49%)p 0.46( 31.51%)                                            0.0005  0.8264 -0.0441  0.0000  0.0000                                            0.5595  0.0460 -0.0013 -0.0001     7. (1.97315) BD ( 1) P   2 -Cl   4                  ( 37.65%)   0.6136* P   2 s( 13.67%)p 6.31( 86.33%)                                            0.3696  0.0094  0.4197  0.0154 -0.4319                                           -0.0036  0.7073  0.0064                ( 62.35%)   0.7896*Cl   4 s(  8.16%)p11.26( 91.84%)                                            0.2856 -0.0035 -0.3925 -0.0021  0.4584                                            0.0041 -0.7444 -0.0072     8. (1.97238) BD ( 1) P   2 -Cl   5                  ( 37.82%)   0.6150* P   2 s( 14.04%)p 6.12( 85.96%)                                            0.3746  0.0098  0.4835  0.0153  0.7909                                            0.0070  0.0000  0.0000                ( 62.18%)   0.7885*Cl   5 s(  8.20%)p11.19( 91.80%)                                            0.2864 -0.0028 -0.4713 -0.0028 -0.8342                                           -0.0079  0.0000  0.0000     9. (1.97315) BD ( 1) P   2 -Cl   6                  ( 37.65%)   0.6136* P   2 s( 13.67%)p 6.31( 86.33%)                                            0.3697  0.0094  0.4201  0.0154 -0.4323                                           -0.0036 -0.7068 -0.0064                ( 62.35%)   0.7896*Cl   6 s(  8.16%)p11.26( 91.84%)                                            0.2856 -0.0035 -0.3931 -0.0021  0.4588                                            0.0041  0.7439  0.0072    10. (1.97315) BD ( 1) P   3 -Cl   7                  ( 37.65%)   0.6136* P   3 s( 13.67%)p 6.31( 86.33%)                                            0.3696  0.0094 -0.4197 -0.0154 -0.4307                                           -0.0036  0.7080  0.0064                ( 62.35%)   0.7896*Cl   7 s(  8.16%)p11.26( 91.84%)                                            0.2856 -0.0035  0.3926  0.0021  0.4572                                            0.0041 -0.7451 -0.0072    11. (1.97238) BD ( 1) P   3 -Cl   8                  ( 37.82%)   0.6150* P   3 s( 14.04%)p 6.12( 85.96%)                                           -0.3746 -0.0098  0.4835  0.0153 -0.7909                                           -0.0070  0.0014  0.0000                ( 62.18%)   0.7885*Cl   8 s(  8.20%)p11.19( 91.80%)                                           -0.2864  0.0028 -0.4713 -0.0028  0.8341                                            0.0079 -0.0015  0.0000    12. (1.97315) BD ( 1) P   3 -Cl   9                  ( 37.65%)   0.6136* P   3 s( 13.67%)p 6.31( 86.33%)                                            0.3696  0.0094 -0.4200 -0.0154 -0.4335                                           -0.0036 -0.7062 -0.0064                ( 62.35%)   0.7896*Cl   9 s(  8.16%)p11.26( 91.84%)                                            0.2856 -0.0035  0.3930  0.0021  0.4600                                            0.0041  0.7432  0.0072    13. (1.99842) BD ( 1) C  10 - O  14                  ( 30.10%)   0.5487* C  10 s( 33.59%)p 1.98( 66.41%)                                           -0.0002  0.5551  0.1667  0.0000  0.0000                                            0.8131 -0.0552 -0.0021  0.0001                ( 69.90%)   0.8360* O  14 s( 43.52%)p 1.30( 56.48%)                                            0.0000  0.6592  0.0266  0.0000  0.0000                                           -0.7512  0.0223  0.0019 -0.0001    14. (1.99566) BD ( 2) C  10 - O  14                  ( 25.81%)   0.5080* C  10 s(  0.00%)p 1.00(100.00%)                                            0.0000  0.0000  0.0000  0.0004  0.0000                                            0.0025  0.0000  1.0000  0.0095                ( 74.19%)   0.8613* O  14 s(  0.00%)p 1.00(100.00%)                                            0.0000  0.0000  0.0000  0.0004  0.0000                                            0.0026  0.0000  1.0000  0.0022    15. (1.99423) BD ( 3) C  10 - O  14                  ( 26.19%)   0.5118* C  10 s(  0.00%)p 1.00(100.00%)                                            0.0000  0.0000  0.0000  0.9999  0.0142                                            0.0000  0.0000 -0.0004  0.0000                ( 73.81%)   0.8591* O  14 s(  0.00%)p 1.00(100.00%)                                            0.0000  0.0000  0.0000  1.0000  0.0006                                            0.0000  0.0000 -0.0004  0.0000    16. (1.99840) BD ( 1) C  11 - O  15                  ( 30.10%)   0.5486* C  11 s( 33.61%)p 1.98( 66.39%)                                           -0.0002  0.5553  0.1666 -0.0001  0.0000                                            0.0139 -0.0010 -0.8128  0.0555                ( 69.90%)   0.8361* O  15 s( 43.55%)p 1.30( 56.45%)                                            0.0000  0.6594  0.0264  0.0001  0.0000                                           -0.0181  0.0005  0.7508 -0.0222    17. (1.99551) BD ( 2) C  11 - O  15                  ( 25.85%)   0.5085* C  11 s(  0.00%)p 1.00(100.00%)                                            0.0000 -0.0006 -0.0012 -0.0001  0.0000                                            0.9998  0.0090  0.0163 -0.0011                ( 74.15%)   0.8611* O  15 s(  0.00%)p 1.00(100.00%)                                            0.0000  0.0015  0.0002 -0.0001  0.0000                                            0.9997  0.0019  0.0227  0.0000    18. (1.99471) BD ( 3) C  11 - O  15                  ( 26.14%)   0.5113* C  11 s(  0.00%)p 1.00(100.00%)                                            0.0000  0.0000  0.0000  0.9999  0.0147                                            0.0001  0.0000 -0.0001  0.0000                ( 73.86%)   0.8594* O  15 s(  0.00%)p 1.00(100.00%)                                            0.0000  0.0000  0.0000  1.0000  0.0007                                            0.0001  0.0000 -0.0001  0.0000    19. (1.99840) BD ( 1) C  12 - O  16                  ( 30.10%)   0.5486* C  12 s( 33.61%)p 1.98( 66.39%)                                           -0.0002  0.5553  0.1666  0.0001  0.0000                                            0.0178 -0.0013  0.8127 -0.0555                ( 69.90%)   0.8361* O  16 s( 43.55%)p 1.30( 56.45%)                                            0.0000  0.6594  0.0264 -0.0001  0.0000                                           -0.0217  0.0006 -0.7507  0.0222    20. (1.99551) BD ( 2) C  12 - O  16                  ( 25.85%)   0.5085* C  12 s(  0.00%)p 1.00(100.00%)                                            0.0000 -0.0006 -0.0012  0.0001  0.0000                                            0.9997  0.0090 -0.0212  0.0011                ( 74.15%)   0.8611* O  16 s(  0.00%)p 1.00(100.00%)                                            0.0000  0.0015  0.0002  0.0001  0.0000                                            0.9996  0.0019 -0.0276  0.0000    21. (1.99471) BD ( 3) C  12 - O  16                  ( 26.14%)   0.5113* C  12 s(  0.00%)p 1.00(100.00%)                                            0.0000  0.0000  0.0000  0.9999  0.0147                                           -0.0001  0.0000 -0.0001  0.0000                ( 73.86%)   0.8594* O  16 s(  0.00%)p 1.00(100.00%)                                            0.0000  0.0000  0.0000  1.0000  0.0007                                           -0.0001  0.0000 -0.0001  0.0000    22. (1.99837) BD ( 1) C  13 - O  17                  ( 30.13%)   0.5489* C  13 s( 33.67%)p 1.97( 66.33%)                                           -0.0002  0.5558  0.1666  0.0000  0.0000                                           -0.8125  0.0557  0.0019 -0.0001                ( 69.87%)   0.8359* O  17 s( 43.47%)p 1.30( 56.53%)                                            0.0000  0.6588  0.0263  0.0000  0.0000                                            0.7515 -0.0223 -0.0018  0.0001    23. (1.99534) BD ( 2) C  13 - O  17                  ( 25.88%)   0.5087* C  13 s(  0.00%)p 1.00(100.00%)                                            0.0000  0.0000  0.0000  0.0016  0.0000                                            0.0024  0.0000  1.0000  0.0086                ( 74.12%)   0.8609* O  17 s(  0.00%)p 1.00(100.00%)                                            0.0000  0.0000  0.0000  0.0016  0.0000                                            0.0024  0.0000  1.0000  0.0016    24. (1.99512) BD ( 3) C  13 - O  17                  ( 26.07%)   0.5106* C  13 s(  0.00%)p 1.00(100.00%)                                            0.0000  0.0000  0.0000  0.9999  0.0155                                            0.0000  0.0000 -0.0016  0.0000                ( 73.93%)   0.8598* O  17 s(  0.00%)p 1.00(100.00%)                                            0.0000  0.0000  0.0000  1.0000  0.0010                                            0.0000  0.0000 -0.0016  0.0000    25. (1.97829) CR ( 1)Mo   1           s(100.00%)p 0.00(  0.00%)d 0.00(  0.00%)                                            1.0000  0.0094  0.0001  0.0000  0.0000                                            0.0000  0.0000 -0.0002  0.0000  0.0000                                            0.0000  0.0000  0.0000  0.0000  0.0000                                            0.0000  0.0000  0.0000 -0.0011 -0.0002                                            0.0006  0.0001    26. (1.98591) CR ( 2)Mo   1           s(  0.00%)p 1.00(100.00%)                                            0.0000  0.0000  0.0000  1.0000  0.0030                                           -0.0002  0.0000  0.0000  0.0000  0.0000                                            0.0000  0.0000 -0.0001  0.0000  0.0000                                            0.0000  0.0000  0.0000  0.0000  0.0000                                            0.0000  0.0000    27. (1.99163) CR ( 3)Mo   1           s(  0.00%)p 1.00(100.00%)                                            0.0000 -0.0001  0.0000  0.0000  0.0000                                            0.0000  1.0000  0.0013  0.0000  0.0000                                            0.0000  0.0000  0.0000  0.0000  0.0000                                            0.0000  0.0000  0.0000  0.0000  0.0000                                            0.0001  0.0000    28. (1.99160) CR ( 4)Mo   1           s(  0.00%)p 1.00(100.00%)                                            0.0000  0.0000  0.0000  0.0000  0.0000                                            0.0000  0.0000  0.0000  0.0000  1.0000                                            0.0013  0.0000  0.0000  0.0000  0.0000                                            0.0000  0.0000  0.0000  0.0000  0.0000                                            0.0000  0.0000    29. (1.99909) CR ( 1) C  10           s(100.00%)p 0.00(  0.00%)                                            1.0000 -0.0003  0.0001  0.0000  0.0000                                            0.0005  0.0000  0.0000  0.0000    30. (1.99909) CR ( 1) C  11           s(100.00%)p 0.00(  0.00%)                                            1.0000 -0.0003  0.0001  0.0000  0.0000                                            0.0000  0.0000 -0.0005  0.0000    31. (1.99909) CR ( 1) C  12           s(100.00%)p 0.00(  0.00%)                                            1.0000 -0.0003  0.0001  0.0000  0.0000                                            0.0000  0.0000  0.0005  0.0000    32. (1.99909) CR ( 1) C  13           s(100.00%)p 0.00(  0.00%)                                            1.0000 -0.0003  0.0001  0.0000  0.0000                                           -0.0005  0.0000  0.0000  0.0000    33. (1.99983) CR ( 1) O  14           s(100.00%)p 0.00(  0.00%)                                            1.0000  0.0003  0.0000  0.0000  0.0000                                            0.0003  0.0000  0.0000  0.0000    34. (1.99983) CR ( 1) O  15           s(100.00%)p 0.00(  0.00%)                                            1.0000  0.0003  0.0000  0.0000  0.0000                                            0.0000  0.0000 -0.0003  0.0000    35. (1.99983) CR ( 1) O  16           s(100.00%)p 0.00(  0.00%)                                            1.0000  0.0003  0.0000  0.0000  0.0000                                            0.0000  0.0000  0.0003  0.0000    36. (1.99983) CR ( 1) O  17           s(100.00%)p 0.00(  0.00%)                                            1.0000  0.0003  0.0000  0.0000  0.0000                                           -0.0003  0.0000  0.0000  0.0000    37. (1.55641) LP ( 1)Mo   1           s(  0.00%)p 0.00(  0.00%)d 1.00(100.00%)                                            0.0000  0.0000  0.0000  0.0000 -0.0001                                            0.0000  0.0000  0.0000  0.0000  0.0000                                            0.0000  0.0000  0.0027  0.0001  0.9996                                            0.0269  0.0000  0.0000  0.0001  0.0000                                           -0.0001  0.0000    38. (1.55212) LP ( 2)Mo   1           s(  0.00%)p 1.00(  0.09%)d99.99( 99.91%)                                            0.0000  0.0000  0.0000  0.0000  0.0295                                           -0.0016  0.0000  0.0000  0.0000  0.0000                                            0.0000  0.0000  0.9992  0.0261 -0.0027                                           -0.0001  0.0005  0.0000  0.0000  0.0000                                            0.0000  0.0000    39. (1.51785) LP ( 3)Mo   1           s(  0.00%)p 0.00(  0.00%)d 1.00(100.00%)                                            0.0000  0.0000  0.0000  0.0000  0.0000                                            0.0000  0.0000  0.0000  0.0000  0.0000                                           -0.0070 -0.0003 -0.0005  0.0000  0.0000                                            0.0000  0.9989  0.0452 -0.0024 -0.0001                                           -0.0042 -0.0002    40. (1.99056) LP ( 1)Cl   4           s( 89.24%)p 0.12( 10.76%)                                            0.9447 -0.0004  0.2686  0.0006 -0.1055                                           -0.0003  0.1558  0.0007    41. (1.94905) LP ( 2)Cl   4           s(  2.60%)p37.46( 97.40%)                                            0.1612  0.0023 -0.8792  0.0017 -0.2083                                           -0.0012  0.3971  0.0020    42. (1.93764) LP ( 3)Cl   4           s(  0.00%)p 1.00(100.00%)                                            0.0027 -0.0003  0.0292 -0.0002  0.8575                                           -0.0005  0.5136 -0.0004    43. (1.99026) LP ( 1)Cl   5           s( 89.30%)p 0.12( 10.70%)                                            0.9450 -0.0005  0.2826  0.0005  0.1648                                            0.0006  0.0001  0.0000    44. (1.94870) LP ( 2)Cl   5           s(  2.50%)p39.01( 97.50%)                                            0.1581  0.0024 -0.8355  0.0018  0.5263                                            0.0021 -0.0003  0.0000    45. (1.93720) LP ( 3)Cl   5           s(  0.00%)p 1.00(100.00%)                                            0.0000  0.0000 -0.0003  0.0000  0.0001                                            0.0000  1.0000 -0.0008    46. (1.99055) LP ( 1)Cl   6           s( 89.24%)p 0.12( 10.76%)                                            0.9447 -0.0004  0.2688  0.0006 -0.1055                                           -0.0003 -0.1556 -0.0007    47. (1.94905) LP ( 2)Cl   6           s(  2.60%)p37.45( 97.40%)                                            0.1612  0.0023 -0.8788  0.0017 -0.2086                                           -0.0012 -0.3976 -0.0020    48. (1.93763) LP ( 3)Cl   6           s(  0.00%)p 1.00(100.00%)                                            0.0027 -0.0003  0.0296 -0.0002  0.8572                                           -0.0005 -0.5141  0.0004    49. (1.99056) LP ( 1)Cl   7           s( 89.24%)p 0.12( 10.76%)                                            0.9447 -0.0004 -0.2687 -0.0006 -0.1052                                           -0.0003  0.1560  0.0007    50. (1.94905) LP ( 2)Cl   7           s(  2.60%)p37.45( 97.40%)                                            0.1612  0.0023  0.8791 -0.0017 -0.2077                                           -0.0012  0.3975  0.0020    51. (1.93764) LP ( 3)Cl   7           s(  0.00%)p 1.00(100.00%)                                            0.0027 -0.0003 -0.0293  0.0002  0.8583                                           -0.0005  0.5122 -0.0004    52. (1.99026) LP ( 1)Cl   8           s( 89.30%)p 0.12( 10.70%)                                            0.9450 -0.0005 -0.2826 -0.0005  0.1648                                            0.0006 -0.0003  0.0000    53. (1.94870) LP ( 2)Cl   8           s(  2.50%)p39.02( 97.50%)                                            0.1581  0.0024  0.8355 -0.0018  0.5263                                            0.0021 -0.0012  0.0000    54. (1.93720) LP ( 3)Cl   8           s(  0.00%)p 1.00(100.00%)                                            0.0000  0.0000  0.0002  0.0000  0.0019                                            0.0000  1.0000 -0.0008    55. (1.99056) LP ( 1)Cl   9           s( 89.24%)p 0.12( 10.76%)                                            0.9447 -0.0004 -0.2687 -0.0006 -0.1058                                           -0.0003 -0.1554 -0.0007    56. (1.94905) LP ( 2)Cl   9           s(  2.60%)p37.46( 97.40%)                                            0.1612  0.0023  0.8789 -0.0017 -0.2093                                           -0.0012 -0.3971 -0.0020    57. (1.93764) LP ( 3)Cl   9           s(  0.00%)p 1.00(100.00%)                                            0.0027 -0.0003 -0.0295  0.0002  0.8564                                           -0.0005 -0.5155  0.0004    58. (1.97508) LP ( 1) O  14           s( 56.53%)p 0.77( 43.47%)                                           -0.0004  0.7517 -0.0167  0.0000  0.0000                                            0.6593  0.0087 -0.0017  0.0000    59. (1.97477) LP ( 1) O  15           s( 56.50%)p 0.77( 43.50%)                                           -0.0004  0.7515 -0.0167 -0.0001  0.0000                                            0.0138  0.0004 -0.6594 -0.0086    60. (1.97477) LP ( 1) O  16           s( 56.50%)p 0.77( 43.50%)                                           -0.0004  0.7515 -0.0167  0.0001  0.0000                                            0.0170  0.0005  0.6593  0.0086    61. (1.97469) LP ( 1) O  17           s( 56.58%)p 0.77( 43.42%)                                           -0.0004  0.7520 -0.0165  0.0000  0.0000                                           -0.6589 -0.0084  0.0016  0.0000    62. (0.00292) RY*( 1)Mo   1           s( 89.49%)p 0.00(  0.20%)d 0.12( 10.31%)                                            0.0000 -0.0056  0.9460  0.0000  0.0000                                            0.0000  0.0000 -0.0007  0.0443  0.0000                                            0.0000 -0.0003  0.0000  0.0000  0.0000                                            0.0000  0.0000  0.0000  0.0030  0.2805                                           -0.0014 -0.1563    63. (0.00264) RY*( 2)Mo   1           s(  0.00%)p 1.00( 99.99%)d 0.00(  0.01%)                                            0.0000  0.0000  0.0000  0.0000  0.0570                                            0.9983  0.0000  0.0000  0.0000  0.0000                                            0.0000  0.0000 -0.0003  0.0093  0.0000                                           -0.0001  0.0000  0.0000  0.0000  0.0000                                            0.0000  0.0000    64. (0.00148) RY*( 3)Mo   1           s(  2.82%)p14.03( 39.64%)d20.37( 57.53%)                                            0.0000 -0.0178  0.1671  0.0000  0.0000                                            0.0000  0.0000  0.0115 -0.6295  0.0000                                            0.0000  0.0008  0.0000 -0.0001  0.0000                                           -0.0009  0.0002  0.0025 -0.0147 -0.0431                                            0.0469  0.7557    65. (0.00136) RY*( 4)Mo   1           s(  7.69%)p 0.35(  2.70%)d11.65( 89.61%)                                            0.0000 -0.0348  0.2752  0.0000  0.0000                                            0.0000  0.0000 -0.0026  0.1643  0.0000                                            0.0000 -0.0006  0.0000  0.0001  0.0000                                            0.0008 -0.0001 -0.0020 -0.0743 -0.9434                                            0.0153  0.0190    66. (0.00137) RY*( 5)Mo   1           s(  0.00%)p 1.00( 92.80%)d 0.08(  7.20%)                                            0.0000  0.0000  0.0002  0.0000  0.0000                                            0.0000  0.0000  0.0000  0.0002  0.0000                                           -0.0147  0.9632  0.0000 -0.0015  0.0000                                           -0.0001  0.0123 -0.2680 -0.0001  0.0001                                           -0.0001  0.0000    67. (0.00119) RY*( 6)Mo   1           s(  0.06%)p99.99( 57.46%)d99.99( 42.48%)                                            0.0000 -0.0069  0.0238  0.0000  0.0000                                            0.0000  0.0000 -0.0089  0.7580  0.0000                                            0.0000  0.0007  0.0000  0.0000  0.0002                                           -0.0062  0.0002  0.0032  0.0030  0.1524                                            0.0362  0.6326    68. (0.00107) RY*( 7)Mo   1           s(  0.00%)p 0.00(  0.00%)d 1.00(100.00%)                                            0.0000  0.0000  0.0001  0.0000  0.0000                                            0.0001  0.0000  0.0000  0.0040  0.0000                                            0.0000  0.0001  0.0000 -0.0002 -0.0269                                            0.9996  0.0000  0.0000  0.0001  0.0017                                            0.0003  0.0046    69. (0.00103) RY*( 8)Mo   1           s(  0.00%)p 0.00(  0.01%)d 1.00( 99.99%)                                            0.0000  0.0000  0.0000  0.0000 -0.0019                                           -0.0092  0.0000  0.0000 -0.0001  0.0000                                            0.0000  0.0017 -0.0260  0.9996  0.0000                                            0.0002  0.0000  0.0008  0.0000  0.0001                                            0.0000  0.0000    70. (0.00047) RY*( 9)Mo   1           s(  0.00%)p 1.00(  7.20%)d12.89( 92.80%)                                            0.0000  0.0000  0.0001  0.0000  0.0000                                            0.0000  0.0000  0.0000 -0.0005  0.0000                                           -0.0007  0.2683  0.0000 -0.0012  0.0000                                            0.0000 -0.0435  0.9623  0.0001 -0.0024                                            0.0002 -0.0041    71. (0.00902) RY*( 1) P   2           s(  0.20%)p99.99( 99.80%)                                            0.0215  0.0393  0.0115 -0.8714  0.0034                                           -0.4884  0.0000 -0.0001    72. (0.00886) RY*( 2) P   2           s(  0.01%)p99.99( 99.99%)                                            0.0118  0.0011  0.0067 -0.4884 -0.0080                                            0.8722 -0.0002  0.0215    73. (0.00883) RY*( 3) P   2   
[...]
1.0E-5"><scalar dataType="xsd:integer" dictRef="compchem:atomicNumber">17</scalar></atom><atom id="a6" elementType="Cl" x3="3.449284" y3="-1.050988" z3="-1.704969"><scalar dataType="xsd:integer" dictRef="compchem:atomicNumber">17</scalar></atom><atom id="a7" elementType="Cl" x3="-3.448206" y3="-1.04725" z3="1.707901"><scalar dataType="xsd:integer" dictRef="compchem:atomicNumber">17</scalar></atom><atom id="a8" elementType="Cl" x3="-3.619775" y3="1.908539" z3="-0.003292"><scalar dataType="xsd:integer" dictRef="compchem:atomicNumber">17</scalar></atom><atom id="a9" elementType="Cl" x3="-3.449007" y3="-1.053818" z3="-1.703227"><scalar dataType="xsd:integer" dictRef="compchem:atomicNumber">17</scalar></atom><atom id="a10" elementType="C" x3="-9.0E-6" y3="2.11687" z3="-0.005509"><scalar dataType="xsd:integer" dictRef="compchem:atomicNumber">6</scalar></atom><atom id="a11" elementType="C" x3="-1.95E-4" y3="0.069813" z3="-2.060752"><scalar dataType="xsd:integer" dictRef="compchem:atomicNumber">6</scalar></atom><atom id="a12" elementType="C" x3="2.08E-4" y3="0.079888" z3="2.059901"><scalar dataType="xsd:integer" dictRef="compchem:atomicNumber">6</scalar></atom><atom id="a13" elementType="C" x3="-1.3E-5" y3="-2.002964" z3="0.004594"><scalar dataType="xsd:integer" dictRef="compchem:atomicNumber">6</scalar></atom><atom id="a14" elementType="O" x3="-4.6E-5" y3="3.289079" z3="-0.008509"><scalar dataType="xsd:integer" dictRef="compchem:atomicNumber">8</scalar></atom><atom id="a15" elementType="O" x3="-3.21E-4" y3="0.094041" z3="-3.233166"><scalar dataType="xsd:integer" dictRef="compchem:atomicNumber">8</scalar></atom><atom id="a16" elementType="O" x3="3.55E-4" y3="0.109834" z3="3.232188"><scalar dataType="xsd:integer" dictRef="compchem:atomicNumber">8</scalar></atom><atom id="a17" elementType="O" x3="-1.8E-5" y3="-3.176287" z3="0.00737"><scalar dataType="xsd:integer" dictRef="compchem:atomicNumber">8</scalar></atom></atomArray><formula formalCharge="0" concise="C 4 Cl 6 Mo 1 O 4 P 2" dictRef="cc:formula.calc"/><bondArray><bond atomRefs2="a1 a2" id="a1_a2" order="S"/><bond atomRefs2="a1 a3" id="a1_a3" order="S"/><bond atomRefs2="a1 a10" id="a1_a10" order="S"/><bond atomRefs2="a1 a11" id="a1_a11" order="S"/><bond atomRefs2="a1 a12" id="a1_a12" order="S"/><bond atomRefs2="a1 a13" id="a1_a13" order="S"/><bond atomRefs2="a2 a4" id="a2_a4" order="S"/><bond atomRefs2="a2 a5" id="a2_a5" order="S"/><bond atomRefs2="a2 a6" id="a2_a6" order="S"/><bond atomRefs2="a3 a7" id="a3_a7" order="S"/><bond atomRefs2="a3 a8" id="a3_a8" order="S"/><bond atomRefs2="a3 a9" id="a3_a9" order="S"/><bond atomRefs2="a10 a14" id="a10_a14" order="S"/><bond atomRefs2="a11 a15" id="a11_a15" order="S"/><bond atomRefs2="a12 a16" id="a12_a16" order="S"/><bond atomRefs2="a13 a17" id="a13_a17" order="S"/></bondArray><property dictRef="cml:molmass"><scalar dataType="xsd:double" units="unit:dalton" xmlns:unit="http://www.xml-cml.org/unit/si/">482.645922</scalar></property><formula concise="C 4 Cl 6 Mo 1 O 4 P 2" dictRef="cc:formula.user"/></molecule><scalar dataType="xsd:string" dictRef="cc:version">EM64L-G09RevA.02</scalar><scalar dataType="xsd:string" dictRef="cc:electronicstate">1-A</scalar><scalar dataType="xsd:double" dictRef="cc:hfenergy" units="nonsi:hartree">-623.5760311</scalar><scalar dataType="xsd:double" dictRef="cc:rmsd" units="nonsi:unknown">5.679E-10</scalar><scalar dataType="xsd:double" dictRef="cc:rmsf" units="nonsi:unknown">1.119E-6</scalar><scalar dataType="xsd:string" dictRef="x:ZeroPoint">0.0423002</scalar><scalar dataType="xsd:string" dictRef="x:Thermal">0.0665254</scalar><array dataType="xsd:double" size="3" dictRef="cc:dipole" units="nonsi:debye">-2.6E-6 0.1197056 -7.567E-4</array><array dataType="xsd:double" size="153" dictRef="cc:dipolederiv" units="nonsi:unknown">-3.1321299 -1.78E-5 -1.076E-4 1.72E-5 -2.3778673 -4.32E-5 7.4E-5 -3.96E-5 -2.3581709 3.1409767 -0.0014931 -2.06E-5 -0.051327 1.3833325 1.17E-4 2.767E-4 6.54E-5 1.3671424 3.1409786 0.0014885 -6.01E-5 0.0513137 1.3833257 -2.54E-5 -4.21E-4 2.99E-5 1.3671457 -0.6763788 0.1043003 -0.1713002 0.2758204 -0.3008434 0.1853471 -0.4155446 0.1788327 -0.4816891 -0.7475853 -0.2251963 -7.4E-6 -0.5024174 -0.5619571 4.8E-6 -1.798E-4 -4.64E-5 -0.1888171 -0.6768766 0.1044942 0.1714426 0.2763322 -0.3010749 -0.1854523 0.4153622 -0.178813 -0.4812704 -0.6764592 -0.1040109 0.1715516 -0.2752004 -0.300254 0.1850877 0.415999 0.178489 -0.4822626 -0.7475991 0.2252021 -4.025E-4 0.5024116 -0.5619429 6.67E-4 -7.98E-4 6.381E-4 -0.1888186 -0.676784 -0.1047814 -0.1711844 -0.2769568 -0.3016718 -0.185715 -0.4149032 -0.1791605 -0.480699 0.495122 -4.67E-5 4.04E-5 -5.2E-6 2.5577026 -0.0059001 -8.3E-6 -0.0055999 0.3505031 0.4511884 -2.38E-5 1.994E-4 1.3E-6 0.357087 -0.0421598 2.74E-4 -0.1109874 2.5946548 0.4508236 2.82E-5 2.329E-4 -1.7E-6 0.3578977 0.0531403 2.794E-4 0.1219282 2.5942265 0.4062161 2.14E-5 2.29E-5 1.03E-5 2.649569 -0.0051449 1.33E-5 -0.0054156 0.3532502 -0.1987198 4.95E-5 -4.5E-6 1.28E-5 -1.7924827 0.0043045 2.0E-6 0.0041964 -0.1732739 -0.1892301 1.28E-5 -1.882E-4 1.9E-6 -0.1738606 0.0477591 -2.04E-4 0.0760584 -1.8120425 -0.1891308 -1.58E-5 -2.182E-4 -3.1E-6 -0.1744878 -0.055759 -2.158E-4 -0.0840726 -1.8116075 -0.174412 -1.11E-5 4.0E-6 -9.8E-6 -1.8424718 0.003772 -5.9E-6 0.003897 -0.1682711</array><array dataType="xsd:double" size="6" dictRef="cc:polarizability" units="nonsi:unknown">297.7617697 -7.075E-4 212.831858 0.0047431 0.0016129 211.6010072</array><scalar dataType="xsd:string" dictRef="cc:pointgroup">C01 [X(C4Cl6Mo1O4P2)]</scalar><array dataType="xsd:double" size="1326" dictRef="x:unknown">0.31659803 -7.0E-8 0.38950153 4.9E-6 -7.09E-6 0.38800106 -0.04051062 5.2447E-4 -5.4E-7 0.16956607 4.1366E-4 -0.04079451 -7.7E-7 9.6087E-4 0.14199004 -2.52E-6 1.69E-6 -0.04062895 -9.1E-6 8.31E-6 0.14005585 -0.04051102 -5.2449E-4 5.2E-6 -0.02760936 8.8728E-4 -5.12E-6 0.16956708 -4.1383E-4 -0.04079463 1.33E-6 -8.8714E-4 0.00232161 -4.8E-7 -9.6082E-4 0.14199062 2.35E-6 -1.28E-6 -0.04062903 6.74E-6 -1.32E-6 0.00238452 -2.4E-7 -1.88E-6 0.14005716 -0.00605387 0.00423096 -0.00726504 -0.03203297 0.01680666 -0.02681398 0.00285274 -5.7955E-4 0.00121686 0.03074061 0.00233278 0.00290518 0.00266819 0.01638685 -0.02762888 0.0242623 -0.00135015 -3.3532E-4 -0.00113415 -0.01872172 0.03240704 -0.00333727 0.00220335 4.053E-4 -0.02630257 0.02447757 -0.05161014 0.00207018 -9.1084E-4 8.5796E-4 0.02962267 -0.03309706 0.06671932 -0.00571228 -0.00836719 4.09E-6 -0.03782986 -0.03412485 -4.67E-6 0.00292185 0.00178101 -1.8E-7 0.00365276 0.00103862 4.0905E-4 0.03662437 -0.00309121 -4.9047E-4 2.97E-6 -0.03383509 -0.06138733 -4.84E-6 0.0021043 0.00153916 -1.09E-6 -0.00149268 -0.00854117 0.00495874 0.03888033 0.08038818 -2.08E-6 -2.55E-6 0.00423891 -2.85E-6 -1.97E-6 -0.01192717 6.8E-7 -2.0E-8 -8.992E-4 0.00204455 0.0074485 -0.00127508 5.33E-6 -2.95E-6 0.01154905 -0.00605049 0.00423461 0.0072623 -0.0320734 0.01684098 0.02681845 0.00285319 -5.7918E-4 -0.00122111 0.00350603 -9.5077E-4 -0.00139486 0.0036553 -0.00148873 -0.00204067 0.03078041 0.0023328 0.00290185 -0.00266863 0.01642103 -0.02765276 -0.02426482 -0.00135081 -3.3371E-4 0.00113743 -9.5142E-4 0.00245487 0.00137858 0.00104508 -0.00854245 -0.00744112 -0.01876357 0.03243253 0.00332783 -0.00220163 4.1104E-4 0.0263106 -0.02448275 -0.05154351 -0.00206661 9.1028E-4 8.5745E-4 0.00140795 -0.00138734 -0.01257491 -4.0683E-4 -0.00495381 -0.00126941 -0.0296324 0.03310219 0.06663759 -0.00605234 -0.00421992 0.00727209 0.00285271 5.7601E-4 -0.00121974 -0.03204043 -0.01676686 0.0268446 -0.00134668 5.6849E-4 -8.0903E-4 -2.3755E-4 -2.4854E-4 8.115E-5 -2.3899E-4 8.621E-5 2.7308E-4 0.03074789 -0.00232692 0.00291288 0.00266333 0.00134675 -3.3838E-4 -0.00113364 -0.01634803 -0.0275485 0.02422219 -5.6575E-4 3.5674E-4 -2.0509E-4 -2.3307E-4 -1.8485E-4 1.0988E-4 -8.574E-5 1.2603E-4 8.005E-5 0.01867844 0.03229535 0.00333946 0.00219952 3.9729E-4 -0.00207195 -9.08E-4 8.6119E-4 0.02633377 0.02443826 -0.05168444 8.1047E-4 -2.0714E-4 4.4604E-4 2.1944E-4 2.1645E-4 1.373E-5 2.7361E-4 -8.102E-5 -2.7346E-4 -0.02965636 -0.03303943 0.06682119 -0.00571184 0.00836686 -1.436E-5 0.0029218 -0.00178108 5.29E-6 -0.03783169 0.03412522 -5.876E-5 -2.373E-4 2.3245E-4 -2.193E-4 -0.00158309 -9.2198E-4 -1.46E-6 -2.3757E-4 2.3355E-4 2.1871E-4 0.00365353 -0.00104056 -4.0715E-4 0.03662583 0.00309089 -4.9012E-4 8.98E-6 -0.00210422 0.00153911 -5.54E-6 0.03383563 -0.06138552 8.596E-5 2.4808E-4 -1.8465E-4 2.1632E-4 9.2195E-4 4.2662E-4 1.04E-6 2.4886E-4 -1.8559E-4 -2.1585E-4 0.00148844 -0.00851889 0.00497034 -0.03888124 0.08038649 -4.38E-6 7.81E-6 0.00423884 3.45E-6 -3.56E-6 -8.9919E-4 -5.859E-5 8.702E-5 -0.0119273 -8.071E-5 1.0985E-4 1.378E-5 -2.14E-6 -8.3E-7 1.7474E-4 8.081E-5 -1.0962E-4 1.427E-5 -0.00204684 0.00745943 -0.00129585 6.763E-5 -1.2348E-4 0.01154953 -0.00605248 -0.00424579 -0.0072554 0.00285326 5.8275E-4 0.00121809 -0.03206461 -0.01688129 -0.0267877 -2.3911E-4 8.56E-5 -2.7406E-4 -2.373E-4 -2.4841E-4 -8.037E-5 -0.0013481 5.6792E-4 8.0874E-4 0.00350597 9.5347E-4 0.00139579 0.00365451 0.0014937 0.00203879 0.03077244 -0.00233881 0.00289412 -0.00267375 0.00135424 -3.306E-4 0.00113796 -0.01646042 -0.02773479 -0.0243064 -8.608E-5 1.2605E-4 -8.106E-5 -2.3292E-4 -1.8541E-4 -1.096E-4 -5.707E-4 3.5765E-4 2.0707E-4 9.488E-4 0.00245482 0.00135392 -0.00104248 -0.00856513 -0.00743045 0.01880684 0.03254647 -0.00332594 -0.00220545 4.1897E-4 0.0020649 9.1314E-4 8.5419E-4 -0.02627903 -0.02452348 -0.0514708 -2.7354E-4 8.009E-5 -2.7368E-4 -2.1857E-4 -2.1574E-4 1.433E-5 -8.073E-4 2.05E-4 4.4399E-4 -0.00140698 -0.00141208 -0.01257452 4.09E-4 -0.00494245 -0.0012489 0.02959837 0.03316165 0.06653694 -0.07295839 5.3E-7 -1.2E-6 -0.00228752 0.00812122 -2.275E-5 -0.00228685 -0.0081218 2.124E-5 -5.3621E-4 -1.736E-5 -6.505E-5 1.7563E-4 3.0673E-4 1.46E-6 -5.3746E-4 -2.078E-5 6.688E-5 -5.3674E-4 1.877E-5 6.576E-5 1.7555E-4 -3.0647E-4 1.0E-7 -5.3708E-4 1.94E-5 -6.625E-5 0.09060091 4.7E-7 -0.06387411 -1.938E-5 0.0176208 0.01156398 3.34E-6 -0.01762131 0.01156364 -9.95E-6 -0.0017234 -5.9523E-4 -7.3885E-4 -0.0049322 -0.00816173 -1.2E-6 -0.00171953 -5.8995E-4 7.3893E-4 0.00172214 -5.9491E-4 -7.3854E-4 0.00493266 -0.00816172 1.269E-5 0.00172076 -5.9027E-4 7.3925E-4 -3.019E-5 1.07886569 2.1E-7 -2.136E-5 -0.07361714 -4.304E-5 -2.473E-5 0.00412577 4.413E-5 -1.976E-5 0.00412586 -9.392E-5 -1.3819E-4 -2.48E-4 1.022E-5 1.965E-5 -6.7642E-4 1.0116E-4 1.4312E-4 -2.5177E-4 9.346E-5 -1.3933E-4 -2.4786E-4 -1.167E-5 1.884E-5 -6.7646E-4 -1.0161E-4 1.4199E-4 -2.519E-4 1.91E-6 -0.00252082 0.09383363 -0.07393501 5.4E-7 1.2E-6 -0.00266934 6.4609E-4 -0.00936793 -0.00266723 -6.4523E-4 0.00937573 -3.4712E-4 -9.027E-5 -1.2376E-4 -3.0202E-4 -1.573E-5 6.7492E-4 7.317E-5 -3.7107E-4 3.409E-5 -3.4704E-4 9.006E-5 1.2362E-4 -3.0003E-4 1.463E-5 -6.7688E-4 7.27E-5 3.7072E-4 -3.74E-5 0.00482142 -1.21E-6 -4.9E-7 0.09254022 3.8E-7 -0.07396116 6.313E-4 -6.293E-5 0.00372193 -7.7081E-4 6.305E-5 0.00372035 -7.7073E-4 5.898E-5 -1.7546E-4 5.038E-5 2.8724E-4 -4.172E-5 3.9945E-4 2.6431E-4 -6.0505E-4 2.2884E-4 -5.866E-5 -1.7518E-4 5.026E-5 -2.8862E-4 -4.109E-5 3.9947E-4 -2.638E-4 -6.0435E-4 2.2907E-4 -6.9E-7 -0.00170196 -0.01356057 -2.13E-6 0.09396903 5.87E-6 9.7994E-4 -0.06384466 -0.01717861 0.00380434 0.00956717 0.01717753 0.00380491 0.00955194 0.00235328 -0.00100836 -1.5698E-4 0.00207222 0.00139259 -4.6589E-4 0.00375428 -0.00366091 -0.00647488 -0.00235495 -0.00100754 -1.542E-4 -0.00207579 0.00139807 -4.668E-4 -0.00375089 -0.00366668 -0.00646374 -7.7E-7 -0.01987958 -0.00245241 1.0535E-4 -0.02061368 1.07595045 -0.07394281 -6.1E-7 1.02E-6 -0.00267175 6.909E-4 0.00938165 -0.00267402 -6.9186E-4 -0.00937348 7.249E-5 -3.7173E-4 -3.878E-5 -2.964E-4 -1.611E-5 -6.8025E-4 -3.4651E-4 -8.931E-5 1.2384E-4 7.292E-5 3.7214E-4 3.534E-5 -2.9837E-4 1.719E-5 6.7826E-4 -3.465E-4 8.955E-5 -1.2401E-4 0.00482138 1.65E-6 -5.2E-7 0.02670277 7.0E-8 -9.14E-6 0.09255592 -3.2E-7 -0.07397087 -5.8182E-4 2.007E-5 0.00370395 7.9892E-4 -2.021E-5 0.00370555 7.9916E-4 2.4503E-4 -5.8642E-4 -2.5784E-4 2.8087E-4 -4.889E-5 -4.0152E-4 4.65E-5 -1.7004E-4 -4.984E-5 -2.4563E-4 -5.8721E-4 -2.5765E-4 -2.7954E-4 -4.949E-5 -4.0148E-4 -4.68E-5 -1.7032E-4 -4.998E-5 8.3E-7 -0.00153533 0.01355515 -1.4E-7 0.02479668 -8.2607E-4 3.17E-6 0.09418975 5.39E-6 -9.2945E-4 -0.06384249 0.01717585 -0.00377684 0.00955019 -0.01717646 -0.00377654 0.00956567 -0.00374487 0.00364705 -0.00646336 -0.00208294 -0.00140922 -4.6078E-4 -0.00235854 0.00100656 -1.5458E-4 0.00374794 0.00364133 -0.0064745 0.00207936 -0.00140352 -4.5987E-4 0.00235688 0.00100742 -1.5738E-4 -1.69E-6 0.01987282 -0.00262126 -8.79E-6 4.2545E-4 -0.05713972 1.2262E-4 0.02540299 1.07570237 -0.07497057 -1.0E-8 -5.1E-7 -0.00314254 -0.01042195 2.178E-5 -0.00314268 0.01042242 -2.359E-5 2.6222E-4 7.4069E-4 3.9376E-4 -3.3913E-4 -1.1866E-4 6.8E-7 2.6156E-4 7.4374E-4 -3.9556E-4 2.6177E-4 -7.4266E-4 -3.9308E-4 -3.392E-4 1.1859E-4 -3.4E-7 2.619E-4 -7.4181E-4 3.9611E-4 0.02685169 -4.4E-7 -4.0E-7 0.00458814 6.1E-7 -7.5E-7 0.00458745 -6.5E-7 -1.03E-6 0.09397577 -2.9E-7 -0.06492085 -2.588E-5 -0.0171407 0.00749243 -3.337E-5 0.01714094 0.00749245 -1.77E-5 0.0030305 -0.00265504 0.00352757 0.0027215 3.8043E-4 4.75E-6 0.00302438 -0.00264123 -0.00350131 -0.0030279 -0.0026432 0.00352252 -0.00272146 3.8036E-4 3.6E-7 -0.00302702 -0.00265331 -0.00350656 2.1E-7 -0.05713934 2.0366E-4 1.54E-6 -0.00255376 0.0192223 -1.95E-6 -0.00270949 -0.01921543 4.03E-6 1.07385866 1.3E-6 -2.473E-5 -0.07421984 4.29E-5 -3.88E-6 0.00350207 -4.117E-5 -9.12E-6 0.00350214 2.4075E-4 5.344E-5 -1.6846E-4 -6.59E-6 -1.22E-6 -1.8914E-4 -2.6085E-4 -4.578E-5 -1.4694E-4 -2.4282E-4 5.518E-5 -1.6684E-4 6.62E-6 -1.43E-6 -1.8912E-4 2.587E-4 -4.396E-5 -1.4862E-4 -3.9E-7 1.9822E-4 0.02477011 -5.6E-7 0.01333245 -0.00174341 -7.3E-7 -0.01332826 -0.00158786 1.71E-6 -0.00231842 0.09307636 0.023678 5.4E-7 1.3E-7 6.1929E-4 -0.00115062 3.83E-6 6.185E-4 0.001151 -3.36E-6 1.105E-4 -7.66E-6 -5.255E-5 -6.3285E-4 3.0111E-4 -2.0E-6 1.1138E-4 -6.88E-6 5.157E-5 1.1094E-4 7.44E-6 5.213E-5 -6.3268E-4 -3.0142E-4 1.16E-6 1.1113E-4 7.07E-6 -5.189E-5 -0.03745549 3.001E-5 -4.0E-8 -8.1897E-4 3.0E-8 -2.0E-8 -8.1846E-4 -1.0E-7 7.5E-7 -0.00854892 -1.3E-7 1.9E-7 0.02074859 7.0E-7 -0.04496861 1.6836E-4 -0.01194803 -0.00689974 5.56E-6 0.01194818 -0.00689987 1.118E-5 0.00138378 2.3607E-4 5.976E-4 0.00268146 0.00490051 -2.29E-6 0.00138319 2.3349E-4 -5.9873E-4 -0.00138351 2.3621E-4 5.9791E-4 -0.00268162 0.00490051 -8.87E-6 -0.00138344 2.3336E-4 -5.9841E-4 2.983E-5 -0.9755609 0.00240014 1.06E-6 5.7845E-4 0.01235038 -1.22E-6 5.0597E-4 -0.01234382 3.0E-8 0.01405222 -5.339E-5 -3.055E-5 1.01562695 -8.0E-8 1.709E-4 0.02397393 3.002E-5 1.571E-5 -7.3006E-4 -3.058E-5 1.546E-5 -7.3009E-4 3.29E-6 -3.222E-5 8.881E-5 -7.55E-6 -1.115E-5 1.6991E-4 -1.046E-5 3.107E-5 9.198E-5 -3.31E-6 -3.207E-5 8.89E-5 7.14E-6 -1.171E-5 1.6993E-4 1.043E-5 3.122E-5 9.189E-5 2.5E-7 0.00239622 -0.039441 3.3E-7 0.00229269 0.00143862 3.5E-7 -0.00228743 0.00151335 1.3E-7 -5.526E-5 -0.00825776 3.3E-7 -0.00254506 0.02014835 0.02393645 -2.3E-7 -6.53E-6 6.4079E-4 -1.476E-4 0.00124358 6.3857E-4 1.4714E-4 -0.0012448 -1.507E-5 1.0853E-4 -5.275E-5 1.0301E-4 -1.115E-5 -1.3142E-4 -3.6446E-4 1.9131E-4 -2.5982E-4 -1.514E-5 -1.0823E-4 5.307E-5 1.0298E-4 1.111E-5 1.3186E-4 -3.6232E-4 -1.9086E-4 2.6028E-4 -8.2694E-4 1.19E-6 1.7E-7 -0.03814399 2.3E-6 -1.0029E-4 -0.0085423 9.0E-8 2.38E-6 -7.3824E-4 -1.24E-6 1.4E-7 1.3684E-4 -8.1E-7 -9.0E-8 0.02082961 -8.0E-8 0.02398399 2.7128E-4 -1.5727E-4 -6.5978E-4 8.197E-5 1.5726E-4 -6.5958E-4 8.199E-5 4.794E-5 4.99E-5 -1.526E-5 2.011E-5 1.1643E-4 -4.479E-5 1.2063E-4 9.225E-5 6.312E-5 -4.801E-5 4.994E-5 -1.506E-5 -2.002E-5 1.1644E-4 -4.5E-5 -1.2035E-4 9.204E-5 6.319E-5 9.0E-8 0.00109831 0.00235599 2.1E-6 -0.03981836 0.01926043 0.0 -0.00825409 -4.098E-5 -1.5E-7 0.00167772 -0.00228297 0.0 -3.3303E-4 -4.2229E-4 -2.3E-6 0.02071484 -7.06E-6 -2.1465E-4 -0.04470915 0.01169746 -0.00171517 -0.00645605 -0.01169682 -0.00171537 -0.00645192 -0.00161935 6.2332E-4 -5.0E-6 -0.00169196 -0.00105665 4.5864E-4 -0.00220307 0.00182434 0.00414205 0.00162019 6.2264E-4 -6.63E-6 0.00169393 -0.0010596 4.6069E-4 0.0022019 0.00182767 0.00413638 -7.0E-8 0.01223535 9.1478E-4 -1.0173E-4 0.02031575 -0.9726277 2.18E-6 4.0472E-4 0.01416422 1.0E-7 -0.01180722 7.9115E-4 1.5E-7 -0.0078518 -5.4001E-4 1.0512E-4 -0.01985281 1.01280495 0.02393884 2.2E-7 -6.99E-6 6.3893E-4 -1.5308E-4 -0.00124449 6.4154E-4 1.5361E-4 0.00124307 -3.5968E-4 1.9194E-4 2.5884E-4 1.0236E-4 -1.067E-5 1.3256E-4 -1.566E-5 1.0814E-4 5.308E-5 -3.6189E-4 -1.9247E-4 -2.5822E-4 1.0234E-4 1.074E-5 -1.3209E-4 -1.568E-5 -1.0847E-4 -5.275E-5 -8.2661E-4 -1.43E-6 1.9E-7 -0.00854276 -7.0E-8 2.47E-6 -0.03815123 -3.25E-6 -1.1719E-4 -7.3773E-4 1.48E-6 1.9E-7 1.3671E-4 9.4E-7 -1.1E-7 0.00250845 2.0E-8 -9.3E-7 0.02083035 4.0E-8 0.02398273 -6.0692E-4 -2.1422E-4 -6.5146E-4 -1.1025E-4 2.1422E-4 -6.5164E-4 -1.1028E-4 1.3043E-4 8.237E-5 -4.33E-5 2.813E-5 1.2189E-4 4.701E-5 5.602E-5 4.704E-5 1.445E-5 -1.307E-4 8.26E-5 -4.321E-5 -2.821E-5 1.2186E-4 4.68E-5 -5.596E-5 4.7E-5 1.466E-5 -1.2E-7 0.00102644 -0.00235656 2.0E-8 -0.00825538 1.5035E-4 -3.03E-6 -0.04003457 -0.02380729 1.8E-7 0.00174548 0.00227871 2.0E-8 -2.9267E-4 4.2106E-4 -3.0E-8 0.0024995 -1.4905E-4 3.25E-6 0.02093415 -7.5E-6 -1.2203E-4 -0.0447062 -0.01169481 0.00168743 -0.00645593 0.01169534 0.00168739 -0.00645998 0.00219857 -0.00181314 0.00413691 0.00169696 0.00106627 4.5932E-4 0.00162148 -6.2183E-4 -5.95E-6 -0.00219962 -0.00180985 0.00414258 -0.001695 0.00106317 4.5726E-4 -0.00162064 -6.2254E-4 -4.32E-6 4.1E-7 -0.0122332 9.8924E-4 2.07E-6 -2.9528E-4 0.0141668 -1.1861E-4 -0.02486358 -0.97238302 2.0E-7 0.01179999 7.2444E-4 -3.1E-7 0.00784945 -5.8281E-4 -8.6E-7 1.0514E-4 -0.00652013 1.2244E-4 0.02468878 1.01256056 0.02431043 -4.2E-7 -3.5E-7 7.345E-4 0.00125276 -2.38E-6 7.3442E-4 -0.00125286 2.63E-6 -2.934E-5 -1.7627E-4 -8.452E-5 -6.48E-5 -9.353E-5 -2.3E-7 -2.84E-5 -1.7594E-4 8.485E-5 -2.895E-5 1.7635E-4 8.43E-5 -6.477E-5 9.355E-5 -1.0E-7 -2.874E-5 1.7593E-4 -8.501E-5 -0.00865729 5.0E-8 2.3E-7 -7.2491E-4 -7.0E-8 2.2E-7 -7.2458E-4 7.0E-8 3.4E-7 -0.0390915 -3.89E-6 6.0E-7 0.00252548 0.0 -8.0E-8 1.1177E-4 3.0E-8 -5.0E-8 1.1172E-4 -4.0E-8 -1.2E-7 0.02091497 -2.1E-7 -0.04481696 1.6849E-4 0.01171453 -0.00598959 2.37E-5 -0.01171462 -0.0059898 1.689E-5 -0.00206176 0.00208396 -0.00206083 -0.00179607 -2.8921E-4 -2.64E-6 -0.00206127 0.00207505 0.00204632 0.0020612 0.00207656 -0.00205914 0.00179607 -2.8917E-4 -1.4E-7 0.00206182 0.00208264 0.00204809 -1.9E-7 0.01438737 -5.722E-5 -9.8E-7 0.00114705 -0.01170048 1.13E-6 0.00121482 0.01169947 -3.95E-6 -0.96916354 0.00219514 1.5E-7 -0.00654892 2.286E-5 7.7E-7 -7.6652E-4 0.00756853 -9.0E-7 -8.0533E-4 -0.00756619 4.29E-6 1.0095916 -4.9E-7 1.6702E-4 0.02411211 -2.844E-5 1.247E-5 -6.4994E-4 2.779E-5 1.282E-5 -6.4994E-4 -6.98E-6 -7.513E-5 1.0749E-4 4.11E-6 8.2E-7 8.446E-5 1.718E-5 6.544E-5 9.703E-5 7.15E-6 -7.501E-5 1.0738E-4 -4.19E-6 8.7E-7 8.445E-5 -1.7E-5 6.554E-5 9.714E-5 1.4E-7 -5.531E-5 -0.00827516 2.3E-7 -0.00234406 0.00131542 2.7E-7 0.00234454 0.00124903 7.9E-7 0.00219999 -0.03954828 -7.0E-8 2.179E-5 0.00250606 -7.0E-8 4.3604E-4 -5.5626E-4 -8.0E-8 -4.3497E-4 -5.1877E-4 -3.1E-7 -0.00234287 0.02043777</array><array dataType="xsd:double" size="51" dictRef="x:unknown">1.1E-7 -2.6E-7 -1.6E-6 -7.7E-7 5.0E-8 2.54E-6 5.5E-7 -9.0E-8 3.7E-7 1.42E-6 7.1E-7 3.0E-8 -2.7E-7 0.0 1.27E-6 -2.1E-7 -1.08E-6 -1.5E-6 1.8E-7 7.0E-7 2.4E-7 -2.9E-7 -3.7E-7 -2.2E-7 -3.6E-7 0.0 -6.6E-7 1.19E-6 -4.36E-6 8.0E-8 -4.5E-7 8.2E-7 1.7E-7 -1.3E-7 8.3E-7 -1.47E-6 -6.7E-7 -1.35E-6 2.8E-7 -9.2E-7 3.9E-6 -2.7E-7 -1.0E-7 -3.0E-8 -3.9E-7 5.3E-7 2.3E-7 1.13E-6 2.0E-7 3.0E-7 0.0</array></module> GOORD'S AXIOM:  A MEETING IS AN EVENT AT WHICH THE MINUTES ARE KEPT AND THE HOURS ARE LOST.<module cmlx:lineCount="3" cmlx:templateRef="jobcpu"><scalar dictRef="cc:jobtime" dataType="xsd:string">PT1906.600S</scalar><scalar dataType="xsd:date" dictRef="cc:jobdatetime.end">2010-03-12T11:20:39Z</scalar><scalar dataType="xsd:string" dictRef="cc:program">Gaussian 09</scalar></module></module>
