<?xml version="1.0" encoding="UTF-8"?>
<module cmlx:templateRef="gaussian.log" xmlns="http://www.xml-cml.org/schema" xmlns:cmlx="http://www.xml-cml.org/schema/cmlx"> Entering Gaussian System, Link 0=g03 Initial command: /apps/gaussian/g09/g09/l1.exe /home/scan-user-1/run/26234/Gau-20886.inp -scrdir=/home/scan-user-1/run/26234/ Entering Link 1 = /apps/gaussian/g09/g09/l1.exe PID=     20887.  <module cmlx:lineCount="48" cmlx:templateRef="l1.legal"><scalar dataType="xsd:string" dictRef="g:l1.legal">Copyright (c) 1988,1990,1992,1993,1995,1998,2003,2009, Gaussian, Inc.</scalar></module>  <module cmlx:lineCount="18" cmlx:templateRef="l1.citation"><list cmlx:templateRef="citation"><scalar dataType="xsd:string" dictRef="g:l1.citation">Cite this work as:</scalar></list></module> <module cmlx:lineCount="40" cmlx:templateRef="l1.end"><scalar dataType="xsd:string" dictRef="cc:run.date">15-Mar-2010</scalar><scalar dataType="xsd:string" dictRef="cc:program">Gaussian 09</scalar><scalar dataType="xsd:string" dictRef="cc:version">EM64L-G09RevA.02</scalar><scalar dataType="xsd:string" dictRef="cc:program.date">11-Jun-2009</scalar> Will use up to    4 processors via shared memory. %mem=7000MB %NoSave %Chk=chk.chk %rwf=/tmp/pbs.3646729.cx1/rwf<list cmlx:templateRef="control"><scalar dataType="xsd:string" dictRef="g:control">1/10=4,18=20,22=1,38=1,42=50,44=3,57=2/1,23</scalar><scalar dataType="xsd:string" dictRef="g:control">2/9=110,12=2,17=6,18=5,29=1,40=1/2</scalar><scalar dataType="xsd:string" dictRef="g:control">3/5=5,11=1,16=1,25=1,30=1,71=2,116=1/1,2,3</scalar><scalar dataType="xsd:string" dictRef="g:control">4//1</scalar><scalar dataType="xsd:string" dictRef="g:control">5/5=2,38=5/2</scalar><scalar dataType="xsd:string" dictRef="g:control">8/6=4,10=90,11=11/1</scalar><scalar dataType="xsd:string" dictRef="g:control">11/6=1,8=1,9=11,15=111,16=1/1,2,10</scalar><scalar dataType="xsd:string" dictRef="g:control">10/6=1,7=6,13=1/2</scalar><scalar dataType="xsd:string" dictRef="g:control">6/7=2,8=2,9=2,10=2,28=1/1</scalar><scalar dataType="xsd:string" dictRef="g:control">7/10=1,18=20,25=1/1,2,3,16</scalar><scalar dataType="xsd:string" dictRef="g:control">1/10=4,18=20,22=1,42=50,44=3/23(3)</scalar><scalar dataType="xsd:string" dictRef="g:control">2/9=110,29=1/2</scalar><scalar dataType="xsd:string" dictRef="g:control">7/9=1,25=1,44=-1/16</scalar><scalar dataType="xsd:string" dictRef="g:control">99//99</scalar><scalar dataType="xsd:string" dictRef="g:control">2/9=110,29=1/2</scalar><scalar dataType="xsd:string" dictRef="g:control">3/5=5,11=1,16=1,25=1,30=1,71=2,116=1/1,2,3</scalar><scalar dataType="xsd:string" dictRef="g:control">4/5=5,16=3/1</scalar><scalar dataType="xsd:string" dictRef="g:control">5/5=2,38=5/2</scalar><scalar dataType="xsd:string" dictRef="g:control">8/6=4,10=90,11=11/1</scalar><scalar dataType="xsd:string" dictRef="g:control">11/6=1,8=1,9=11,15=111,16=1/1,2,10</scalar><scalar dataType="xsd:string" dictRef="g:control">10/6=1,7=6,13=1/2</scalar><scalar dataType="xsd:string" dictRef="g:control">7/10=1,18=20,25=1/1,2,3,16</scalar><scalar dataType="xsd:string" dictRef="g:control">1/18=20,22=1,42=50,44=3/23(-8)</scalar><scalar dataType="xsd:string" dictRef="g:control">2/9=110,29=1/2</scalar><scalar dataType="xsd:string" dictRef="g:control">6/7=2,8=2,9=2,10=2,19=2,28=1/1</scalar><scalar dataType="xsd:string" dictRef="g:control">7/9=1,25=1,44=-1/16</scalar><scalar dataType="xsd:string" dictRef="g:control">99/9=1/99</scalar></list></module><module cmlx:lineCount="3" cmlx:templateRef="l101.title"><scalar dataType="xsd:string" dictRef="cc:title" cmlx:templateRef="title">Chair IRC</scalar></module><module cmlx:lineCount="62" cmlx:templateRef="l101"><list cmlx:templateRef="rest"><scalar dataType="xsd:string" dictRef="x:l101"/></list></module> IRC-IRC-IRC-IRC-IRC-IRC-IRC-IRC-IRC-IRC-IRC-IRC-IRC-IRC-IRC-IRC-IRC-IRC ------------------------------------------------------------------------ INPUT DATA FOR L123 ------------------------------------------------------------------------ GENERAL PARAMETERS: Rxn path following direction = Forward Maximum points per path      =  50 Step size                    =   0.100 bohr Integration scheme           = HPC                                     Redo corrector integration= Yes                                     Max correction cycles     =  20 Initial Hessian              = CalcFC Hessian eveluation           = All updating    Hessian updating method   = Bofill                               ------------------------------------------------------------------------ IRC-IRC-IRC-IRC-IRC-IRC-IRC-IRC-IRC-IRC-IRC-IRC-IRC-IRC-IRC-IRC-IRC-IRC<module cmlx:lineCount="22" cmlx:templateRef="l202.orient"><molecule id="mol.l202.orient" cmlx:templateRef="atom"><atomArray><atom id="a1" elementType="C" x3="0.0" y3="0.0" z3="0.0"><scalar dataType="xsd:integer" dictRef="cc:serial">1</scalar><scalar dataType="xsd:integer" dictRef="g:atomicType">0</scalar><scalar dataType="xsd:integer" dictRef="compchem:atomicNumber">6</scalar></atom><atom id="a2" elementType="C" x3="0.0" y3="0.0" z3="1.389402"><scalar dataType="xsd:integer" dictRef="cc:serial">2</scalar><scalar dataType="xsd:integer" dictRef="g:atomicType">0</scalar><scalar dataType="xsd:integer" dictRef="compchem:atomicNumber">6</scalar></atom><atom id="a3" elementType="H" x3="0.941031" y3="0.0" z3="-0.521748"><scalar dataType="xsd:integer" dictRef="cc:serial">3</scalar><scalar dataType="xsd:integer" dictRef="g:atomicType">0</scalar><scalar dataType="xsd:integer" dictRef="compchem:atomicNumber">1</scalar></atom><atom id="a4" elementType="H" x3="-0.783351" y3="-0.520976" z3="-0.518636"><scalar dataType="xsd:integer" dictRef="cc:serial">4</scalar><scalar dataType="xsd:integer" dictRef="g:atomicType">0</scalar><scalar dataType="xsd:integer" dictRef="compchem:atomicNumber">1</scalar></atom><atom id="a5" elementType="C" x3="-1.196264" y3="0.046444" z3="2.094459"><scalar dataType="xsd:integer" dictRef="cc:serial">5</scalar><scalar dataType="xsd:integer" dictRef="g:atomicType">0</scalar><scalar dataType="xsd:integer" dictRef="compchem:atomicNumber">6</scalar></atom><atom id="a6" elementType="H" x3="0.901268" y3="0.294768" z3="1.897629"><scalar dataType="xsd:integer" dictRef="cc:serial">6</scalar><scalar dataType="xsd:integer" dictRef="g:atomicType">0</scalar><scalar dataType="xsd:integer" dictRef="compchem:atomicNumber">1</scalar></atom><atom id="a7" elementType="H" x3="-1.167288" y3="0.082178" z3="3.169489"><scalar dataType="xsd:integer" dictRef="cc:serial">7</scalar><scalar dataType="xsd:integer" dictRef="g:atomicType">0</scalar><scalar dataType="xsd:integer" dictRef="compchem:atomicNumber">1</scalar></atom><atom id="a8" elementType="H" x3="-2.050932" y3="-0.471778" z3="1.700702"><scalar dataType="xsd:integer" dictRef="cc:serial">8</scalar><scalar dataType="xsd:integer" dictRef="g:atomicType">0</scalar><scalar dataType="xsd:integer" dictRef="compchem:atomicNumber">1</scalar></atom><atom id="a9" elementType="C" x3="-1.851126" y3="1.91124" z3="1.679097"><scalar dataType="xsd:integer" dictRef="cc:serial">9</scalar><scalar dataType="xsd:integer" dictRef="g:atomicType">0</scalar><scalar dataType="xsd:integer" dictRef="compchem:atomicNumber">6</scalar></atom><atom id="a10" elementType="C" x3="-1.850646" y3="1.911546" z3="0.289724"><scalar dataType="xsd:integer" dictRef="cc:serial">10</scalar><scalar dataType="xsd:integer" dictRef="g:atomicType">0</scalar><scalar dataType="xsd:integer" dictRef="compchem:atomicNumber">6</scalar></atom><atom id="a11" elementType="H" x3="-2.792345" y3="1.911154" z3="2.200567"><scalar dataType="xsd:integer" dictRef="cc:serial">11</scalar><scalar dataType="xsd:integer" dictRef="g:atomicType">0</scalar><scalar dataType="xsd:integer" dictRef="compchem:atomicNumber">1</scalar></atom><atom id="a12" elementType="H" x3="-1.067888" y3="2.431931" z3="2.198159"><scalar dataType="xsd:integer" dictRef="cc:serial">12</scalar><scalar dataType="xsd:integer" dictRef="g:atomicType">0</scalar><scalar dataType="xsd:integer" dictRef="compchem:atomicNumber">1</scalar></atom><atom id="a13" elementType="C" x3="-0.654116" y3="1.865056" z3="-0.414976"><scalar dataType="xsd:integer" dictRef="cc:serial">13</scalar><scalar dataType="xsd:integer" dictRef="g:atomicType">0</scalar><scalar dataType="xsd:integer" dictRef="compchem:atomicNumber">6</scalar></atom><atom id="a14" elementType="H" x3="-2.751793" y3="1.617088" z3="-0.218907"><scalar dataType="xsd:integer" dictRef="cc:serial">14</scalar><scalar dataType="xsd:integer" dictRef="g:atomicType">0</scalar><scalar dataType="xsd:integer" dictRef="compchem:atomicNumber">1</scalar></atom><atom id="a15" elementType="H" x3="-0.682806" y3="1.829873" z3="-1.490015"><scalar dataType="xsd:integer" dictRef="cc:serial">15</scalar><scalar dataType="xsd:integer" dictRef="g:atomicType">0</scalar><scalar dataType="xsd:integer" dictRef="compchem:atomicNumber">1</scalar></atom><atom id="a16" elementType="H" x3="0.200511" y3="2.382941" z3="-0.020723"><scalar dataType="xsd:integer" dictRef="cc:serial">16</scalar><scalar dataType="xsd:integer" dictRef="g:atomicType">0</scalar><scalar dataType="xsd:integer" dictRef="compchem:atomicNumber">1</scalar></atom></atomArray><formula formalCharge="0" concise="C 6 H 10"><atomArray elementType="C H" count="6.0 10.0"/></formula><bondArray><bond atomRefs2="a1 a2" id="a1_a2" order="S"/><bond atomRefs2="a1 a3" id="a1_a3" order="S"/><bond atomRefs2="a1 a4" id="a1_a4" order="S"/><bond atomRefs2="a2 a5" id="a2_a5" order="S"/><bond atomRefs2="a2 a6" id="a2_a6" order="S"/><bond atomRefs2="a5 a7" id="a5_a7" order="S"/><bond atomRefs2="a5 a8" id="a5_a8" order="S"/><bond atomRefs2="a9 a10" id="a9_a10" order="S"/><bond atomRefs2="a9 a11" id="a9_a11" order="S"/><bond atomRefs2="a9 a12" id="a9_a12" order="S"/><bond atomRefs2="a10 a13" id="a10_a13" order="S"/><bond atomRefs2="a10 a14" id="a10_a14" order="S"/><bond atomRefs2="a13 a15" id="a13_a15" order="S"/><bond atomRefs2="a13 a16" id="a13_a16" order="S"/></bondArray><property dictRef="cml:molmass"><scalar dataType="xsd:double" units="unit:dalton" xmlns:unit="http://www.xml-cml.org/unit/si/">82.14359999999999</scalar></property></molecule></module><module cmlx:lineCount="39" cmlx:templateRef="l202.distmat"><array dataType="xsd:double" size="135" dictRef="cc:distance">0.0 1.389402 0.0 1.075992 2.130266 0.0 1.074262 2.127361 1.801366 0.0 2.41246 1.389356 3.378568 2.705684 0.0 2.12136 1.075857 2.437591 3.056422 2.121332 0.0 3.378605 2.130264 4.251704 3.756789 1.076014 2.43757 0.0 2.705788 2.127394 3.756821 2.556295 1.07427 3.056446 1.801396 0.0 3.146247 2.676458 4.036421 3.447585 2.019613 3.199439 2.456496 2.391477 0.0 2.676348 2.878921 3.479361 2.776639 2.676544 3.573844 3.479455 2.776906 1.389372 0.0 4.036359 3.479611 5.00016 4.164778 2.456803 4.043174 2.631496 2.545177 1.076022 2.130286 0.0 3.447692 2.776466 4.165085 4.022635 2.391189 2.921534 2.544544 3.105699 1.074247 2.127353 1.801378 0.0 2.019531 2.676206 2.456486 2.391776 3.146195 3.198932 4.036135 3.447896 2.41249 1.389406 3.378641 2.70574 0.0 3.199259 3.574072 4.042726 2.921629 3.199727 4.42415 4.043245 2.922236 2.121354 1.075861 2.437617 3.056421 2.121362 0.0 2.456584 3.479325 2.631126 2.54562 4.036424 4.04252 5.000014 4.165339 3.378589 2.130257 4.251724 3.756779 1.075997 2.43756 0.0 2.391452 2.776161 2.545153 3.106226 3.447347 2.920891 4.164354 4.022652 2.705754 2.127402 3.756847 2.556301 1.074257 3.056453 1.801375</array></module> Symmetry turned off by external request.<module cmlx:lineCount="1" cmlx:templateRef="l202.stoich"/> Framework group  C1[X(C6H10)] Deg. of freedom    42 Full point group                 C1      NOp   1<module cmlx:lineCount="1" cmlx:templateRef="l202.rotconst"><array dataType="xsd:double" size="3" dictRef="cc:rotconst" cmlx:templateRef="rotconst">4.5904656 4.0353882 2.4720999</array></module><module cmlx:lineCount="8" cmlx:templateRef="l301.basis"> Raffenetti 1 integral format. Two-electron integral symmetry is turned off.    74 basis functions,   120 primitive gaussians,    74 cartesian basis functions    23 alpha electrons       23 beta electrons       nuclear repulsion energy       231.7718062296 Hartrees. NAtoms=   16 NActive=   16 NUniq=   16 SFac= 7.50D-01 NAtFMM=   80 NAOKFM=F Big=F</module><module cmlx:lineCount="1" cmlx:templateRef="l302.basis"><list cmlx:templateRef="onee"><scalar dataType="xsd:string" dictRef="g:onee">One-electron integrals</scalar></list></module> NBasis=    74 RedAO= T  NBF=    74 NBsUse=    74 1.00D-06 NBFU=    74 Harris functional with IExCor=  205 diagonalized for initial guess. ExpMin= 1.83D-01 ExpMax= 1.72D+02 ExpMxC= 1.72D+02 IAcc=1 IRadAn=         1 AccDes= 0.00D+00 HarFok:  IExCor=  205 AccDes= 0.00D+00 IRadAn=         1 IDoV= 1 ScaDFX=  1.000000  1.000000  1.000000  1.000000 FoFCou: FMM=F IPFlag=           0 FMFlag=      100000 FMFlg1=           0         NFxFlg=           0 DoJE=T BraDBF=F KetDBF=T FulRan=T         Omega=  0.000000  0.000000  1.000000  0.000000  0.000000 ICntrl=     500 IOpCl=  0         NMat0=    1 NMatS0=    1 NMatT0=    0 NMatD0=    1 NMtDS0=    0 NMtDT0=    0         I1Cent=           4 NGrid=           0. Symmetry not used in FoFCou. Requested convergence on RMS density matrix=1.00D-08 within 128 cycles. Requested convergence on MAX density matrix=1.00D-06. Requested convergence on             energy=1.00D-06. No special actions if energy rises. Keep R1 ints in memory in canonical form, NReq=4687208. SCF Done:  E(RHF) =  -231.619322288     A.U. after   11 cycles             Convg  =    0.3269D-08             -V/T =  2.0017<module cmlx:lineCount="1" cmlx:templateRef="l801"/> NBasis=    74 NAE=    23 NBE=    23 NFC=     0 NFV=     0 NROrb=     74 NOA=    23 NOB=    23 NVA=    51 NVB=    51 Symmetrizing basis deriv contribution to polar: IMax=3 JMax=2 DiffMx= 0.00D+00 G2DrvN: will do    17 centers at a time, making    1 passes doing MaxLOS=1. Calling FoFCou, ICntrl=  3107 FMM=F I1Cent=   0 AccDes= 0.00D+00. FoFDir/FoFCou used for L=0 through L=1. End of G2Drv Frequency-dependent properties file   721 does not exist. End of G2Drv Frequency-dependent properties file   722 does not exist.          IDoAtm=1111111111111111          Differentiating once with respect to nuclear coordinates.          Keep R1 ints in memory in canonical form, NReq=4652799.          There are    51 degrees of freedom in the 1st order CPHF.  IDoFFX=5.     45 vectors produced by pass  0 Test12= 2.30D-11 1.96D-07 XBig12= 6.43D-02 1.08D-01. AX will form    45 AO Fock derivatives at one time.     45 vectors produced by pass  1 Test12= 2.30D-11 1.96D-07 XBig12= 3.19D-03 1.59D-02.     45 vectors produced by pass  2 Test12= 2.30D-11 1.96D-07 XBig12= 4.12D-05 1.31D-03.     45 vectors produced by pass  3 Test12= 2.30D-11 1.96D-07 XBig12= 2.12D-07 7.47D-05.     44 vectors produced by pass  4 Test12= 2.30D-11 1.96D-07 XBig12= 1.31D-09 5.37D-06.      4 vectors produced by pass  5 Test12= 2.30D-11 1.96D-07 XBig12= 6.32D-12 3.65D-07. Inverted reduced A of dimension   228 with in-core refinement. End of Minotr Frequency-dependent properties file   721 does not exist. End of Minotr Frequency-dependent properties file   722 does not exist.<module cmlx:lineCount="160" cmlx:templateRef="l601.popanal"><array dataType="xsd:double" size="23" dictRef="g:alphaocc">-11.17063 -11.17001 -11.16993 -11.16972 -11.15037 -11.15036 -1.10057 -1.03218 -0.95531 -0.87198 -0.76466 -0.74765 -0.6547 -0.63078 -0.60684 -0.57218 -0.52886 -0.50795 -0.50756 -0.50294 -0.47899 -0.3373 -0.28094</array><array dataType="xsd:double" size="51" dictRef="g:alphavirt">0.14397 0.20703 0.28003 0.28799 0.30968 0.32786 0.33095 0.34123 0.37755 0.3802 0.38452 0.38824 0.41865 0.5302 0.53981 0.57302 0.57348 0.87999 0.88844 0.89378 0.93607 0.97949 0.98262 1.0695 1.0713 1.07489 1.09162 1.12131 1.14712 1.20025 1.26123 1.28938 1.29572 1.3154 1.33175 1.3429 1.38374 1.4063 1.4196 1.43378 1.4597 1.48846 1.61267 1.62715 1.67682 1.77729 1.95894 2.00061 2.28248 2.30844 2.75432</array><module cmlx:lineCount="16" cmlx:templateRef="l601.alphabetaeigen"/><module cmlx:lineCount="51" cmlx:templateRef="l601.condensed"><array dataType="xsd:double" size="16" dictRef="x:floatArr">5.373495 0.438393 0.387621 0.397068 -0.112853 -0.042384 0.003385 5.54E-4 -0.018439 -0.055904 1.87E-4 4.61E-4 0.09334 2.17E-4 -0.010565 -0.021075</array><array dataType="xsd:double" size="16" dictRef="x:floatArr">0.438393 5.303874 -0.044457 -0.049707 0.438485 0.407688 -0.044462 -0.049701 -0.055898 -0.052708 0.001087 -0.006408 -0.055934 1.0E-5 0.001087 -0.00641</array><array dataType="xsd:double" size="16" dictRef="x:floatArr">0.387621 -0.044457 0.471759 -0.024086 0.003385 -0.002378 -6.2E-5 -4.2E-5 1.87E-4 0.001087 0.0 -1.1E-5 -0.010575 -1.6E-5 -2.93E-4 -5.65E-4</array><array dataType="xsd:double" size="16" dictRef="x:floatArr">0.397068 -0.049707 -0.024086 0.474423 5.54E-4 0.002274 -4.2E-5 0.001854 4.61E-4 -0.006401 -1.1E-5 -5.0E-6 -0.021051 3.98E-4 -5.64E-4 9.62E-4</array><array dataType="xsd:double" size="16" dictRef="x:floatArr">-0.112853 0.438485 0.003385 5.54E-4 5.37351 -0.042385 0.387625 0.397075 0.0932 -0.055878 -0.010553 -0.021085 -0.018442 2.18E-4 1.87E-4 4.61E-4</array><array dataType="xsd:double" size="16" dictRef="x:floatArr">-0.042384 0.407688 -0.002378 0.002274 -0.042385 0.468761 -0.002378 0.002274 2.18E-4 1.0E-5 -1.6E-5 3.99E-4 2.17E-4 4.0E-6 -1.6E-5 3.99E-4</array><array dataType="xsd:double" size="16" dictRef="x:floatArr">0.003385 -0.044462 -6.2E-5 -4.2E-5 0.387625 -0.002378 0.471774 -0.024088 -0.010568 0.001087 -2.93E-4 -5.67E-4 1.87E-4 -1.6E-5 0.0 -1.1E-5</array><array dataType="xsd:double" size="16" dictRef="x:floatArr">5.54E-4 -0.049701 -4.2E-5 0.001854 0.397075 0.002274 -0.024088 0.474411 -0.021063 -0.006401 -5.66E-4 9.63E-4 4.61E-4 3.98E-4 -1.1E-5 -5.0E-6</array><array dataType="xsd:double" size="16" dictRef="x:floatArr">-0.018439 -0.055898 1.87E-4 4.61E-4 0.0932 2.18E-4 -0.010568 -0.021063 5.373514 0.438472 0.387628 0.39708 -0.112834 -0.042382 0.003385 5.56E-4</array><array dataType="xsd:double" size="16" dictRef="x:floatArr">-0.055904 -0.052708 0.001087 -0.006401 -0.055878 1.0E-5 0.001087 -0.006401 0.438472 5.303805 -0.044456 -0.049709 0.4384 0.407686 -0.044459 -0.049702</array><array dataType="xsd:double" size="16" dictRef="x:floatArr">1.87E-4 0.001087 0.0 -1.1E-5 -0.010553 -1.6E-5 -2.93E-4 -5.66E-4 0.387628 -0.044456 0.471765 -0.02409 0.003384 -0.002378 -6.2E-5 -4.2E-5</array><array dataType="xsd:double" size="16" dictRef="x:floatArr">4.61E-4 -0.006408 -1.1E-5 -5.0E-6 -0.021085 3.99E-4 -5.67E-4 9.63E-4 0.39708 -0.049709 -0.02409 0.474435 5.55E-4 0.002274 -4.2E-5 0.001854</array><array dataType="xsd:double" size="16" dictRef="x:floatArr">0.09334 -0.055934 -0.010575 -0.021051 -0.018442 2.17E-4 1.87E-4 4.61E-4 -0.112834 0.4384 0.003384 5.55E-4 5.373492 -0.042384 0.387623 0.397074</array><array dataType="xsd:double" size="16" dictRef="x:floatArr">2.17E-4 1.0E-5 -1.6E-5 3.98E-4 2.18E-4 4.0E-6 -1.6E-5 3.98E-4 -0.042382 0.407686 -0.002378 0.002274 -0.042384 0.468757 -0.002378 0.002274</array><array dataType="xsd:double" size="16" dictRef="x:floatArr">-0.010565 0.001087 -2.93E-4 -5.64E-4 1.87E-4 -1.6E-5 0.0 -1.1E-5 0.003385 -0.044459 -6.2E-5 -4.2E-5 0.387623 -0.002378 0.471752 -0.024086</array><array dataType="xsd:double" size="12" dictRef="x:floatArr">-0.021075 -0.00641 -5.65E-4 9.62E-4 4.61E-4 3.99E-4 -1.1E-5 -5.0E-6 5.56E-4 -0.049702 -4.2E-5 0.001854</array></module>    16  H    0.397074   0.002274  -0.024086   0.474432<module cmlx:lineCount="68" cmlx:templateRef="mulliken"><module cmlx:lineCount="19" cmlx:templateRef="l601.mullik"><scalar dataType="xsd:string" dictRef="g:title">Mulliken atomic charges:</scalar><scalar dataType="xsd:integer" dictRef="cc:serial">1</scalar> Sum of Mulliken atomic charges =   0.00000</module> Mulliken charges with hydrogens summed into heavy atoms:              1     1  C    0.008819     2  C   -0.017624     5  C    0.008810     9  C    0.008796    10  C   -0.017612    13  C    0.008811 Sum of Mulliken charges with hydrogens summed into heavy atoms =   0.00000<module cmlx:lineCount="19" cmlx:templateRef="l601.mullik"><scalar dataType="xsd:string" dictRef="g:title">APT atomic charges:</scalar><scalar dataType="xsd:integer" dictRef="cc:serial">1</scalar><list cmlx:lineCount="16" cmlx:templateRef="row"><array dataType="xsd:integer" dictRef="cc:serial" size="16">1 2 3 4 5 6 7 8 9 10 11 12 13 14 15 16</array><array dataType="xsd:string" dictRef="cc:elementType" size="16">C C H H C H H H C C H H C H H H</array><array dataType="xsd:double" dictRef="x:charge" size="16">-0.587108 -0.306176 0.36935 0.378945 -1.03397 0.451206 0.652836 0.397897 -1.373635 -0.441272 0.694642 0.424015 -0.92671 0.483732 0.41111 0.405136</array></list><scalar dataType="xsd:string" dictRef="x:type">APT</scalar><scalar dataType="xsd:double" dictRef="x:charge.sum">0.0</scalar></module><module cmlx:lineCount="19" cmlx:templateRef="l601.mullik"><scalar dataType="xsd:string" dictRef="g:title">APT Atomic charges with hydrogens summed into heavy atoms:</scalar><scalar dataType="xsd:integer" dictRef="cc:serial">1</scalar><list cmlx:lineCount="16" cmlx:templateRef="row"><array dataType="xsd:integer" dictRef="cc:serial" size="16">1 2 3 4 5 6 7 8 9 10 11 12 13 14 15 16</array><array dataType="xsd:string" dictRef="cc:elementType" size="16">C C H H C H H H C C H H C H H H</array><array dataType="xsd:double" dictRef="x:charge" size="16">0.161187 0.145031 0.0 0.0 0.016763 0.0 0.0 0.0 -0.254978 0.04246 0.0 0.0 -0.110463 0.0 0.0 0.0</array></list><scalar dataType="xsd:string" dictRef="x:type">APT</scalar><scalar dataType="xsd:double" dictRef="x:charge.sum">0.0</scalar></module><scalar dataType="xsd:double" dictRef="g:electextent2">976.3194</scalar> Charge=              0.0000 electrons</module><module cmlx:lineCount="18" cmlx:templateRef="multipole"><array dataType="xsd:double" size="3" dictRef="cc:dipole">2.0E-4 -1.0E-4 -3.0E-4</array><scalar dataType="xsd:double" dictRef="x:dipole">3.0E-4</scalar><array dataType="xsd:double" size="3" dictRef="cc:quadrupole">-37.1241 -43.5788 -36.1949</array><array dataType="xsd:double" size="3" dictRef="cc:quadrupole">2.5916 -0.9045 1.6564</array><array dataType="xsd:double" size="6" dictRef="cc:quadrupole">1.8418 -4.6129 2.771 2.5916 -0.9045 1.6564</array><array dataType="xsd:double" size="10" dictRef="cc:octapole">103.0579 -124.9505 -91.1705 45.2786 -40.2751 -29.4964 31.974 -31.8076 -33.4264 -0.2201</array><array dataType="xsd:double" size="15" dictRef="cc:hexadecapole">-398.618 -533.0684 -430.8309 161.2935 111.1209 194.1902 -59.6549 110.0608 -53.7129 -166.3401 -135.6679 -154.6333 -18.0666 41.2947 48.5817</array></module></module><module cmlx:lineCount="2" cmlx:templateRef="l601.polariz"><list cmlx:templateRef="l601.pol"><scalar dataType="xsd:double" dictRef="g:l601.pol.exact">0.0</scalar><scalar dataType="xsd:double" dictRef="g:l601.pol">0.0</scalar><scalar dataType="xsd:double" dictRef="g:l601.pol">0.0</scalar><scalar dataType="xsd:double" dictRef="g:l601.pol">0.0</scalar><scalar dataType="xsd:double" dictRef="g:l601.pol">0.0</scalar><scalar dataType="xsd:double" dictRef="g:l601.pol">0.0</scalar></list><list cmlx:templateRef="l601.pol"><scalar dataType="xsd:double" dictRef="g:l601.pol.approx">61.799</scalar><scalar dataType="xsd:double" dictRef="g:l601.pol">-9.438</scalar><scalar dataType="xsd:double" dictRef="g:l601.pol">50.145</scalar><scalar dataType="xsd:double" dictRef="g:l601.pol">-4.004</scalar><scalar dataType="xsd:double" dictRef="g:l601.pol">-4.971</scalar><scalar dataType="xsd:double" dictRef="g:l601.pol">66.993</scalar></list></module> Calling FoFJK, ICntrl=    100147 FMM=F ISym2X=0 I1Cent= 0 IOpClX= 0 NMat=1 NMatS=1 NMatT=0. ------------------------------------------------------------------- Center     Atomic                   Forces (Hartrees/Bohr) Number     Number              X              Y              Z -------------------------------------------------------------------      1        6          -0.000024348   -0.000056669    0.000053293      2        6          -0.000042461    0.000008157   -0.000014968      3        1           0.000013247    0.000007937    0.000009896      4        1           0.000001759    0.000004241    0.000010110      5        6           0.000006109   -0.000099031   -0.000031849      6        1          -0.000004031   -0.000002037   -0.000002502      7        1           0.000016288    0.000001039   -0.000011180      8        1           0.000026682   -0.000009183   -0.000001824      9        6           0.000028032    0.000103928   -0.000052656     10        6           0.000032245   -0.000024078    0.000035397     11        1           0.000008877   -0.000021174   -0.000019927     12        1          -0.000008448    0.000029583   -0.000015526     13        6          -0.000029202    0.000045710    0.000041044     14        1           0.000007229    0.000004035    0.000004063     15        1          -0.000012331   -0.000008820   -0.000002844     16        1          -0.000019647    0.000016362   -0.000000528 ------------------------------------------------------------------- Cartesian Forces:  Max     0.000103928 RMS     0.000031031 IRC-IRC-IRC-IRC-IRC-IRC-IRC-IRC-IRC-IRC-IRC-IRC-IRC-IRC-IRC-IRC-IRC-IRC          ******** Start new reaction path calculation ******** Supplied step size of   0.1000 bohr.    Integration on MW PES will use step size of   0.3144 sqrt(amu)*bohr. Point Number:   0          Path Number:   1 Calculating another point on the path. IRC-IRC-IRC-IRC-IRC-IRC-IRC-IRC-IRC-IRC-IRC-IRC-IRC-IRC-IRC-IRC-IRC-IRC<module cmlx:lineCount="22" cmlx:templateRef="l202.orient"><molecule id="a16" cmlx:templateRef="atom"><atomArray><atom id="a1" elementType="C" x3="0.917533" y3="-0.935713" z3="-0.848554"><scalar dataType="xsd:integer" dictRef="cc:serial">1</scalar><scalar dataType="xsd:integer" dictRef="g:atomicType">0</scalar><scalar dataType="xsd:integer" dictRef="compchem:atomicNumber">6</scalar></atom><atom id="a2" elementType="C" x3="0.921917" y3="-0.955581" z3="0.55581"><scalar dataType="xsd:integer" dictRef="cc:serial">2</scalar><scalar dataType="xsd:integer" dictRef="g:atomicType">0</scalar><scalar dataType="xsd:integer" dictRef="compchem:atomicNumber">6</scalar></atom><atom id="a3" elementType="H" x3="1.864373" y3="-0.957099" z3="-1.361203"><scalar dataType="xsd:integer" dictRef="cc:serial">3</scalar><scalar dataType="xsd:integer" dictRef="g:atomicType">0</scalar><scalar dataType="xsd:integer" dictRef="compchem:atomicNumber">1</scalar></atom><atom id="a4" elementType="H" x3="0.146697" y3="-1.486806" z3="-1.358109"><scalar dataType="xsd:integer" dictRef="cc:serial">4</scalar><scalar dataType="xsd:integer" dictRef="g:atomicType">0</scalar><scalar dataType="xsd:integer" dictRef="compchem:atomicNumber">1</scalar></atom><atom id="a5" elementType="C" x3="-0.259614" y3="-0.929402" z3="1.257718"><scalar dataType="xsd:integer" dictRef="cc:serial">5</scalar><scalar dataType="xsd:integer" dictRef="g:atomicType">0</scalar><scalar dataType="xsd:integer" dictRef="compchem:atomicNumber">6</scalar></atom><atom id="a6" elementType="H" x3="1.8252" y3="-0.66089" z3="1.060509"><scalar dataType="xsd:integer" dictRef="cc:serial">6</scalar><scalar dataType="xsd:integer" dictRef="g:atomicType">0</scalar><scalar dataType="xsd:integer" dictRef="compchem:atomicNumber">1</scalar></atom><atom id="a7" elementType="H" x3="-0.241015" y3="-0.872122" z3="2.331643"><scalar dataType="xsd:integer" dictRef="cc:serial">7</scalar><scalar dataType="xsd:integer" dictRef="g:atomicType">0</scalar><scalar dataType="xsd:integer" dictRef="compchem:atomicNumber">1</scalar></atom><atom id="a8" elementType="H" x3="-1.127895" y3="-1.417442" z3="0.856773"><scalar dataType="xsd:integer" dictRef="cc:serial">8</scalar><scalar dataType="xsd:integer" dictRef="g:atomicType">0</scalar><scalar dataType="xsd:integer" dictRef="compchem:atomicNumber">1</scalar></atom><atom id="a9" elementType="C" x3="-0.933601" y3="0.975524" z3="0.830544"><scalar dataType="xsd:integer" dictRef="cc:serial">9</scalar><scalar dataType="xsd:integer" dictRef="g:atomicType">0</scalar><scalar dataType="xsd:integer" dictRef="compchem:atomicNumber">6</scalar></atom><atom id="a10" elementType="C" x3="-0.928734" y3="0.955964" z3="-0.54387"><scalar dataType="xsd:integer" dictRef="cc:serial">10</scalar><scalar dataType="xsd:integer" dictRef="g:atomicType">0</scalar><scalar dataType="xsd:integer" dictRef="compchem:atomicNumber">6</scalar></atom><atom id="a11" elementType="H" x3="-1.869018" y3="0.954079" z3="1.361102"><scalar dataType="xsd:integer" dictRef="cc:serial">11</scalar><scalar dataType="xsd:integer" dictRef="g:atomicType">0</scalar><scalar dataType="xsd:integer" dictRef="compchem:atomicNumber">1</scalar></atom><atom id="a12" elementType="H" x3="-0.137839" y3="1.466063" z3="1.358691"><scalar dataType="xsd:integer" dictRef="cc:serial">12</scalar><scalar dataType="xsd:integer" dictRef="g:atomicType">0</scalar><scalar dataType="xsd:integer" dictRef="compchem:atomicNumber">1</scalar></atom><atom id="a13" elementType="C" x3="0.282527" y3="0.889204" z3="-1.251722"><scalar dataType="xsd:integer" dictRef="cc:serial">13</scalar><scalar dataType="xsd:integer" dictRef="g:atomicType">0</scalar><scalar dataType="xsd:integer" dictRef="compchem:atomicNumber">6</scalar></atom><atom id="a14" elementType="H" x3="-1.827864" y3="0.661432" z3="-1.056031"><scalar dataType="xsd:integer" dictRef="cc:serial">14</scalar><scalar dataType="xsd:integer" dictRef="g:atomicType">0</scalar><scalar dataType="xsd:integer" dictRef="compchem:atomicNumber">1</scalar></atom><atom id="a15" elementType="H" x3="0.243465" y3="0.875583" z3="-2.327859"><scalar dataType="xsd:integer" dictRef="cc:serial">15</scalar><scalar dataType="xsd:integer" dictRef="g:atomicType">0</scalar><scalar dataType="xsd:integer" dictRef="compchem:atomicNumber">1</scalar></atom><atom id="a16" elementType="H" x3="1.123556" y3="1.43726" z3="-0.864641"><scalar dataType="xsd:integer" dictRef="cc:serial">16</scalar><scalar dataType="xsd:integer" dictRef="g:atomicType">0</scalar><scalar dataType="xsd:integer" dictRef="compchem:atomicNumber">1</scalar></atom></atomArray><formula formalCharge="0" concise="C 6 H 10"><atomArray elementType="C H" count="6.0 10.0"/></formula><bondArray><bond atomRefs2="a1 a2" id="a1_a2" order="S"/><bond atomRefs2="a1 a3" id="a1_a3" order="S"/><bond atomRefs2="a1 a4" id="a1_a4" order="S"/><bond atomRefs2="a2 a5" id="a2_a5" order="S"/><bond atomRefs2="a2 a6" id="a2_a6" order="S"/><bond atomRefs2="a5 a7" id="a5_a7" order="S"/><bond atomRefs2="a5 a8" id="a5_a8" order="S"/><bond atomRefs2="a9 a10" id="a9_a10" order="S"/><bond atomRefs2="a9 a11" id="a9_a11" order="S"/><bond atomRefs2="a9 a12" id="a9_a12" order="S"/><bond atomRefs2="a10 a13" id="a10_a13" order="S"/><bond atomRefs2="a10 a14" id="a10_a14" order="S"/><bond atomRefs2="a13 a15" id="a13_a15" order="S"/><bond atomRefs2="a13 a16" id="a13_a16" order="S"/></bondArray><property dictRef="cml:molmass"><scalar dataType="xsd:double" units="unit:dalton" xmlns:unit="http://www.xml-cml.org/unit/si/">82.14359999999999</scalar></property></molecule></module><module cmlx:lineCount="39" cmlx:templateRef="l202.distmat"><array dataType="xsd:double" size="135" dictRef="cc:distance">0.0 1.404511 0.0 1.076927 2.136156 0.0 1.075889 2.132194 1.7975 0.0 2.412902 1.374546 3.372067 2.705243 0.0 2.131644 1.075864 2.440074 3.05765 2.111265 0.0 3.385251 2.124373 4.251704 3.760642 1.075612 2.435086 0.0 2.706285 2.122646 3.752998 2.556384 1.07371 3.055266 1.805318 0.0 3.14625 2.692135 4.045669 3.467032 2.065304 3.215854 2.479268 2.400984 0.0 2.660822 2.878925 3.482712 2.790459 2.69222 3.57385 3.476123 2.763064 1.374561 0.0 4.027252 3.476293 5.000175 4.173144 2.479591 4.042985 2.631987 2.535296 1.075619 2.124395 0.0 3.42845 2.762618 4.156728 4.022611 2.400683 2.909702 2.534639 3.08978 1.073687 2.122605 1.805301 0.0 1.973854 2.660681 2.433733 2.382266 3.146194 3.182616 4.027017 3.428652 2.412933 1.404516 3.385292 2.706239 0.0 3.182943 3.574082 4.042942 2.93344 3.216147 4.424156 4.043045 2.910411 2.111285 1.075869 2.435132 3.055241 2.131648 0.0 2.433825 3.482672 2.630683 2.555516 4.045667 4.042731 5.000015 4.156979 3.372088 2.136147 4.251726 3.75296 1.076932 2.440043 0.0 2.381954 2.789987 2.555061 3.122167 3.466794 2.932703 4.172713 4.022639 2.705318 2.132237 3.760704 2.556394 1.075884 3.057682 1.797511</array></module> Symmetry turned off by external request.<module cmlx:lineCount="1" cmlx:templateRef="l202.stoich"/> Framework group  C1[X(C6H10)] Deg. of freedom    42 Full point group                 C1      NOp   1<module cmlx:lineCount="1" cmlx:templateRef="l202.rotconst"><array dataType="xsd:double" size="3" dictRef="cc:rotconst" cmlx:templateRef="rotconst">4.5903758 4.0345496 2.4717664</array></module><module cmlx:lineCount="8" cmlx:templateRef="l301.basis"> Raffenetti 1 integral format. Two-electron integral symmetry is turned off.    74 basis functions,   120 primitive gaussians,    74 cartesian basis functions    23 alpha electrons       23 beta electrons       nuclear repulsion energy       231.7706530680 Hartrees. NAtoms=   16 NActive=   16 NUniq=   16 SFac= 7.50D-01 NAtFMM=   80 NAOKFM=F Big=F</module><module cmlx:lineCount="1" cmlx:templateRef="l302.basis"><list cmlx:templateRef="onee"><scalar dataType="xsd:string" dictRef="g:onee">One-electron integrals</scalar></list></module> NBasis=    74 RedAO= T  NBF=    74 NBsUse=    74 1.00D-06 NBFU=    74 Initial guess read from the read-write file. B after Tr=     0.000000    0.000000    0.000000         Rot=    1.000000    0.000000    0.000000    0.000000 Ang=   0.00 deg. Harris functional with IExCor=  205 diagonalized for initial guess. ExpMin= 1.83D-01 ExpMax= 1.72D+02 ExpMxC= 1.72D+02 IAcc=1 IRadAn=         1 AccDes= 0.00D+00 HarFok:  IExCor=  205 AccDes= 0.00D+00 IRadAn=         1 IDoV= 1 ScaDFX=  1.000000  1.000000  1.000000  1.000000 FoFCou: FMM=F IPFlag=           0 FMFlag=      100000 FMFlg1=           0         NFxFlg=           0 DoJE=T BraDBF=F KetDBF=T FulRan=T         Omega=  0.000000  0.000000  1.000000  0.000000  0.000000 ICntrl=     500 IOpCl=  0         NMat0=    1 NMatS0=    1 NMatT0=    0 NMatD0=    1 NMtDS0=    0 NMtDT0=    0         I1Cent=           4 NGrid=           0. Symmetry not used in FoFCou. Requested convergence on RMS density matrix=1.00D-08 within 128 cycles. Requested convergence on MAX density matrix=1.00D-06. Requested convergence on             energy=1.00D-06. No special actions if energy rises. Keep R1 ints in memory in canonical form, NReq=4687208. SCF Done:  E(RHF) =  -231.620551010     A.U. after   10 cycles             Convg  =    0.7784D-08             -V/T =  2.0017<module cmlx:lineCount="1" cmlx:templateRef="l801"/> NBasis=    74 NAE=    23 NBE=    23 NFC=     0 NFV=     0 NROrb=     74 NOA=    23 NOB=    23 NVA=    51 NVB=    51 Symmetrizing basis deriv contribution to polar: IMax=3 JMax=2 DiffMx= 0.00D+00 Calling FoFJK, ICntrl=      2147 FMM=F ISym2X=0 I1Cent= 0 IOpClX= 0 NMat=1 NMatS=1 NMatT=0. ------------------------------------------------------------------- Center     Atomic                   Forces (Hartrees/Bohr) Number     Number              X              Y              Z -------------------------------------------------------------------      1        6          -0.004356405    0.010922407   -0.005361460      2        6          -0.001528080    0.000241753    0.003227095      3        1          -0.000201471   -0.000085519    0.000113344      4        1           0.000417537   -0.000160961    0.000173922      5        6           0.005595949   -0.011440474    0.002000282      6        1          -0.000054339   -0.000048174    0.000123547      7        1           0.000099357   -0.000040821   -0.000067094      8        1           0.000197142    0.000682068   -0.000103997      9        6          -0.004344787    0.011399297   -0.004212233     10        6          -0.002009515   -0.000121305    0.002967432     11        1           0.000015114    0.000017714   -0.000121530     12        1          -0.000020839   -0.000668451   -0.000191078     13        6           0.006624328   -0.011024454    0.001391756     14        1          -0.000074866    0.000055561    0.000109662     15        1           0.000009703    0.000091934    0.000231293     16        1          -0.000368827    0.000179424   -0.000280941 ------------------------------------------------------------------- Cartesian Forces:  Max     0.011440474 RMS     0.003803731 IRC-IRC-IRC-IRC-IRC-IRC-IRC-IRC-IRC-IRC-IRC-IRC-IRC-IRC-IRC-IRC-IRC-IRC Pt  1 Step number   1 out of a maximum of  20 CORRECTOR INTEGRATION CONVERGENCE:   Recorrection delta-x convergence threshold:    0.010000   Delta-x Convergence Met Point Number:   1          Path Number:   1   CHANGE IN THE REACTION COORDINATE =    0.31432   NET REACTION COORDINATE UP TO THIS POINT =    0.31432  # OF POINTS ALONG THE PATH =   1  # OF STEPS =   1 Calculating another point on the path. IRC-IRC-IRC-IRC-IRC-IRC-IRC-IRC-IRC-IRC-IRC-IRC-IRC-IRC-IRC-IRC-IRC-IRC<module cmlx:lineCount="22" cmlx:templateRef="l202.orient"><molecule id="a16" cmlx:templateRef="atom"><atomArray><atom id="a1" elementType="C" x3="0.909903" y3="-0.915674" z3="-0.857669"><scalar dataType="xsd:integer" dictRef="cc:serial">1</scalar><scalar dataType="xsd:integer" dictRef="g:atomicType">0</scalar><scalar dataType="xsd:integer" dictRef="compchem:atomicNumber">6</scalar></atom><atom id="a2" elementType="C" x3="0.918809" y3="-0.955232" z3="0.561703"><scalar dataType="xsd:integer" dictRef="cc:serial">2</scalar><scalar dataType="xsd:integer" dictRef="g:atomicType">0</scalar><scalar dataType="xsd:integer" dictRef="compchem:atomicNumber">6</scalar></atom><atom id="a3" elementType="H" x3="1.862306" y3="-0.95896" z3="-1.360832"><scalar dataType="xsd:integer" dictRef="cc:serial">3</scalar><scalar dataType="xsd:integer" dictRef="g:atomicType">0</scalar><scalar dataType="xsd:integer" dictRef="compchem:atomicNumber">1</scalar></atom><atom id="a4" elementType="H" x3="0.151122" y3="-1.494534" z3="-1.357798"><scalar dataType="xsd:integer" dictRef="cc:serial">4</scalar><scalar dataType="xsd:integer" dictRef="g:atomicType">0</scalar><scalar dataType="xsd:integer" dictRef="compchem:atomicNumber">1</scalar></atom><atom id="a5" elementType="C" x3="-0.248648" y3="-0.949726" z3="1.261073"><scalar dataType="xsd:integer" dictRef="cc:serial">5</scalar><scalar dataType="xsd:integer" dictRef="g:atomicType">0</scalar><scalar dataType="xsd:integer" dictRef="compchem:atomicNumber">6</scalar></atom><atom id="a6" elementType="H" x3="1.824333" y3="-0.662015" z3="1.063192"><scalar dataType="xsd:integer" dictRef="cc:serial">6</scalar><scalar dataType="xsd:integer" dictRef="g:atomicType">0</scalar><scalar dataType="xsd:integer" dictRef="compchem:atomicNumber">1</scalar></atom><atom id="a7" elementType="H" x3="-0.239512" y3="-0.872819" z3="2.33353"><scalar dataType="xsd:integer" dictRef="cc:serial">7</scalar><scalar dataType="xsd:integer" dictRef="g:atomicType">0</scalar><scalar dataType="xsd:integer" dictRef="compchem:atomicNumber">1</scalar></atom><atom id="a8" elementType="H" x3="-1.129694" y3="-1.406531" z3="0.852349"><scalar dataType="xsd:integer" dictRef="cc:serial">8</scalar><scalar dataType="xsd:integer" dictRef="g:atomicType">0</scalar><scalar dataType="xsd:integer" dictRef="compchem:atomicNumber">1</scalar></atom><atom id="a9" elementType="C" x3="-0.941652" y3="0.995759" z3="0.822112"><scalar dataType="xsd:integer" dictRef="cc:serial">9</scalar><scalar dataType="xsd:integer" dictRef="g:atomicType">0</scalar><scalar dataType="xsd:integer" dictRef="compchem:atomicNumber">6</scalar></atom><atom id="a10" elementType="C" x3="-0.932235" y3="0.955836" z3="-0.538195"><scalar dataType="xsd:integer" dictRef="cc:serial">10</scalar><scalar dataType="xsd:integer" dictRef="g:atomicType">0</scalar><scalar dataType="xsd:integer" dictRef="compchem:atomicNumber">6</scalar></atom><atom id="a11" elementType="H" x3="-1.871369" y3="0.954577" z3="1.36073"><scalar dataType="xsd:integer" dictRef="cc:serial">11</scalar><scalar dataType="xsd:integer" dictRef="g:atomicType">0</scalar><scalar dataType="xsd:integer" dictRef="compchem:atomicNumber">1</scalar></atom><atom id="a12" elementType="H" x3="-0.133425" y3="1.455245" z3="1.358378"><scalar dataType="xsd:integer" dictRef="cc:serial">12</scalar><scalar dataType="xsd:integer" dictRef="g:atomicType">0</scalar><scalar dataType="xsd:integer" dictRef="compchem:atomicNumber">1</scalar></atom><atom id="a13" elementType="C" x3="0.293872" y3="0.869028" z3="-1.249112"><scalar dataType="xsd:integer" dictRef="cc:serial">13</scalar><scalar dataType="xsd:integer" dictRef="g:atomicType">0</scalar><scalar dataType="xsd:integer" dictRef="compchem:atomicNumber">6</scalar></atom><atom id="a14" elementType="H" x3="-1.829695" y3="0.662552" z3="-1.053938"><scalar dataType="xsd:integer" dictRef="cc:serial">14</scalar><scalar dataType="xsd:integer" dictRef="g:atomicType">0</scalar><scalar dataType="xsd:integer" dictRef="compchem:atomicNumber">1</scalar></atom><atom id="a15" elementType="H" x3="0.244255" y3="0.877442" z3="-2.325951"><scalar dataType="xsd:integer" dictRef="cc:serial">15</scalar><scalar dataType="xsd:integer" dictRef="g:atomicType">0</scalar><scalar dataType="xsd:integer" dictRef="compchem:atomicNumber">1</scalar></atom><atom id="a16" elementType="H" x3="1.121083" y3="1.445157" z3="-0.868603"><scalar dataType="xsd:integer" dictRef="cc:serial">16</scalar><scalar dataType="xsd:integer" dictRef="g:atomicType">0</scalar><scalar dataType="xsd:integer" dictRef="compchem:atomicNumber">1</scalar></atom></atomArray><formula formalCharge="0" concise="C 6 H 10"><atomArray elementType="C H" count="6.0 10.0"/></formula><bondArray><bond atomRefs2="a1 a2" id="a1_a2" order="S"/><bond atomRefs2="a1 a3" id="a1_a3" order="S"/><bond atomRefs2="a1 a4" id="a1_a4" order="S"/><bond atomRefs2="a2 a5" id="a2_a5" order="S"/><bond atomRefs2="a2 a6" id="a2_a6" order="S"/><bond atomRefs2="a5 a7" id="a5_a7" order="S"/><bond atomRefs2="a5 a8" id="a5_a8" order="S"/><bond atomRefs2="a9 a10" id="a9_a10" order="S"/><bond atomRefs2="a9 a11" id="a9_a11" order="S"/><bond atomRefs2="a9 a12" id="a9_a12" order="S"/><bond atomRefs2="a10 a13" id="a10_a13" order="S"/><bond atomRefs2="a10 a14" id="a10_a14" order="S"/><bond atomRefs2="a13 a15" id="a13_a15" order="S"/><bond atomRefs2="a13 a16" id="a13_a16" order="S"/></bondArray><property dictRef="cml:molmass"><scalar dataType="xsd:double" units="unit:dalton" xmlns:unit="http://www.xml-cml.org/unit/si/">82.14359999999999</scalar></property></molecule></module><module cmlx:lineCount="39" cmlx:templateRef="l202.distmat"><array dataType="xsd:double" size="135" dictRef="cc:distance">0.0 1.419951 0.0 1.078016 2.141575 0.0 1.077477 2.136509 1.793042 0.0 2.415051 1.36092 3.366096 2.704647 0.0 2.142483 1.075844 2.44244 3.058417 2.102185 0.0 3.392159 2.11846 4.251279 3.763645 1.07525 2.432623 0.0 2.706484 2.117666 3.748407 2.555969 1.073298 3.053691 1.808637 0.0 3.146982 2.708412 4.055657 3.485358 2.111364 3.233729 2.503791 2.409828 0.0 2.64539 2.878945 3.486064 2.801736 2.708473 3.574989 3.474284 2.748341 1.360925 0.0 4.01928 3.474321 5.000886 4.18079 2.503903 4.044763 2.636034 2.526532 1.075258 2.118464 0.0 3.408909 2.748142 4.147944 4.019922 2.409696 2.898748 2.526274 3.072195 1.073285 2.117663 1.808626 0.0 1.928181 2.645282 2.411225 2.370362 3.146939 3.167515 4.019186 3.408936 2.415067 1.419957 3.392177 2.706518 0.0 3.167762 3.575163 4.044052 2.944314 3.233949 4.425905 4.044871 2.899144 2.102191 1.075843 2.432619 3.05368 2.14249 0.0 2.411266 3.486009 2.630954 2.563643 4.055643 4.043867 5.000821 4.147994 3.366106 2.141575 4.251285 3.748437 1.078014 2.442429 0.0 2.370283 2.801528 2.56349 3.133995 3.485276 2.943903 4.180656 4.019925 2.70469 2.13652 3.76369 2.556039 1.077492 3.058416 1.793039</array></module> Symmetry turned off by external request.<module cmlx:lineCount="1" cmlx:templateRef="l202.stoich"/> Framework group  C1[X(C6H10)] Deg. of freedom    42 Full point group                 C1      NOp   1<module cmlx:lineCount="1" cmlx:templateRef="l202.rotconst"><array dataType="xsd:double" size="3" dictRef="cc:rotconst" cmlx:templateRef="rotconst">4.5887372 4.0317305 2.4700857</array></module><module cmlx:lineCount="8" cmlx:templateRef="l301.basis"> Raffenetti 1 integral format. Two-electron integral symmetry is turned off.    74 basis functions,   120 primitive gaussians,    74 cartesian basis functions    23 alpha electrons       23 beta electrons       nuclear repulsion energy       231.7557369212 Hartrees. NAtoms=   16 NActive=   16 NUniq=   16 SFac= 7.50D-01 NAtFMM=   80 NAOKFM=F Big=F</module><module cmlx:lineCount="1" cmlx:templateRef="l302.basis"><list cmlx:templateRef="onee"><scalar dataType="xsd:string" dictRef="g:onee">One-electron integrals</scalar></list></module> NBasis=    74 RedAO= T  NBF=    74 NBsUse=    74 1.00D-06 NBFU=    74 Initial guess read from the read-write file. B after Tr=     0.000000    0.000000    0.000000         Rot=    1.000000    0.000000    0.000000    0.000000 Ang=   0.00 deg. Harris functional with IExCor=  205 diagonalized for initial guess. ExpMin= 1.83D-01 ExpMax= 1.72D+02 ExpMxC= 1.72D+02 IAcc=1 IRadAn=         1 AccDes= 0.00D+00 HarFok:  IExCor=  205 AccDes= 0.00D+00 IRadAn=         1 IDoV= 1 ScaDFX=  1.000000  1.000000  1.000000  1.000000 FoFCou: FMM=F IPFlag=           0 FMFlag=      100000 FMFlg1=           0         NFxFlg=           0 DoJE=T BraDBF=F KetDBF=T FulRan=T         Omega=  0.000000  0.000000  1.000000  0.000000  0.000000 ICntrl=     500 IOpCl=  0         NMat0=    1 NMatS0=    1 NMatT0=    0 NMatD0=    1 NMtDS0=    0 NMtDT0=    0         I1Cent=           4 NGrid=           0. Symmetry not used in FoFCou. Requested convergence on RMS density matrix=1.00D-08 within 128 cycles. Requested convergence on MAX density matrix=1.00D-06. Requested convergence on             energy=1.00D-06. No special actions if energy rises. Keep R1 ints in memory in canonical form, NReq=4687208. SCF Done:  E(RHF) =  -231.623968688     A.U. after   11 cycles             Convg  =    0.3695D-08             -V/T =  2.0017<module cmlx:lineCount="1" cmlx:templateRef="l801"/> NBasis=    74 NAE=    23 NBE=    23 NFC=     0 NFV=     0 NROrb=     74 NOA=    23 NOB=    23 NVA=    51 NVB=    51 Symmetrizing basis deriv contribution to polar: IMax=3 JMax=2 DiffMx= 0.00D+00 Calling FoFJK, ICntrl=      2147 FMM=F ISym2X=0 I1Cent= 0 IOpClX= 0 NMat=1 NMatS=1 NMatT=0. ------------------------------------------------------------------- Center     Atomic                   Forces (Hartrees/Bohr) Number     Number              X              Y              Z -------------------------------------------------------------------      1        6          -0.007695062    0.020017269   -0.009464252      2        6          -0.001996641    0.000568175    0.005021824      3        1          -0.000466788   -0.000074200    0.000190983      4        1           0.000683095   -0.000082732    0.000271212      5        6           0.009401039   -0.020737101    0.004195205      6        1          -0.000055085   -0.000148045    0.000227401      7        1           0.000209834   -0.000319247   -0.000034040      8        1           0.000447459    0.001229773   -0.000111910      9        6          -0.008001832    0.020684004   -0.006663005     10        6          -0.003319860   -0.000373954    0.004284078     11        1          -0.000065915    0.000311284   -0.000211223     12        1          -0.000148966   -0.001234273   -0.000397815     13        6           0.011687766   -0.020156605    0.002496417     14        1          -0.000164487    0.000151686    0.000158954     15        1           0.000073412    0.000088144    0.000494348     16        1          -0.000587969    0.000075821   -0.000458179 ------------------------------------------------------------------- Cartesian Forces:  Max     0.020737101 RMS     0.006824289 IRC-IRC-IRC-IRC-IRC-IRC-IRC-IRC-IRC-IRC-IRC-IRC-IRC-IRC-IRC-IRC-IRC-IRC Pt  2 Step number   1 out of a maximum of  20 CORRECTOR INTEGRATION CONVERGENCE:   Recorrection delta-x convergence threshold:    0.010000   Delta-x Convergence Met Point Number:   2          Path Number:   1   CHANGE IN THE REACTION COORDINATE =    0.31417   NET REACTION COORDINATE UP TO THIS POINT =    0.62849  # OF POINTS ALONG THE PATH =   2  # OF STEPS =   1 Calculating another point on the path. IRC-IRC-IRC-IRC-IRC-IRC-IRC-IRC-IRC-IRC-IRC-IRC-IRC-IRC-IRC-IRC-IRC-IRC<module cmlx:lineCount="22" cmlx:templateRef="l202.orient"><molecule id="a16" cmlx:templateRef="atom"><atomArray><atom id="a1" elementType="C" x3="0.902348" y3="-0.895182" z3="-0.866777"><scalar dataType="xsd:integer" dictRef="cc:serial">1</scalar><scalar dataType="xsd:integer" dictRef="g:atomicType">0</scalar><scalar dataType="xsd:integer" dictRef="compchem:atomicNumber">6</scalar></atom><atom id="a2" elementType="C" x3="0.916513" y3="-0.954638" z3="0.566855"><scalar dataType="xsd:integer" dictRef="cc:serial">2</scalar><scalar dataType="xsd:integer" dictRef="g:atomicType">0</scalar><scalar dataType="xsd:integer" dictRef="compchem:atomicNumber">6</scalar></atom><atom id="a3" elementType="H" x3="1.85938" y3="-0.959536" z3="-1.360781"><scalar dataType="xsd:integer" dictRef="cc:serial">3</scalar><scalar dataType="xsd:integer" dictRef="g:atomicType">0</scalar><scalar dataType="xsd:integer" dictRef="compchem:atomicNumber">1</scalar></atom><atom id="a4" elementType="H" x3="0.154899" y3="-1.498399" z3="-1.357477"><scalar dataType="xsd:integer" dictRef="cc:serial">4</scalar><scalar dataType="xsd:integer" dictRef="g:atomicType">0</scalar><scalar dataType="xsd:integer" dictRef="compchem:atomicNumber">1</scalar></atom><atom id="a5" elementType="C" x3="-0.238401" y3="-0.970291" z3="1.265243"><scalar dataType="xsd:integer" dictRef="cc:serial">5</scalar><scalar dataType="xsd:integer" dictRef="g:atomicType">0</scalar><scalar dataType="xsd:integer" dictRef="compchem:atomicNumber">6</scalar></atom><atom id="a6" elementType="H" x3="1.824298" y3="-0.664212" z3="1.065751"><scalar dataType="xsd:integer" dictRef="cc:serial">6</scalar><scalar dataType="xsd:integer" dictRef="g:atomicType">0</scalar><scalar dataType="xsd:integer" dictRef="compchem:atomicNumber">1</scalar></atom><atom id="a7" elementType="H" x3="-0.237013" y3="-0.877453" z3="2.335961"><scalar dataType="xsd:integer" dictRef="cc:serial">7</scalar><scalar dataType="xsd:integer" dictRef="g:atomicType">0</scalar><scalar dataType="xsd:integer" dictRef="compchem:atomicNumber">1</scalar></atom><atom id="a8" elementType="H" x3="-1.130516" y3="-1.395645" z3="0.848489"><scalar dataType="xsd:integer" dictRef="cc:serial">8</scalar><scalar dataType="xsd:integer" dictRef="g:atomicType">0</scalar><scalar dataType="xsd:integer" dictRef="compchem:atomicNumber">1</scalar></atom><atom id="a9" elementType="C" x3="-0.950055" y3="1.016255" z3="0.814715"><scalar dataType="xsd:integer" dictRef="cc:serial">9</scalar><scalar dataType="xsd:integer" dictRef="g:atomicType">0</scalar><scalar dataType="xsd:integer" dictRef="compchem:atomicNumber">6</scalar></atom><atom id="a10" elementType="C" x3="-0.935516" y3="0.955449" z3="-0.533587"><scalar dataType="xsd:integer" dictRef="cc:serial">10</scalar><scalar dataType="xsd:integer" dictRef="g:atomicType">0</scalar><scalar dataType="xsd:integer" dictRef="compchem:atomicNumber">6</scalar></atom><atom id="a11" elementType="H" x3="-1.874632" y3="0.959222" z3="1.359654"><scalar dataType="xsd:integer" dictRef="cc:serial">11</scalar><scalar dataType="xsd:integer" dictRef="g:atomicType">0</scalar><scalar dataType="xsd:integer" dictRef="compchem:atomicNumber">1</scalar></atom><atom id="a12" elementType="H" x3="-0.129886" y3="1.444279" z3="1.357487"><scalar dataType="xsd:integer" dictRef="cc:serial">12</scalar><scalar dataType="xsd:integer" dictRef="g:atomicType">0</scalar><scalar dataType="xsd:integer" dictRef="compchem:atomicNumber">1</scalar></atom><atom id="a13" elementType="C" x3="0.305164" y3="0.848401" z3="-1.246545"><scalar dataType="xsd:integer" dictRef="cc:serial">13</scalar><scalar dataType="xsd:integer" dictRef="g:atomicType">0</scalar><scalar dataType="xsd:integer" dictRef="compchem:atomicNumber">6</scalar></atom><atom id="a14" elementType="H" x3="-1.831829" y3="0.664786" z3="-1.052676"><scalar dataType="xsd:integer" dictRef="cc:serial">14</scalar><scalar dataType="xsd:integer" dictRef="g:atomicType">0</scalar><scalar dataType="xsd:integer" dictRef="compchem:atomicNumber">1</scalar></atom><atom id="a15" elementType="H" x3="0.245703" y3="0.878066" z3="-2.323428"><scalar dataType="xsd:integer" dictRef="cc:serial">15</scalar><scalar dataType="xsd:integer" dictRef="g:atomicType">0</scalar><scalar dataType="xsd:integer" dictRef="compchem:atomicNumber">1</scalar></atom><atom id="a16" elementType="H" x3="1.118945" y3="1.448968" z3="-0.871837"><scalar dataType="xsd:integer" dictRef="cc:serial">16</scalar><scalar dataType="xsd:integer" dictRef="g:atomicType">0</scalar><scalar dataType="xsd:integer" dictRef="compchem:atomicNumber">1</scalar></atom></atomArray><formula formalCharge="0" concise="C 6 H 10"><atomArray elementType="C H" count="6.0 10.0"/></formula><bondArray><bond atomRefs2="a1 a2" id="a1_a2" order="S"/><bond atomRefs2="a1 a3" id="a1_a3" order="S"/><bond atomRefs2="a1 a4" id="a1_a4" order="S"/><bond atomRefs2="a2 a5" id="a2_a5" order="S"/><bond atomRefs2="a2 a6" id="a2_a6" order="S"/><bond atomRefs2="a5 a7" id="a5_a7" order="S"/><bond atomRefs2="a5 a8" id="a5_a8" order="S"/><bond atomRefs2="a9 a10" id="a9_a10" order="S"/><bond atomRefs2="a9 a11" id="a9_a11" order="S"/><bond atomRefs2="a9 a12" id="a9_a12" order="S"/><bond atomRefs2="a10 a13" id="a10_a13" order="S"/><bond atomRefs2="a10 a14" id="a10_a14" order="S"/><bond atomRefs2="a13 a15" id="a13_a15" order="S"/><bond atomRefs2="a13 a16" id="a13_a16" order="S"/></bondArray><property dictRef="cml:molmass"><scalar dataType="xsd:double" units="unit:dalton" xmlns:unit="http://www.xml-cml.org/unit/si/">82.14359999999999</scalar></property></molecule></module><module cmlx:lineCount="39" cmlx:templateRef="l202.distmat"><array dataType="xsd:double" size="135" dictRef="cc:distance">0.0 1.434934 0.0 1.07893 2.14588 0.0 1.078581 2.139809 1.787634 0.0 2.419185 1.349746 3.361071 2.704116 0.0 2.153602 1.075788 2.444689 3.058561 2.094804 0.0 3.39941 2.113366 4.250589 3.765721 1.074736 2.430619 0.0 2.706499 2.112849 3.743066 2.555218 1.072605 3.051741 1.810924 0.0 3.148397 2.72579 4.065643 3.501832 2.157728 3.25331 2.531551 2.418877 0.0 2.629372 2.879134 3.487529 2.808766 2.725845 3.577395 3.47588 2.734191 1.34975 0.0 4.013406 3.4759 5.002523 4.188281 2.531637 4.050185 2.647328 2.521982 1.074734 2.113365 0.0 3.389091 2.734018 4.138174 4.013912 2.418767 2.889581 2.521771 3.05377 1.072606 2.112855 1.810918 0.0 1.881737 2.62928 2.386896 2.354221 3.148361 3.153169 4.013337 3.389113 2.419202 1.434941 3.399421 2.706533 0.0 3.153377 3.577541 4.044549 2.952857 3.253497 4.429587 4.050285 2.889921 2.094804 1.075787 2.43061 3.051739 2.153611 0.0 2.386928 3.487481 2.628198 2.566883 4.065629 4.044394 5.002476 4.138212 3.361082 2.145879 4.250588 3.7431 1.078931 2.444675 0.0 2.354142 2.808583 2.56675 3.138822 3.501759 2.952508 4.188178 4.013904 2.704156 2.13981 3.765755 2.555287 1.078576 3.058548 1.787623</array></module> Symmetry turned off by external request.<module cmlx:lineCount="1" cmlx:templateRef="l202.stoich"/> Framework group  C1[X(C6H10)] Deg. of freedom    42 Full point group                 C1      NOp   1<module cmlx:lineCount="1" cmlx:templateRef="l202.rotconst"><array dataType="xsd:double" size="3" dictRef="cc:rotconst" cmlx:templateRef="rotconst">4.5849742 4.0275518 2.4670552</array></module><module cmlx:lineCount="8" cmlx:templateRef="l301.basis"> Raffenetti 1 integral format. Two-electron integral symmetry is turned off.    74 basis functions,   120 primitive gaussians,    74 cartesian basis functions    23 alpha electrons       23 beta electrons       nuclear repulsion energy       231.7278396157 Hartrees. NAtoms=   16 NActive=   16 NUniq=   16 SFac= 7.50D-01 NAtFMM=   80 NAOKFM=F Big=F</module><module cmlx:lineCount="1" cmlx:templateRef="l302.basis"><list cmlx:templateRef="onee"><scalar dataType="xsd:string" dictRef="g:onee">One-electron integrals</scalar></list></module> NBasis=    74 RedAO= T  NBF=    74 NBsUse=    74 1.00D-06 NBFU=    74 Initial guess read from the read-write file. B after Tr=     0.000000    0.000000    0.000000         Rot=    1.000000    0.000000    0.000000    0.000000 Ang=   0.00 deg. Harris functional with IExCor=  205 diagonalized for initial guess. ExpMin= 1.83D-01 ExpMax= 1.72D+02 ExpMxC= 1.72D+02 IAcc=1 IRadAn=         1 AccDes= 0.00D+00 HarFok:  IExCor=  205 AccDes= 0.00D+00 IRadAn=         1 IDoV= 1 ScaDFX=  1.000000  1.000000  1.000000  1.000000 FoFCou: FMM=F IPFlag=           0 FMFlag=      100000 FMFlg1=           0         NFxFlg=           0 DoJE=T BraDBF=F KetDBF=T FulRan=T         Omega=  0.000000  0.000000  1.000000  0.000000  0.000000 ICntrl=     500 IOpCl=  0         NMat0=    1 NMatS0=    1 NMatT0=    0 NMatD0=    1 NMtDS0=    0 NMtDT0=    0         I1Cent=           4 NGrid=           0. Symmetry not used in FoFCou. Requested convergence on RMS density matrix=1.00D-08 within 128 cycles. Requested convergence on MAX density matrix=1.00D-06. Requested convergence on             energy=1.00D-06. No special actions if energy rises. Keep R1 ints in memory in canonical form, NReq=4687208. SCF Done:  E(RHF) =  -231.628963015     A.U. after   11 cycles             Convg  =    0.3450D-08             -V/T =  2.0016<module cmlx:lineCount="1" cmlx:templateRef="l801"/> NBasis=    74 NAE=    23 NBE=    23 NFC=     0 NFV=     0 NROrb=     74 NOA=    23 NOB=    23 NVA=    51 NVB=    51 Symmetrizing basis deriv contribution to polar: IMax=3 JMax=2 DiffMx= 0.00D+00 Calling FoFJK, ICntrl=      2147 FMM=F ISym2X=0 I1Cent= 0 IOpClX= 0 NMat=1 NMatS=1 NMatT=0. ------------------------------------------------------------------- Center     Atomic                   Forces (Hartrees/Bohr) Number     Number              X              Y              Z -------------------------------------------------------------------      1        6          -0.009677535    0.026054395   -0.011374787      2        6          -0.001935596    0.000936658    0.005407613      3        1          -0.000588219    0.000081927    0.000133633      4        1           0.000598632    0.000049188    0.000191341      5        6           0.011705849   -0.026774712    0.005817312      6        1           0.000014353   -0.000278958    0.000256682      7        1           0.000364054   -0.000816599    0.000226354      8        1           0.000507839    0.001360310   -0.000102453      9        6          -0.010438677    0.026731334   -0.008023222     10        6          -0.003690387   -0.000729798    0.004439894     11        1          -0.000366140    0.000815154   -0.000224901     12        1          -0.000198655   -0.001370991   -0.000445695     13        6           0.014212510   -0.026225021    0.003428767     14        1          -0.000222226    0.000283089    0.000108679     15        1           0.000182277   -0.000067052    0.000577240     16        1          -0.000468079   -0.000048926   -0.000416458 ------------------------------------------------------------------- Cartesian Forces:  Max     0.026774712 RMS     0.008725581 IRC-IRC-IRC-IRC-IRC-IRC-IRC-IRC-IRC-IRC-IRC-IRC-IRC-IRC-IRC-IRC-IRC-IRC Pt  3 Step number   1 out of a maximum of  20 CORRECTOR INTEGRATION CONVERGENCE:   Recorrection delta-x convergence threshold:    0.010000   Delta-x Convergence Met Point Number:   3          Path Number:   1   CHANGE IN THE REACTION COORDINATE =    0.31418   NET REACTION COORDINATE UP TO THIS POINT =    0.94267  # OF POINTS ALONG THE PATH =   3  # OF STEPS =   1 Calculating another point on the path. IRC-IRC-IRC-IRC-IRC-IRC-IRC-IRC-IRC-IRC-IRC-IRC-IRC-IRC-IRC-IRC-IRC-IRC<module cmlx:lineCount="22" cmlx:templateRef="l202.orient"><molecule id="a16" cmlx:templateRef="atom"><atomArray><atom id="a1" elementType="C" x3="0.894833" y3="-0.874477" z3="-0.875435"><scalar dataType="xsd:integer" dictRef="cc:serial">1</scalar><scalar dataType="xsd:integer" dictRef="g:atomicType">0</scalar><scalar dataType="xsd:integer" dictRef="compchem:atomicNumber">6</scalar></atom><atom id="a2" elementType="C" x3="0.914912" y3="-0.953846" z3="0.571081"><scalar dataType="xsd:integer" dictRef="cc:serial">2</scalar><scalar dataType="xsd:integer" dictRef="g:atomicType">0</scalar><scalar dataType="xsd:integer" dictRef="compchem:atomicNumber">6</scalar></atom><atom id="a3" elementType="H" x3="1.85556" y3="-0.958034" z3="-1.361184"><scalar dataType="xsd:integer" dictRef="cc:serial">3</scalar><scalar dataType="xsd:integer" dictRef="g:atomicType">0</scalar><scalar dataType="xsd:integer" dictRef="compchem:atomicNumber">1</scalar></atom><atom id="a4" elementType="H" x3="0.157714" y3="-1.498987" z3="-1.357346"><scalar dataType="xsd:integer" dictRef="cc:serial">4</scalar><scalar dataType="xsd:integer" dictRef="g:atomicType">0</scalar><scalar dataType="xsd:integer" dictRef="compchem:atomicNumber">1</scalar></atom><atom id="a5" elementType="C" x3="-0.22869" y3="-0.991203" z3="1.269999"><scalar dataType="xsd:integer" dictRef="cc:serial">5</scalar><scalar dataType="xsd:integer" dictRef="g:atomicType">0</scalar><scalar dataType="xsd:integer" dictRef="compchem:atomicNumber">6</scalar></atom><atom id="a6" elementType="H" x3="1.825013" y3="-0.667264" z3="1.067861"><scalar dataType="xsd:integer" dictRef="cc:serial">6</scalar><scalar dataType="xsd:integer" dictRef="g:atomicType">0</scalar><scalar dataType="xsd:integer" dictRef="compchem:atomicNumber">1</scalar></atom><atom id="a7" elementType="H" x3="-0.233188" y3="-0.88661" z3="2.339236"><scalar dataType="xsd:integer" dictRef="cc:serial">7</scalar><scalar dataType="xsd:integer" dictRef="g:atomicType">0</scalar><scalar dataType="xsd:integer" dictRef="compchem:atomicNumber">1</scalar></atom><atom id="a8" elementType="H" x3="-1.130384" y3="-1.38607" z3="0.845578"><scalar dataType="xsd:integer" dictRef="cc:serial">8</scalar><scalar dataType="xsd:integer" dictRef="g:atomicType">0</scalar><scalar dataType="xsd:integer" dictRef="compchem:atomicNumber">1</scalar></atom><atom id="a9" elementType="C" x3="-0.958682" y3="1.037129" z3="0.808068"><scalar dataType="xsd:integer" dictRef="cc:serial">9</scalar><scalar dataType="xsd:integer" dictRef="g:atomicType">0</scalar><scalar dataType="xsd:integer" dictRef="compchem:atomicNumber">6</scalar></atom><atom id="a10" elementType="C" x3="-0.938356" y3="0.95482" z3="-0.530039"><scalar dataType="xsd:integer" dictRef="cc:serial">10</scalar><scalar dataType="xsd:integer" dictRef="g:atomicType">0</scalar><scalar dataType="xsd:integer" dictRef="compchem:atomicNumber">6</scalar></atom><atom id="a11" elementType="H" x3="-1.879222" y3="0.968396" z3="1.357715"><scalar dataType="xsd:integer" dictRef="cc:serial">11</scalar><scalar dataType="xsd:integer" dictRef="g:atomicType">0</scalar><scalar dataType="xsd:integer" dictRef="compchem:atomicNumber">1</scalar></atom><atom id="a12" elementType="H" x3="-0.127641" y3="1.434632" z3="1.356211"><scalar dataType="xsd:integer" dictRef="cc:serial">12</scalar><scalar dataType="xsd:integer" dictRef="g:atomicType">0</scalar><scalar dataType="xsd:integer" dictRef="compchem:atomicNumber">1</scalar></atom><atom id="a13" elementType="C" x3="0.316043" y3="0.82757" z3="-1.243776"><scalar dataType="xsd:integer" dictRef="cc:serial">13</scalar><scalar dataType="xsd:integer" dictRef="g:atomicType">0</scalar><scalar dataType="xsd:integer" dictRef="compchem:atomicNumber">6</scalar></atom><atom id="a14" elementType="H" x3="-1.833943" y3="0.667857" z3="-1.052321"><scalar dataType="xsd:integer" dictRef="cc:serial">14</scalar><scalar dataType="xsd:integer" dictRef="g:atomicType">0</scalar><scalar dataType="xsd:integer" dictRef="compchem:atomicNumber">1</scalar></atom><atom id="a15" elementType="H" x3="0.247963" y3="0.876617" z3="-2.320294"><scalar dataType="xsd:integer" dictRef="cc:serial">15</scalar><scalar dataType="xsd:integer" dictRef="g:atomicType">0</scalar><scalar dataType="xsd:integer" dictRef="compchem:atomicNumber">1</scalar></atom><atom id="a16" elementType="H" x3="1.117406" y3="1.449541" z3="-0.874221"><scalar dataType="xsd:integer" dictRef="cc:serial">16</scalar><scalar dataType="xsd:integer" dictRef="g:atomicType">0</scalar><scalar dataType="xsd:integer" dictRef="compchem:atomicNumber">1</scalar></atom></atomArray><formula formalCharge="0" concise="C 6 H 10"><atomArray elementType="C H" count="6.0 10.0"/></formula><bondArray><bond atomRefs2="a1 a2" id="a1_a2" order="S"/><bond atomRefs2="a1 a3" id="a1_a3" order="S"/><bond atomRefs2="a1 a4" id="a1_a4" order="S"/><bond atomRefs2="a2 a5" id="a2_a5" order="S"/><bond atomRefs2="a2 a6" id="a2_a6" order="S"/><bond atomRefs2="a5 a7" id="a5_a7" order="S"/><bond atomRefs2="a5 a8" id="a5_a8" order="S"/><bond atomRefs2="a9 a10" id="a9_a10" order="S"/><bond atomRefs2="a9 a11" id="a9_a11" order="S"/><bond atomRefs2="a9 a12" id="a9_a12" order="S"/><bond atomRefs2="a10 a13" id="a10_a13" order="S"/><bond atomRefs2="a10 a14" id="a10_a14" order="S"/><bond atomRefs2="a13 a15" id="a13_a15" order="S"/><bond atomRefs2="a13 a16" id="a13_a16" order="S"/></bondArray><property dictRef="cml:molmass"><scalar dataType="xsd:double" units="unit:dalton" xmlns:unit="http://www.xml-cml.org/unit/si/">82.14359999999999</scalar></property></molecule></module><module cmlx:lineCount="39" cmlx:templateRef="l202.distmat"><array dataType="xsd:double" size="135" dictRef="cc:distance">0.0 1.44883 0.0 1.079783 2.149066 0.0 1.079628 2.142278 1.781945 0.0 2.424627 1.340787 3.356833 2.703719 0.0 2.164387 1.075734 2.446578 3.058313 2.088897 0.0 3.406859 2.109272 4.249833 3.767297 1.07435 2.429134 0.0 2.706496 2.108412 3.737497 2.554373 1.071963 3.049666 1.812578 0.0 3.150228 2.744176 4.075082 3.516708 2.204631 3.274356 2.563511 2.429564 0.0 2.612702 2.879249 3.486515 2.811934 2.744225 3.580594 3.481504 2.721941 1.34079 0.0 4.009803 3.481522 5.005212 4.196265 2.563586 4.059649 2.667182 2.523203 1.07435 2.109272 0.0 3.370115 2.721796 4.128217 4.006362 2.429468 2.883395 2.523022 3.036873 1.07196 2.108416 1.81257 0.0 1.835112 2.612622 2.360568 2.334702 3.150196 3.139297 4.009744 3.370127 2.424645 1.448838 3.406872 2.706531 0.0 3.139475 3.58072 4.043681 2.958877 3.274521 4.4346 4.059735 2.883683 2.088897 1.075733 2.429125 3.049661 2.164395 0.0 2.36059 3.486468 2.621107 2.564938 4.075065 4.043544 5.005167 4.128236 3.356844 2.149065 4.249834 3.737532 1.079783 2.446563 0.0 2.334652 2.811792 2.564844 3.13819 3.516658 2.95859 4.19619 4.006364 2.703761 2.142281 3.767335 2.554445 1.07963 3.058302 1.781937</array></module> Symmetry turned off by external request.<module cmlx:lineCount="1" cmlx:templateRef="l202.stoich"/> Framework group  C1[X(C6H10)] Deg. of freedom    42 Full point group                 C1      NOp   1<module cmlx:lineCount="1" cmlx:templateRef="l202.rotconst"><array dataType="xsd:double" size="3" dictRef="cc:rotconst" cmlx:templateRef="rotconst">4.5804596 4.0213104 2.4629415</array></module><module cmlx:lineCount="8" cmlx:templateRef="l301.basis"> Raffenetti 1 integral format. Two-electron integral symmetry is turned off.    74 basis functions,   120 primitive gaussians,    74 cartesian basis functions    23 alpha electrons       23 beta electrons       nuclear repulsion energy       231.6921835888 Hartrees. NAtoms=   16 NActive=   16 NUniq=   16 SFac= 7.50D-01 NAtFMM=   80 NAOKFM=F Big=F</module><module cmlx:lineCount="1" cmlx:templateRef="l302.basis"><list cmlx:templateRef="onee"><scalar dataType="xsd:string" dictRef="g:onee">One-electron integrals</scalar></list></module> NBasis=    74 RedAO= T  NBF=    74 NBsUse=    74 1.00D-06 NBFU=    74 Initial guess read from the read-write file. B after Tr=     0.000000    0.000000    0.000000         Rot=    1.000000    0.000000    0.000000    0.000000 Ang=   0.00 deg. Harris functional with IExCor=  205 diagonalized for initial guess. ExpMin= 1.83D-01 ExpMax= 1.72D+02 ExpMxC= 1.72D+02 IAcc=1 IRadAn=         1 AccDes= 0.00D+00 HarFok:  IExCor=  205 AccDes= 0.00D+00 IRadAn=         1 IDoV= 1 ScaDFX=  1.000000  1.000000  1.000000  1.000000 FoFCou: FMM=F IPFlag=           0 FMFlag=      100000 FMFlg1=           0         NFxFlg=           0 DoJE=T BraDBF=F KetDBF=T FulRan=T         Omega=  0.000000  0.000000  1.000000  0.000000  0.000000 ICntrl=     500 IOpCl=  0         NMat0=    1 NMatS0=    1 NMatT0=    0 NMatD0=    1 NMtDS0=    0 NMtDT0=    0         I1Cent=           4 NGrid=           0. Symmetry not used in FoFCou. Requested convergence on RMS density matrix=1.00D-08 within 128 cycles. Requested convergence on MAX density matrix=1.00D-06. Requested convergence on             energy=1.00D-06. No special actions if energy rises. Keep R1 ints in memory in canonical form, NReq=4687208. SCF Done:  E(RHF) =  -231.634831651     A.U. after   11 cycles             Convg  =    0.3002D-08             -V/T =  2.0016<module cmlx:lineCount="1" cmlx:templateRef="l801"/> NBasis=    74 NAE=    23 NBE=    23 NFC=     0 NFV=     0 NROrb=     74 NOA=    23 NOB=    23 NVA=    51 NVB=    51 Symmetrizing basis deriv contribution to polar: IMax=3 JMax=2 DiffMx= 0.00D+00 Calling FoFJK, ICntrl=      2147 FMM=F ISym2X=0 I1Cent= 0 IOpClX= 0 NMat=1 NMatS=1 NMatT=0. ------------------------------------------------------------------- Center     Atomic                   Forces (Hartrees/Bohr) Number     Number              X              Y              Z -------------------------------------------------------------------      1        6          -0.010473094    0.028754833   -0.011577249      2        6          -0.001356661    0.001316180    0.004739402      3        1          -0.000650985    0.000327051    0.000021057      4        1           0.000418934    0.000344899    0.000097102      5        6           0.012449500   -0.029817548    0.006960382      6        1           0.000119691   -0.000412542    0.000211325      7        1           0.000564835   -0.001472494    0.000487768      8        1           0.000538087    0.001223263   -0.000021736      9        6          -0.011748559    0.029793842   -0.008186431     10        6          -0.003416180   -0.001141729    0.003615206     11        1          -0.000678872    0.001476340   -0.000288314     12        1          -0.000277406   -0.001231637   -0.000433453     13        6           0.014743150   -0.028911232    0.004103717     14        1          -0.000234229    0.000413467   -0.000009352     15        1           0.000306103   -0.000314301    0.000581643     16        1          -0.000304313   -0.000348393   -0.000301069 ------------------------------------------------------------------- Cartesian Forces:  Max     0.029817548 RMS     0.009562385 IRC-IRC-IRC-IRC-IRC-IRC-IRC-IRC-IRC-IRC-IRC-IRC-IRC-IRC-IRC-IRC-IRC-IRC Pt  4 Step number   1 out of a maximum of  20 CORRECTOR INTEGRATION CONVERGENCE:   Recorrection delta-x convergence threshold:    0.010000   Delta-x Convergence Met Point Number:   4          Path Number:   1   CHANGE IN THE REACTION COORDINATE =    0.31417   NET REACTION COORDINATE UP TO THIS POINT =    1.25684  # OF POINTS ALONG THE PATH =   4  # OF STEPS =   1 Calculating another point on the path. IRC-IRC-IRC-IRC-IRC-IRC-IRC-IRC-IRC-IRC-IRC-IRC-IRC-IRC-IRC-IRC-IRC-IRC<module cmlx:lineCount="22" cmlx:templateRef="l202.orient"><molecule id="a16" cmlx:templateRef="atom"><atomArray><atom id="a1" elementType="C" x3="0.887432" y3="-0.853868" z3="-0.883432"><scalar dataType="xsd:integer" dictRef="cc:serial">1</scalar><scalar dataType="xsd:integer" dictRef="g:atomicType">0</scalar><scalar dataType="xsd:integer" dictRef="compchem:atomicNumber">6</scalar></atom><atom id="a2" elementType="C" x3="0.913978" y3="-0.952838" z3="0.574337"><scalar dataType="xsd:integer" dictRef="cc:serial">2</scalar><scalar dataType="xsd:integer" dictRef="g:atomicType">0</scalar><scalar dataType="xsd:integer" dictRef="compchem:atomicNumber">6</scalar></atom><atom id="a3" elementType="H" x3="1.850912" y3="-0.95428" z3="-1.362223"><scalar dataType="xsd:integer" dictRef="cc:serial">3</scalar><scalar dataType="xsd:integer" dictRef="g:atomicType">0</scalar><scalar dataType="xsd:integer" dictRef="compchem:atomicNumber">1</scalar></atom><atom id="a4" elementType="H" x3="0.159348" y3="-1.496234" z3="-1.357518"><scalar dataType="xsd:integer" dictRef="cc:serial">4</scalar><scalar dataType="xsd:integer" dictRef="g:atomicType">0</scalar><scalar dataType="xsd:integer" dictRef="compchem:atomicNumber">1</scalar></atom><atom id="a5" elementType="C" x3="-0.219425" y3="-1.012501" z3="1.275284"><scalar dataType="xsd:integer" dictRef="cc:serial">5</scalar><scalar dataType="xsd:integer" dictRef="g:atomicType">0</scalar><scalar dataType="xsd:integer" dictRef="compchem:atomicNumber">6</scalar></atom><atom id="a6" elementType="H" x3="1.826582" y3="-0.671276" z3="1.069326"><scalar dataType="xsd:integer" dictRef="cc:serial">6</scalar><scalar dataType="xsd:integer" dictRef="g:atomicType">0</scalar><scalar dataType="xsd:integer" dictRef="compchem:atomicNumber">1</scalar></atom><atom id="a7" elementType="H" x3="-0.227629" y3="-0.901256" z3="2.343539"><scalar dataType="xsd:integer" dictRef="cc:serial">7</scalar><scalar dataType="xsd:integer" dictRef="g:atomicType">0</scalar><scalar dataType="xsd:integer" dictRef="compchem:atomicNumber">1</scalar></atom><atom id="a8" elementType="H" x3="-1.129355" y3="-1.378403" z3="0.84385"><scalar dataType="xsd:integer" dictRef="cc:serial">8</scalar><scalar dataType="xsd:integer" dictRef="g:atomicType">0</scalar><scalar dataType="xsd:integer" dictRef="compchem:atomicNumber">1</scalar></atom><atom id="a9" elementType="C" x3="-0.967533" y3="1.058414" z3="0.802059"><scalar dataType="xsd:integer" dictRef="cc:serial">9</scalar><scalar dataType="xsd:integer" dictRef="g:atomicType">0</scalar><scalar dataType="xsd:integer" dictRef="compchem:atomicNumber">6</scalar></atom><atom id="a10" elementType="C" x3="-0.940704" y3="0.953932" z3="-0.52755"><scalar dataType="xsd:integer" dictRef="cc:serial">10</scalar><scalar dataType="xsd:integer" dictRef="g:atomicType">0</scalar><scalar dataType="xsd:integer" dictRef="compchem:atomicNumber">6</scalar></atom><atom id="a11" elementType="H" x3="-1.88547" y3="0.983068" z3="1.354621"><scalar dataType="xsd:integer" dictRef="cc:serial">11</scalar><scalar dataType="xsd:integer" dictRef="g:atomicType">0</scalar><scalar dataType="xsd:integer" dictRef="compchem:atomicNumber">1</scalar></atom><atom id="a12" elementType="H" x3="-0.126822" y3="1.4269" z3="1.354702"><scalar dataType="xsd:integer" dictRef="cc:serial">12</scalar><scalar dataType="xsd:integer" dictRef="g:atomicType">0</scalar><scalar dataType="xsd:integer" dictRef="compchem:atomicNumber">1</scalar></atom><atom id="a13" elementType="C" x3="0.326297" y3="0.806856" z3="-1.240773"><scalar dataType="xsd:integer" dictRef="cc:serial">13</scalar><scalar dataType="xsd:integer" dictRef="g:atomicType">0</scalar><scalar dataType="xsd:integer" dictRef="compchem:atomicNumber">6</scalar></atom><atom id="a14" elementType="H" x3="-1.835919" y3="0.671857" z3="-1.053061"><scalar dataType="xsd:integer" dictRef="cc:serial">14</scalar><scalar dataType="xsd:integer" dictRef="g:atomicType">0</scalar><scalar dataType="xsd:integer" dictRef="compchem:atomicNumber">1</scalar></atom><atom id="a15" elementType="H" x3="0.251145" y3="0.872916" z3="-2.316695"><scalar dataType="xsd:integer" dictRef="cc:serial">15</scalar><scalar dataType="xsd:integer" dictRef="g:atomicType">0</scalar><scalar dataType="xsd:integer" dictRef="compchem:atomicNumber">1</scalar></atom><atom id="a16" elementType="H" x3="1.116668" y3="1.446763" z3="-0.875629"><scalar dataType="xsd:integer" dictRef="cc:serial">16</scalar><scalar dataType="xsd:integer" dictRef="g:atomicType">0</scalar><scalar dataType="xsd:integer" dictRef="compchem:atomicNumber">1</scalar></atom></atomArray><formula formalCharge="0" concise="C 6 H 10"><atomArray elementType="C H" count="6.0 10.0"/></formula><bondArray><bond atomRefs2="a1 a2" id="a1_a2" order="S"/><bond atomRefs2="a1 a3" id="a1_a3" order="S"/><bond atomRefs2="a1 a4" id="a1_a4" order="S"/><bond atomRefs2="a2 a5" id="a2_a5" order="S"/><bond atomRefs2="a2 a6" id="a2_a6" order="S"/><bond atomRefs2="a5 a7" id="a5_a7" order="S"/><bond atomRefs2="a5 a8" id="a5_a8" order="S"/><bond atomRefs2="a9 a10" id="a9_a10" order="S"/><bond atomRefs2="a9 a11" id="a9_a11" order="S"/><bond atomRefs2="a9 a12" id="a9_a12" order="S"/><bond atomRefs2="a10 a13" id="a10_a13" order="S"/><bond atomRefs2="a10 a14" id="a10_a14" order="S"/><bond atomRefs2="a13 a15" id="a13_a15" order="S"/><bond atomRefs2="a13 a16" id="a13_a16" order="S"/></bondArray><property dictRef="cml:molmass"><scalar dataType="xsd:double" units="unit:dalton" xmlns:unit="http://www.xml-cml.org/unit/si/">82.14359999999999</scalar></property></molecule></module><module cmlx:lineCount="39" cmlx:templateRef="l202.distmat"><array dataType="xsd:double" size="135" dictRef="cc:distance">0.0 1.461366 0.0 1.080564 2.151305 0.0 1.080509 2.144018 1.776268 0.0 2.431122 1.333975 3.353525 2.703537 0.0 2.174536 1.075704 2.448084 3.057744 2.084466 0.0 3.414521 2.106182 4.249214 3.768498 1.074063 2.428229 0.0 2.706672 2.104508 3.732109 2.553559 1.071444 3.047693 1.813793 0.0 3.152554 2.763525 4.083955 3.529852 2.252176 3.297019 2.600755 2.442541 0.0 2.595549 2.879196 3.482969 2.811098 2.763569 3.584576 3.491898 2.712215 1.333977 0.0 4.009015 3.491917 5.009502 4.205225 2.600826 4.074012 2.697605 2.531628 1.074063 2.106181 0.0 3.35259 2.712081 4.118632 3.997842 2.442449 2.880897 2.531457 3.022543 1.071444 2.104513 1.813789 0.0 1.789014 2.59548 2.332553 2.312083 3.152526 3.126066 4.008963 3.352602 2.43114 1.461373 3.414533 2.706707 0.0 3.12622 3.584688 4.041364 2.962162 3.297166 4.440996 4.074086 2.881158 2.084464 1.075703 2.428217 3.047691 2.174544 0.0 2.33257 3.482928 2.60939 2.5576 4.083938 4.041246 5.009461 4.118648 3.353537 2.151304 4.249214 3.732146 1.080564 2.448067 0.0 2.312037 2.810973 2.557518 3.132078 3.529809 2.961911 4.205161 3.997848 2.70358 2.14402 3.768535 2.553632 1.080508 3.057733 1.77626</array></module> Symmetry turned off by external request.<module cmlx:lineCount="1" cmlx:templateRef="l202.stoich"/> Framework group  C1[X(C6H10)] Deg. of freedom    42 Full point group                 C1      NOp   1<module cmlx:lineCount="1" cmlx:templateRef="l202.rotconst"><array dataType="xsd:double" size="3" dictRef="cc:rotconst" cmlx:templateRef="rotconst">4.5756354 4.0122413 2.4576425</array></module><module cmlx:lineCount="8" cmlx:templateRef="l301.basis"> Raffenetti 1 integral format. Two-electron integral symmetry is turned off.    74 basis functions,   120 primitive gaussians,    74 cartesian basis functions    23 alpha electrons       23 beta electrons       nuclear repulsion energy       231.6452526632 Hartrees. NAtoms=   16 NActive=   16 NUniq=   16 SFac= 7.50D-01 NAtFMM=   80 NAOKFM=F Big=F</module><module cmlx:lineCount="1" cmlx:templateRef="l302.basis"><list cmlx:templateRef="onee"><scalar dataType="xsd:string" dictRef="g:onee">One-electron integrals</scalar></list></module> NBasis=    74 RedAO= T  NBF=    74 NBsUse=    74 1.00D-06 NBFU=    74 Initial guess read from the read-write file. B after Tr=     0.000000    0.000000    0.000000         Rot=    1.000000    0.000000    0.000000    0.000000 Ang=   0.00 deg. Harris functional with IExCor=  205 diagonalized for initial guess. ExpMin= 1.83D-01 ExpMax= 1.72D+02 ExpMxC= 1.72D+02 IAcc=1 IRadAn=         1 AccDes= 0.00D+00 HarFok:  IExCor=  205 AccDes= 0.00D+00 IRadAn=         1 IDoV= 1 ScaDFX=  1.000000  1.000000  1.000000  1.000000 FoFCou: FMM=F IPFlag=           0 FMFlag=      100000 FMFlg1=           0         NFxFlg=           0 DoJE=T BraDBF=F KetDBF=T FulRan=T         Omega=  0.000000  0.00000
[...]
="cc:serial">12</scalar><scalar dataType="xsd:integer" dictRef="g:atomicType">0</scalar><scalar dataType="xsd:integer" dictRef="compchem:atomicNumber">1</scalar></atom><atom id="a13" elementType="C" x3="0.384675" y3="0.722994" z3="-1.145932"><scalar dataType="xsd:integer" dictRef="cc:serial">13</scalar><scalar dataType="xsd:integer" dictRef="g:atomicType">0</scalar><scalar dataType="xsd:integer" dictRef="compchem:atomicNumber">6</scalar></atom><atom id="a14" elementType="H" x3="-1.817262" y3="0.776067" z3="-1.200889"><scalar dataType="xsd:integer" dictRef="cc:serial">14</scalar><scalar dataType="xsd:integer" dictRef="g:atomicType">0</scalar><scalar dataType="xsd:integer" dictRef="compchem:atomicNumber">1</scalar></atom><atom id="a15" elementType="H" x3="0.388436" y3="0.905242" z3="-2.215479"><scalar dataType="xsd:integer" dictRef="cc:serial">15</scalar><scalar dataType="xsd:integer" dictRef="g:atomicType">0</scalar><scalar dataType="xsd:integer" dictRef="compchem:atomicNumber">1</scalar></atom><atom id="a16" elementType="H" x3="1.133043" y3="1.36646" z3="-0.69779"><scalar dataType="xsd:integer" dictRef="cc:serial">16</scalar><scalar dataType="xsd:integer" dictRef="g:atomicType">0</scalar><scalar dataType="xsd:integer" dictRef="compchem:atomicNumber">1</scalar></atom></atomArray><formula formalCharge="0" concise="C 6 H 10"><atomArray elementType="C H" count="6.0 10.0"/></formula><bondArray><bond atomRefs2="a1 a2" id="a1_a2" order="S"/><bond atomRefs2="a1 a3" id="a1_a3" order="S"/><bond atomRefs2="a1 a4" id="a1_a4" order="S"/><bond atomRefs2="a1 a13" id="a1_a13" order="S"/><bond atomRefs2="a2 a5" id="a2_a5" order="2"/><bond atomRefs2="a2 a6" id="a2_a6" order="S"/><bond atomRefs2="a5 a7" id="a5_a7" order="S"/><bond atomRefs2="a5 a8" id="a5_a8" order="S"/><bond atomRefs2="a9 a10" id="a9_a10" order="2"/><bond atomRefs2="a9 a11" id="a9_a11" order="S"/><bond atomRefs2="a9 a12" id="a9_a12" order="S"/><bond atomRefs2="a10 a13" id="a10_a13" order="S"/><bond atomRefs2="a10 a14" id="a10_a14" order="S"/><bond atomRefs2="a13 a15" id="a13_a15" order="S"/><bond atomRefs2="a13 a16" id="a13_a16" order="S"/></bondArray><property dictRef="cml:molmass"><scalar dataType="xsd:double" units="unit:dalton" xmlns:unit="http://www.xml-cml.org/unit/si/">82.14359999999999</scalar></property></molecule></module><module cmlx:lineCount="39" cmlx:templateRef="l202.distmat"><array dataType="xsd:double" size="135" dictRef="cc:distance">0.0 1.50794 0.0 1.084949 2.13876 0.0 1.083953 2.142019 1.752298 0.0 2.497373 1.316263 3.309772 2.676452 0.0 2.203243 1.076459 2.431297 3.050567 2.073179 0.0 3.480576 2.092597 4.196583 3.737638 1.073206 2.418525 0.0 2.74902 2.090942 3.686024 2.522873 1.073681 3.040962 1.823863 0.0 3.36293 3.318586 4.325612 3.681002 3.279168 3.884486 3.826007 3.22124 0.0 2.528267 3.056008 3.450185 2.717576 3.318646 3.769236 4.154526 3.154215 1.31625 0.0 4.270134 4.154506 5.285126 4.409685 3.826047 4.782317 4.251344 3.559444 1.07322 2.0926 0.0 3.51761 3.154036 4.370411 4.08803 3.221116 3.435869 3.559269 3.490913 1.073716 2.090943 1.823916 0.0 1.56324 2.528267 2.170714 2.172198 3.362975 3.035626 4.270148 3.51772 2.497372 1.507941 3.480589 2.749009 0.0 3.035694 3.769306 3.934468 2.843814 3.884608 4.617695 4.782396 3.436122 2.073143 1.076459 2.418487 3.040956 2.203262 0.0 2.170774 3.450233 2.428715 2.525962 4.325688 3.934451 5.285173 4.370546 3.309773 2.138756 4.196586 3.686043 1.08497 2.431292 0.0 2.172173 2.717549 2.525874 3.056028 3.681041 2.843699 4.409696 4.088131 2.676483 2.142024 3.737676 2.522904 1.083944 3.05057 1.752297</array></module> Symmetry turned off by external request.<module cmlx:lineCount="1" cmlx:templateRef="l202.stoich"/> Framework group  C1[X(C6H10)] Deg. of freedom    42 Full point group                 C1      NOp   1<module cmlx:lineCount="1" cmlx:templateRef="l202.rotconst"><array dataType="xsd:double" size="3" dictRef="cc:rotconst" cmlx:templateRef="rotconst">4.8135257 2.9924045 2.0912026</array></module><module cmlx:lineCount="8" cmlx:templateRef="l301.basis"> Raffenetti 1 integral format. Two-electron integral symmetry is turned off.    74 basis functions,   120 primitive gaussians,    74 cartesian basis functions    23 alpha electrons       23 beta electrons       nuclear repulsion energy       224.0963063544 Hartrees. NAtoms=   16 NActive=   16 NUniq=   16 SFac= 7.50D-01 NAtFMM=   80 NAOKFM=F Big=F</module><module cmlx:lineCount="1" cmlx:templateRef="l302.basis"><list cmlx:templateRef="onee"><scalar dataType="xsd:string" dictRef="g:onee">One-electron integrals</scalar></list></module> NBasis=    74 RedAO= T  NBF=    74 NBsUse=    74 1.00D-06 NBFU=    74 Initial guess read from the read-write file. B after Tr=     0.000000    0.000000    0.000000         Rot=    1.000000    0.000000    0.000000    0.000000 Ang=   0.00 deg. Harris functional with IExCor=  205 diagonalized for initial guess. ExpMin= 1.83D-01 ExpMax= 1.72D+02 ExpMxC= 1.72D+02 IAcc=1 IRadAn=         1 AccDes= 0.00D+00 HarFok:  IExCor=  205 AccDes= 0.00D+00 IRadAn=         1 IDoV= 1 ScaDFX=  1.000000  1.000000  1.000000  1.000000 FoFCou: FMM=F IPFlag=           0 FMFlag=      100000 FMFlg1=           0         NFxFlg=           0 DoJE=T BraDBF=F KetDBF=T FulRan=T         Omega=  0.000000  0.000000  1.000000  0.000000  0.000000 ICntrl=     500 IOpCl=  0         NMat0=    1 NMatS0=    1 NMatT0=    0 NMatD0=    1 NMtDS0=    0 NMtDT0=    0         I1Cent=           4 NGrid=           0. Symmetry not used in FoFCou. Requested convergence on RMS density matrix=1.00D-08 within 128 cycles. Requested convergence on MAX density matrix=1.00D-06. Requested convergence on             energy=1.00D-06. No special actions if energy rises. Keep R1 ints in memory in canonical form, NReq=4687208. SCF Done:  E(RHF) =  -231.688118802     A.U. after    9 cycles             Convg  =    0.2972D-08             -V/T =  2.0017<module cmlx:lineCount="1" cmlx:templateRef="l801"/> NBasis=    74 NAE=    23 NBE=    23 NFC=     0 NFV=     0 NROrb=     74 NOA=    23 NOB=    23 NVA=    51 NVB=    51 Symmetrizing basis deriv contribution to polar: IMax=3 JMax=2 DiffMx= 0.00D+00 Calling FoFJK, ICntrl=      2147 FMM=F ISym2X=0 I1Cent= 0 IOpClX= 0 NMat=1 NMatS=1 NMatT=0. ------------------------------------------------------------------- Center     Atomic                   Forces (Hartrees/Bohr) Number     Number              X              Y              Z -------------------------------------------------------------------      1        6          -0.001189383    0.000284421    0.000189112      2        6           0.000299870   -0.001078818    0.000188827      3        1          -0.000165198   -0.000081064   -0.000077147      4        1          -0.000228305    0.000042368    0.000073462      5        6           0.001833837   -0.002443336    0.000005012      6        1           0.000030694    0.000056886   -0.000089484      7        1           0.000360646   -0.000406218    0.000339719      8        1           0.000461126   -0.000364498    0.000254684      9        6          -0.000874711    0.002417512   -0.001623161     10        6          -0.000297921    0.001075730   -0.000211420     11        1          -0.000457446    0.000408791   -0.000153972     12        1          -0.000469235    0.000361700   -0.000293478     13        6           0.000423976   -0.000253845    0.001119545     14        1           0.000063337   -0.000061686   -0.000074683     15        1           0.000154669    0.000072144    0.000114056     16        1           0.000054045   -0.000030089    0.000238930 ------------------------------------------------------------------- Cartesian Forces:  Max     0.002443336 RMS     0.000736995 IRC-IRC-IRC-IRC-IRC-IRC-IRC-IRC-IRC-IRC-IRC-IRC-IRC-IRC-IRC-IRC-IRC-IRC Error in corrector energy =          -0.0000050038 Magnitude of corrector gradient =     0.0055895579 Magnitude of analytic gradient =      0.0051060519 Magnitude of difference =             0.0019599284 Angle between gradients (degrees)=   20.4791 Pt 24 Step number  19 out of a maximum of  20 CORRECTOR INTEGRATION CONVERGENCE:   Recorrection delta-x convergence threshold:    0.010000   Delta-x Convergence NOT Met IRC-IRC-IRC-IRC-IRC-IRC-IRC-IRC-IRC-IRC-IRC-IRC-IRC-IRC-IRC-IRC-IRC-IRC<module cmlx:lineCount="22" cmlx:templateRef="l202.orient"><molecule id="a16" cmlx:templateRef="atom"><atomArray><atom id="a1" elementType="C" x3="0.777347" y3="-0.766762" z3="-0.88841"><scalar dataType="xsd:integer" dictRef="cc:serial">1</scalar><scalar dataType="xsd:integer" dictRef="g:atomicType">0</scalar><scalar dataType="xsd:integer" dictRef="compchem:atomicNumber">6</scalar></atom><atom id="a2" elementType="C" x3="0.971748" y3="-1.024189" z3="0.585042"><scalar dataType="xsd:integer" dictRef="cc:serial">2</scalar><scalar dataType="xsd:integer" dictRef="g:atomicType">0</scalar><scalar dataType="xsd:integer" dictRef="compchem:atomicNumber">6</scalar></atom><atom id="a3" elementType="H" x3="1.692996" y3="-0.984819" z3="-1.428109"><scalar dataType="xsd:integer" dictRef="cc:serial">3</scalar><scalar dataType="xsd:integer" dictRef="g:atomicType">0</scalar><scalar dataType="xsd:integer" dictRef="compchem:atomicNumber">1</scalar></atom><atom id="a4" elementType="H" x3="-7.7E-4" y3="-1.409649" z3="-1.284131"><scalar dataType="xsd:integer" dictRef="cc:serial">4</scalar><scalar dataType="xsd:integer" dictRef="g:atomicType">0</scalar><scalar dataType="xsd:integer" dictRef="compchem:atomicNumber">1</scalar></atom><atom id="a5" elementType="C" x3="0.024986" y3="-1.453538" z3="1.391517"><scalar dataType="xsd:integer" dictRef="cc:serial">5</scalar><scalar dataType="xsd:integer" dictRef="g:atomicType">0</scalar><scalar dataType="xsd:integer" dictRef="compchem:atomicNumber">6</scalar></atom><atom id="a6" elementType="H" x3="1.942324" y3="-0.780683" z3="0.981764"><scalar dataType="xsd:integer" dictRef="cc:serial">6</scalar><scalar dataType="xsd:integer" dictRef="g:atomicType">0</scalar><scalar dataType="xsd:integer" dictRef="compchem:atomicNumber">1</scalar></atom><atom id="a7" elementType="H" x3="0.191182" y3="-1.581574" z3="2.44493"><scalar dataType="xsd:integer" dictRef="cc:serial">7</scalar><scalar dataType="xsd:integer" dictRef="g:atomicType">0</scalar><scalar dataType="xsd:integer" dictRef="compchem:atomicNumber">1</scalar></atom><atom id="a8" elementType="H" x3="-0.957943" y3="-1.691235" z3="1.033209"><scalar dataType="xsd:integer" dictRef="cc:serial">8</scalar><scalar dataType="xsd:integer" dictRef="g:atomicType">0</scalar><scalar dataType="xsd:integer" dictRef="compchem:atomicNumber">1</scalar></atom><atom id="a9" elementType="C" x3="-1.183362" y3="1.498337" z3="0.63585"><scalar dataType="xsd:integer" dictRef="cc:serial">9</scalar><scalar dataType="xsd:integer" dictRef="g:atomicType">0</scalar><scalar dataType="xsd:integer" dictRef="compchem:atomicNumber">6</scalar></atom><atom id="a10" elementType="C" x3="-0.977922" y3="1.024447" z3="-0.574261"><scalar dataType="xsd:integer" dictRef="cc:serial">10</scalar><scalar dataType="xsd:integer" dictRef="g:atomicType">0</scalar><scalar dataType="xsd:integer" dictRef="compchem:atomicNumber">6</scalar></atom><atom id="a11" elementType="H" x3="-2.17251" y3="1.658177" z3="1.022759"><scalar dataType="xsd:integer" dictRef="cc:serial">11</scalar><scalar dataType="xsd:integer" dictRef="g:atomicType">0</scalar><scalar dataType="xsd:integer" dictRef="compchem:atomicNumber">1</scalar></atom><atom id="a12" elementType="H" x3="-0.371051" y3="1.742647" z3="1.292662"><scalar dataType="xsd:integer" dictRef="cc:serial">12</scalar><scalar dataType="xsd:integer" dictRef="g:atomicType">0</scalar><scalar dataType="xsd:integer" dictRef="compchem:atomicNumber">1</scalar></atom><atom id="a13" elementType="C" x3="0.384835" y3="0.721809" z3="-1.145592"><scalar dataType="xsd:integer" dictRef="cc:serial">13</scalar><scalar dataType="xsd:integer" dictRef="g:atomicType">0</scalar><scalar dataType="xsd:integer" dictRef="compchem:atomicNumber">6</scalar></atom><atom id="a14" elementType="H" x3="-1.817177" y3="0.775851" z3="-1.2008"><scalar dataType="xsd:integer" dictRef="cc:serial">14</scalar><scalar dataType="xsd:integer" dictRef="g:atomicType">0</scalar><scalar dataType="xsd:integer" dictRef="compchem:atomicNumber">1</scalar></atom><atom id="a15" elementType="H" x3="0.388697" y3="0.904196" z3="-2.215125"><scalar dataType="xsd:integer" dictRef="cc:serial">15</scalar><scalar dataType="xsd:integer" dictRef="g:atomicType">0</scalar><scalar dataType="xsd:integer" dictRef="compchem:atomicNumber">1</scalar></atom><atom id="a16" elementType="H" x3="1.133089" y3="1.365888" z3="-0.697635"><scalar dataType="xsd:integer" dictRef="cc:serial">16</scalar><scalar dataType="xsd:integer" dictRef="g:atomicType">0</scalar><scalar dataType="xsd:integer" dictRef="compchem:atomicNumber">1</scalar></atom></atomArray><formula formalCharge="0" concise="C 6 H 10"><atomArray elementType="C H" count="6.0 10.0"/></formula><bondArray><bond atomRefs2="a1 a2" id="a1_a2" order="S"/><bond atomRefs2="a1 a3" id="a1_a3" order="S"/><bond atomRefs2="a1 a4" id="a1_a4" order="S"/><bond atomRefs2="a1 a13" id="a1_a13" order="S"/><bond atomRefs2="a2 a5" id="a2_a5" order="2"/><bond atomRefs2="a2 a6" id="a2_a6" order="S"/><bond atomRefs2="a5 a7" id="a5_a7" order="S"/><bond atomRefs2="a5 a8" id="a5_a8" order="S"/><bond atomRefs2="a9 a10" id="a9_a10" order="2"/><bond atomRefs2="a9 a11" id="a9_a11" order="S"/><bond atomRefs2="a9 a12" id="a9_a12" order="S"/><bond atomRefs2="a10 a13" id="a10_a13" order="S"/><bond atomRefs2="a10 a14" id="a10_a14" order="S"/><bond atomRefs2="a13 a15" id="a13_a15" order="S"/><bond atomRefs2="a13 a16" id="a13_a16" order="S"/></bondArray><property dictRef="cml:molmass"><scalar dataType="xsd:double" units="unit:dalton" xmlns:unit="http://www.xml-cml.org/unit/si/">82.14359999999999</scalar></property></molecule></module><module cmlx:lineCount="39" cmlx:templateRef="l202.distmat"><array dataType="xsd:double" size="135" dictRef="cc:distance">0.0 1.50835 0.0 1.085006 2.138814 0.0 1.084143 2.142003 1.752157 0.0 2.497153 1.315713 3.309418 2.676132 0.0 2.203387 1.07643 2.431321 3.05049 2.072877 0.0 3.481187 2.092641 4.196665 3.737954 1.074101 2.418425 0.0 2.749273 2.090338 3.685728 2.523001 1.072863 3.04028 1.823588 0.0 3.361312 3.318165 4.324283 3.679841 3.277912 3.883749 3.82727 3.222124 0.0 2.527467 3.056486 3.449639 2.717272 3.31821 3.76929 4.15616 3.155834 1.315729 0.0 4.270193 4.156084 5.285292 4.410187 3.827236 4.783469 4.255067 3.562842 1.074086 2.092636 0.0 3.517531 3.155823 4.370578 4.088268 3.222145 3.437377 3.562903 3.493324 1.072819 2.090336 1.823523 0.0 1.560785 2.527463 2.168796 2.170483 3.361331 3.034616 4.270237 3.517529 2.497153 1.508349 3.48117 2.749283 0.0 3.0346 3.769281 3.933566 2.843007 3.883793 4.617384 4.783546 3.437382 2.072918 1.07643 2.418465 3.040284 2.203367 0.0 2.168714 3.449573 2.426719 2.524344 4.324242 3.933532 5.28528 4.370513 3.309446 2.138819 4.196685 3.685754 1.08498 2.431298 0.0 2.170516 2.717307 2.524462 3.055032 3.679893 2.843063 4.410265 4.088305 2.67613 2.142002 3.737937 2.523027 1.084153 3.050474 1.752157</array></module> Symmetry turned off by external request.<module cmlx:lineCount="1" cmlx:templateRef="l202.stoich"/> Framework group  C1[X(C6H10)] Deg. of freedom    42 Full point group                 C1      NOp   1<module cmlx:lineCount="1" cmlx:templateRef="l202.rotconst"><array dataType="xsd:double" size="3" dictRef="cc:rotconst" cmlx:templateRef="rotconst">4.8154405 2.993519 2.0919153</array></module><module cmlx:lineCount="8" cmlx:templateRef="l301.basis"> Raffenetti 1 integral format. Two-electron integral symmetry is turned off.    74 basis functions,   120 primitive gaussians,    74 cartesian basis functions    23 alpha electrons       23 beta electrons       nuclear repulsion energy       224.1394461667 Hartrees. NAtoms=   16 NActive=   16 NUniq=   16 SFac= 7.50D-01 NAtFMM=   80 NAOKFM=F Big=F</module><module cmlx:lineCount="1" cmlx:templateRef="l302.basis"><list cmlx:templateRef="onee"><scalar dataType="xsd:string" dictRef="g:onee">One-electron integrals</scalar></list></module> NBasis=    74 RedAO= T  NBF=    74 NBsUse=    74 1.00D-06 NBFU=    74 Initial guess read from the read-write file. B after Tr=     0.000000    0.000000    0.000000         Rot=    1.000000    0.000000    0.000000    0.000000 Ang=   0.00 deg. Harris functional with IExCor=  205 diagonalized for initial guess. ExpMin= 1.83D-01 ExpMax= 1.72D+02 ExpMxC= 1.72D+02 IAcc=1 IRadAn=         1 AccDes= 0.00D+00 HarFok:  IExCor=  205 AccDes= 0.00D+00 IRadAn=         1 IDoV= 1 ScaDFX=  1.000000  1.000000  1.000000  1.000000 FoFCou: FMM=F IPFlag=           0 FMFlag=      100000 FMFlg1=           0         NFxFlg=           0 DoJE=T BraDBF=F KetDBF=T FulRan=T         Omega=  0.000000  0.000000  1.000000  0.000000  0.000000 ICntrl=     500 IOpCl=  0         NMat0=    1 NMatS0=    1 NMatT0=    0 NMatD0=    1 NMtDS0=    0 NMtDT0=    0         I1Cent=           4 NGrid=           0. Symmetry not used in FoFCou. Requested convergence on RMS density matrix=1.00D-08 within 128 cycles. Requested convergence on MAX density matrix=1.00D-06. Requested convergence on             energy=1.00D-06. No special actions if energy rises. Keep R1 ints in memory in canonical form, NReq=4687208. SCF Done:  E(RHF) =  -231.688118239     A.U. after    9 cycles             Convg  =    0.2795D-08             -V/T =  2.0017<module cmlx:lineCount="1" cmlx:templateRef="l801"/> NBasis=    74 NAE=    23 NBE=    23 NFC=     0 NFV=     0 NROrb=     74 NOA=    23 NOB=    23 NVA=    51 NVB=    51 Symmetrizing basis deriv contribution to polar: IMax=3 JMax=2 DiffMx= 0.00D+00 Calling FoFJK, ICntrl=      2147 FMM=F ISym2X=0 I1Cent= 0 IOpClX= 0 NMat=1 NMatS=1 NMatT=0. ------------------------------------------------------------------- Center     Atomic                   Forces (Hartrees/Bohr) Number     Number              X              Y              Z -------------------------------------------------------------------      1        6          -0.001026712   -0.000874269    0.000392765      2        6           0.000640232   -0.000473951   -0.000386622      3        1          -0.000168617   -0.000096134   -0.000062083      4        1          -0.000156166    0.000085530    0.000094277      5        6           0.002155780   -0.003131809    0.001310511      6        1           0.000057828    0.000005062   -0.000070676      7        1           0.000219724   -0.000189546   -0.000258735      8        1          -0.000122311   -0.000312936    0.000013325      9        6          -0.002182144    0.003118878   -0.001340025     10        6           0.000020943    0.000448219   -0.000744909     11        1           0.000102323    0.000178930   -0.000324145     12        1           0.000084531    0.000319264    0.000118467     13        6           0.000215162    0.000905239    0.001063125     14        1           0.000027794   -0.000006233   -0.000080461     15        1           0.000137669    0.000110005    0.000094103     16        1          -0.000006034   -0.000086249    0.000181082 ------------------------------------------------------------------- Cartesian Forces:  Max     0.003131809 RMS     0.000897678 IRC-IRC-IRC-IRC-IRC-IRC-IRC-IRC-IRC-IRC-IRC-IRC-IRC-IRC-IRC-IRC-IRC-IRC Error in corrector energy =          -0.0000048411 Magnitude of corrector gradient =     0.0054108298 Magnitude of analytic gradient =      0.0062192981 Magnitude of difference =             0.0019347680 Angle between gradients (degrees)=   17.4283 Pt 24 Step number  20 out of a maximum of  20 CORRECTOR INTEGRATION CONVERGENCE:   Recorrection delta-x convergence threshold:    0.010000   Delta-x Convergence NOT Met Maximum number of corrector steps exceded. Error termination via Lnk1e in /apps/gaussian/g09/g09/l123.exe at Mon Mar 15 17:04:27 2010.<module cmlx:lineCount="1" cmlx:templateRef="jobcpu"/> File lengths (MBytes):  RWF=     16 Int=      0 D2E=      0 Chk=      3 Scr=      1</module>
