 Entering Gaussian System, Link 0=g03
 Initial command:
 /apps/gaussian/g09/g09/l1.exe /home/scan-user-1/run/25818/Gau-2970.inp -scrdir=/home/scan-user-1/run/25818/
 Entering Link 1 = /apps/gaussian/g09/g09/l1.exe PID=      2971.
  
 Copyright (c) 1988,1990,1992,1993,1995,1998,2003,2009, Gaussian, Inc.
                  All Rights Reserved.
  
 This is part of the Gaussian(R) 09 program.  It is based on
 the Gaussian(R) 03 system (copyright 2003, Gaussian, Inc.),
 the Gaussian(R) 98 system (copyright 1998, Gaussian, Inc.),
 the Gaussian(R) 94 system (copyright 1995, Gaussian, Inc.),
 the Gaussian 92(TM) system (copyright 1992, Gaussian, Inc.),
 the Gaussian 90(TM) system (copyright 1990, Gaussian, Inc.),
 the Gaussian 88(TM) system (copyright 1988, Gaussian, Inc.),
 the Gaussian 86(TM) system (copyright 1986, Carnegie Mellon
 University), and the Gaussian 82(TM) system (copyright 1983,
 Carnegie Mellon University). Gaussian is a federally registered
 trademark of Gaussian, Inc.
  
 This software contains proprietary and confidential information,
 including trade secrets, belonging to Gaussian, Inc.
  
 This software is provided under written license and may be
 used, copied, transmitted, or stored only in accord with that
 written license.
  
 The following legend is applicable only to US Government
 contracts under FAR:
  
                    RESTRICTED RIGHTS LEGEND
  
 Use, reproduction and disclosure by the US Government is
 subject to restrictions as set forth in subparagraphs (a)
 and (c) of the Commercial Computer Software - Restricted
 Rights clause in FAR 52.227-19.
  
 Gaussian, Inc.
 340 Quinnipiac St., Bldg. 40, Wallingford CT 06492
  
  
 ---------------------------------------------------------------
 Warning -- This program may not be used in any manner that
 competes with the business of Gaussian, Inc. or will provide
 assistance to any competitor of Gaussian, Inc.  The licensee
 of this program is prohibited from giving any competitor of
 Gaussian, Inc. access to this program.  By using this program,
 the user acknowledges that Gaussian, Inc. is engaged in the
 business of creating and licensing software in the field of
 computational chemistry and represents and warrants to the
 licensee that it is not a competitor of Gaussian, Inc. and that
 it will not use this program in any manner prohibited above.
 ---------------------------------------------------------------
  

 Cite this work as:
 Gaussian 09, Revision A.02,
 M. J. Frisch, G. W. Trucks, H. B. Schlegel, G. E. Scuseria, 
 M. A. Robb, J. R. Cheeseman, G. Scalmani, V. Barone, B. Mennucci, 
 G. A. Petersson, H. Nakatsuji, M. Caricato, X. Li, H. P. Hratchian, 
 A. F. Izmaylov, J. Bloino, G. Zheng, J. L. Sonnenberg, M. Hada, 
 M. Ehara, K. Toyota, R. Fukuda, J. Hasegawa, M. Ishida, T. Nakajima, 
 Y. Honda, O. Kitao, H. Nakai, T. Vreven, J. A. Montgomery, Jr., 
 J. E. Peralta, F. Ogliaro, M. Bearpark, J. J. Heyd, E. Brothers, 
 K. N. Kudin, V. N. Staroverov, R. Kobayashi, J. Normand, 
 K. Raghavachari, A. Rendell, J. C. Burant, S. S. Iyengar, J. Tomasi, 
 M. Cossi, N. Rega, J. M. Millam, M. Klene, J. E. Knox, J. B. Cross, 
 V. Bakken, C. Adamo, J. Jaramillo, R. Gomperts, R. E. Stratmann, 
 O. Yazyev, A. J. Austin, R. Cammi, C. Pomelli, J. W. Ochterski, 
 R. L. Martin, K. Morokuma, V. G. Zakrzewski, G. A. Voth, 
 P. Salvador, J. J. Dannenberg, S. Dapprich, A. D. Daniels, 
 O. Farkas, J. B. Foresman, J. V. Ortiz, J. Cioslowski, 
 and D. J. Fox, Gaussian, Inc., Wallingford CT, 2009.
 
 ******************************************
 Gaussian 09:  EM64L-G09RevA.02 11-Jun-2009
                12-Mar-2010 
 ******************************************
 %nprocshared=4
 Will use up to    4 processors via shared memory.
 %mem=7000MB
 %NoSave
 %Chk=chk.chk
 %rwf=/tmp/pbs.3637348.cx1/rwf
 ----------------------------------------------------------------------
 # freq b3lyp/lanl2dz pop=nbo geom=connectivity int=ultrafine scf=conve
 r=9
 ----------------------------------------------------------------------
 1/10=4,30=1,38=1,57=2/1,3;
 2/12=2,17=6,18=5,40=1/2;
 3/5=6,6=3,11=2,16=1,25=1,30=1,71=2,74=-5,75=-5/1,2,3;
 4//1;
 5/5=2,6=9,38=5,98=1/2;
 8/6=4,10=90,11=11/1;
 11/6=1,8=1,9=11,15=111,16=1/1,2,10;
 10/6=1/2;
 6/7=2,8=2,9=2,10=2,18=1,28=1/1,7;
 7/8=1,10=1,25=1/1,2,3,16;
 1/10=4,30=1/3;
 99//99;
 ----------------------------
 trans form Fq Optimisation 1
 ----------------------------
 Symbolic Z-matrix:
 Charge =  0 Multiplicity = 1
 Mo                    0.        0.05694  -0.00038 
 P                     2.44431   0.00129  -0.00008 
 P                    -2.44431   0.00129   0.00008 
 Cl                    3.44799  -1.05006   1.70616 
 Cl                    3.61973   1.90857  -0.00001 
 Cl                    3.44928  -1.05099  -1.70497 
 Cl                   -3.44821  -1.04725   1.7079 
 Cl                   -3.61978   1.90854  -0.00329 
 Cl                   -3.44901  -1.05382  -1.70323 
 C                    -0.00001   2.11687  -0.00551 
 C                    -0.0002    0.06981  -2.06075 
 C                     0.00021   0.07989   2.0599 
 C                    -0.00001  -2.00296   0.00459 
 O                    -0.00005   3.28908  -0.00851 
 O                    -0.00032   0.09404  -3.23317 
 O                     0.00036   0.10983   3.23219 
 O                    -0.00002  -3.17629   0.00737 
 

 GradGradGradGradGradGradGradGradGradGradGradGradGradGradGradGradGradGrad
 Berny optimization.
 Initialization pass.
 Trust Radius=3.00D-01 FncErr=1.00D-07 GrdErr=1.00D-07
 Number of steps in this run=   2 maximum allowed number of steps=   2.
 GradGradGradGradGradGradGradGradGradGradGradGradGradGradGradGradGradGrad

                          Input orientation:                          
 ---------------------------------------------------------------------
 Center     Atomic      Atomic             Coordinates (Angstroms)
 Number     Number       Type             X           Y           Z
 ---------------------------------------------------------------------
      1         42           0        0.000001    0.056938   -0.000381
      2         15           0        2.444312    0.001289   -0.000080
      3         15           0       -2.444309    0.001290    0.000079
      4         17           0        3.447989   -1.050059    1.706158
      5         17           0        3.619726    1.908573   -0.000010
      6         17           0        3.449284   -1.050988   -1.704969
      7         17           0       -3.448206   -1.047250    1.707901
      8         17           0       -3.619775    1.908539   -0.003292
      9         17           0       -3.449007   -1.053818   -1.703227
     10          6           0       -0.000009    2.116870   -0.005509
     11          6           0       -0.000195    0.069813   -2.060752
     12          6           0        0.000208    0.079888    2.059901
     13          6           0       -0.000013   -2.002964    0.004594
     14          8           0       -0.000046    3.289079   -0.008509
     15          8           0       -0.000321    0.094041   -3.233166
     16          8           0        0.000355    0.109834    3.232188
     17          8           0       -0.000018   -3.176287    0.007370
 ---------------------------------------------------------------------
                    Distance matrix (angstroms):
                    1          2          3          4          5
     1  Mo   0.000000
     2  P    2.444944   0.000000
     3  P    2.444943   4.888621   0.000000
     4  Cl   4.003291   2.241417   6.223762   0.000000
     5  Cl   4.065828   2.240386   6.356906   3.419650   0.000000
     6  Cl   4.003832   2.241406   6.224863   3.411127   3.419786
     7  Cl   4.003447   6.224018   2.241406   6.896196   7.849173
     8  Cl   4.065859   6.356946   2.240386   7.850402   7.239502
     9  Cl   4.003638   6.224562   2.241411   7.693665   7.851350
    10  C    2.059938   3.232711   3.232694   4.984770   3.625727
    11  C    2.060411   3.197918   3.197720   5.228164   4.553188
    12  C    2.060410   3.197396   3.197610   3.645423   4.548432
    13  C    2.059908   3.160977   3.160955   3.961321   5.329414
    14  O    3.232151   4.096892   4.096834   5.801478   3.874096
    15  O    3.232998   4.054341   4.054079   6.131617   5.181753
    16  O    3.233002   4.053673   4.053972   3.944655   5.175173
    17  O    3.233234   4.008964   4.008941   4.392662   6.241667
                    6          7          8          9         10
     6  Cl   0.000000
     7  Cl   7.695652   0.000000
     8  Cl   7.850229   3.419694   0.000000
     9  Cl   6.898292   3.411134   3.419722   0.000000
    10  C    4.982079   4.983723   3.625757   4.983081   0.000000
    11  C    3.644404   5.228705   4.551419   3.644815   2.900770
    12  C    5.229651   3.644983   4.550275   5.229102   2.900899
    13  C    3.965667   3.962913   5.329408   3.963974   4.119846
    14  O    5.797589   5.799967   3.874062   5.798979   1.172213
    15  O    3.942874   6.132259   5.179280   3.943568   3.809148
    16  O    6.133363   3.943966   5.177742   6.132740   3.809314
    17  O    4.398487   4.394838   6.241651   4.396196   5.293173
                   11         12         13         14         15
    11  C    0.000000
    12  C    4.120665   0.000000
    13  C    2.926100   2.926185   0.000000
    14  O    3.817771   3.818013   5.292059   0.000000
    15  O    1.172664   5.293086   3.857528   4.539458   0.000000
    16  O    5.293091   1.172669   3.857626   4.539793   6.465373
    17  O    3.848934   3.849098   1.173326   6.465385   4.603924
                   16         17
    16  O    0.000000
    17  O    4.604133   0.000000
 Stoichiometry    C4Cl6MoO4P2
 Framework group  C1[X(C4Cl6MoO4P2)]
 Deg. of freedom    45
 Full point group                 C1      NOp   1
 Largest Abelian subgroup         C1      NOp   1
 Largest concise Abelian subgroup C1      NOp   1
                         Standard orientation:                         
 ---------------------------------------------------------------------
 Center     Atomic      Atomic             Coordinates (Angstroms)
 Number     Number       Type             X           Y           Z
 ---------------------------------------------------------------------
      1         42           0        0.000001    0.056938   -0.000381
      2         15           0        2.444312    0.001289   -0.000080
      3         15           0       -2.444309    0.001290    0.000079
      4         17           0        3.447989   -1.050059    1.706158
      5         17           0        3.619726    1.908573   -0.000010
      6         17           0        3.449284   -1.050988   -1.704969
      7         17           0       -3.448206   -1.047250    1.707901
      8         17           0       -3.619775    1.908539   -0.003292
      9         17           0       -3.449007   -1.053818   -1.703227
     10          6           0       -0.000009    2.116870   -0.005509
     11          6           0       -0.000195    0.069813   -2.060752
     12          6           0        0.000208    0.079888    2.059901
     13          6           0       -0.000013   -2.002964    0.004594
     14          8           0       -0.000046    3.289079   -0.008509
     15          8           0       -0.000321    0.094041   -3.233166
     16          8           0        0.000355    0.109834    3.232188
     17          8           0       -0.000018   -3.176287    0.007370
 ---------------------------------------------------------------------
 Rotational constants (GHZ):      0.2991645      0.1332368      0.1331260
 Standard basis: LANL2DZ (5D, 7F)
 There are   158 symmetry adapted basis functions of A   symmetry.
 Integral buffers will be    131072 words long.
 Raffenetti 2 integral format.
 Two-electron integral symmetry is turned on.
   158 basis functions,   345 primitive gaussians,   160 cartesian basis functions
    61 alpha electrons       61 beta electrons
       nuclear repulsion energy       996.0024957664 Hartrees.
 NAtoms=   17 NActive=   17 NUniq=   17 SFac= 7.50D-01 NAtFMM=   80 NAOKFM=F Big=F
 One-electron integrals computed using PRISM.
   1 Symmetry operations used in ECPInt.
 ECPInt:  NShTT=    3240 NPrTT=   17458 LenC2=    3160 LenP2D=   12245.
 LDataN:  DoStor=T MaxTD1= 5 Len=  102
 NBasis=   158 RedAO= T  NBF=   158
 NBsUse=   158 1.00D-06 NBFU=   158
 Defaulting to unpruned grid for atomic number  42.
 Harris functional with IExCor=  402 diagonalized for initial guess.
 ExpMin= 2.47D-02 ExpMax= 7.82D+03 ExpMxC= 2.73D+02 IAcc=3 IRadAn=         5 AccDes= 0.00D+00
 HarFok:  IExCor=  402 AccDes= 0.00D+00 IRadAn=         5 IDoV= 1
 ScaDFX=  1.000000  1.000000  1.000000  1.000000
 Defaulting to unpruned grid for atomic number  42.
 Defaulting to unpruned grid for atomic number  42.
 Defaulting to unpruned grid for atomic number  42.
 Defaulting to unpruned grid for atomic number  42.
 FoFCou: FMM=F IPFlag=           0 FMFlag=      100000 FMFlg1=           0
         NFxFlg=           0 DoJE=T BraDBF=F KetDBF=T FulRan=T
         Omega=  0.000000  0.000000  1.000000  0.000000  0.000000 ICntrl=     500 IOpCl=  0
         NMat0=    1 NMatS0=    1 NMatT0=    0 NMatD0=    1 NMtDS0=    0 NMtDT0=    0
         I1Cent=           4 NGrid=           0.
 Petite list used in FoFCou.
 Initial guess orbital symmetries:
       Occupied  (A) (A) (A) (A) (A) (A) (A) (A) (A) (A) (A) (A)
                 (A) (A) (A) (A) (A) (A) (A) (A) (A) (A) (A) (A)
                 (A) (A) (A) (A) (A) (A) (A) (A) (A) (A) (A) (A)
                 (A) (A) (A) (A) (A) (A) (A) (A) (A) (A) (A) (A)
                 (A) (A) (A) (A) (A) (A) (A) (A) (A) (A) (A) (A)
                 (A)
       Virtual   (A) (A) (A) (A) (A) (A) (A) (A) (A) (A) (A) (A)
                 (A) (A) (A) (A) (A) (A) (A) (A) (A) (A) (A) (A)
                 (A) (A) (A) (A) (A) (A) (A) (A) (A) (A) (A) (A)
                 (A) (A) (A) (A) (A) (A) (A) (A) (A) (A) (A) (A)
                 (A) (A) (A) (A) (A) (A) (A) (A) (A) (A) (A) (A)
                 (A) (A) (A) (A) (A) (A) (A) (A) (A) (A) (A) (A)
                 (A) (A) (A) (A) (A) (A) (A) (A) (A) (A) (A) (A)
                 (A) (A) (A) (A) (A) (A) (A) (A) (A) (A) (A) (A)
                 (A)
 The electronic state of the initial guess is 1-A.
 Requested convergence on RMS density matrix=1.00D-09 within 128 cycles.
 Requested convergence on MAX density matrix=1.00D-07.
 Requested convergence on             energy=1.00D-07.
 No special actions if energy rises.
 Keep R1 ints in memory in canonical form, NReq=85557634.
 Defaulting to unpruned grid for atomic number  42.
 Defaulting to unpruned grid for atomic number  42.
 Defaulting to unpruned grid for atomic number  42.
 Defaulting to unpruned grid for atomic number  42.
 EnCoef did   100 forward-backward iterations
 EnCoef did     4 forward-backward iterations
 SCF Done:  E(RB3LYP) =  -623.576031126     A.U. after   19 cycles
             Convg  =    0.5679D-09             -V/T =  2.2190
 Range of M.O.s used for correlation:     1   158
 NBasis=   158 NAE=    61 NBE=    61 NFC=     0 NFV=     0
 NROrb=    158 NOA=    61 NOB=    61 NVA=    97 NVB=    97
   1 Symmetry operations used in ECPInt.
 ECPInt:  NShTT=    3240 NPrTT=   17458 LenC2=    3160 LenP2D=   12245.
 LDataN:  DoStor=T MaxTD1= 6 Len=  172
 Symmetrizing basis deriv contribution to polar:
 IMax=3 JMax=2 DiffMx= 0.00D+00
 G2DrvN: will do    18 centers at a time, making    1 passes doing MaxLOS=2.
 Calling FoFCou, ICntrl=  3107 FMM=F I1Cent=   0 AccDes= 0.00D+00.
 Defaulting to unpruned grid for atomic number  42.
 Defaulting to unpruned grid for atomic number  42.
 Defaulting to unpruned grid for atomic number  42.
 Defaulting to unpruned grid for atomic number  42.
 FoFDir/FoFCou used for L=0 through L=2.
 End of G2Drv Frequency-dependent properties file   721 does not exist.
 End of G2Drv Frequency-dependent properties file   722 does not exist.
          IDoAtm=11111111111111111
          Differentiating once with respect to electric field.
                with respect to dipole field.
          Differentiating once with respect to nuclear coordinates.
 Defaulting to unpruned grid for atomic number  42.
          Keep R1 ints in memory in canonical form, NReq=83780313.
 Defaulting to unpruned grid for atomic number  42.
 Defaulting to unpruned grid for atomic number  42.
 Defaulting to unpruned grid for atomic number  42.
 Defaulting to unpruned grid for atomic number  42.
          There are    54 degrees of freedom in the 1st order CPHF.  IDoFFX=5.
     51 vectors produced by pass  0 Test12= 1.10D-14 1.85D-09 XBig12= 6.22D+02 1.47D+01.
 AX will form    51 AO Fock derivatives at one time.
     51 vectors produced by pass  1 Test12= 1.10D-14 1.85D-09 XBig12= 8.56D+01 1.49D+00.
     51 vectors produced by pass  2 Test12= 1.10D-14 1.85D-09 XBig12= 9.37D-01 2.41D-01.
     51 vectors produced by pass  3 Test12= 1.10D-14 1.85D-09 XBig12= 9.85D-03 1.95D-02.
     51 vectors produced by pass  4 Test12= 1.10D-14 1.85D-09 XBig12= 3.58D-05 1.47D-03.
     51 vectors produced by pass  5 Test12= 1.10D-14 1.85D-09 XBig12= 5.32D-08 5.02D-05.
     25 vectors produced by pass  6 Test12= 1.10D-14 1.85D-09 XBig12= 7.18D-11 1.65D-06.
      7 vectors produced by pass  7 Test12= 1.10D-14 1.85D-09 XBig12= 1.57D-13 7.93D-08.
      2 vectors produced by pass  8 Test12= 1.10D-14 1.85D-09 XBig12= 2.49D-16 2.82D-09.
 Inverted reduced A of dimension   340 with in-core refinement.
 Isotropic polarizability for W=    0.000000      240.73 Bohr**3.
 End of Minotr Frequency-dependent properties file   721 does not exist.
 End of Minotr Frequency-dependent properties file   722 does not exist.

 **********************************************************************

            Population analysis using the SCF density.

 **********************************************************************

 Orbital symmetries:
       Occupied  (A) (A) (A) (A) (A) (A) (A) (A) (A) (A) (A) (A)
                 (A) (A) (A) (A) (A) (A) (A) (A) (A) (A) (A) (A)
                 (A) (A) (A) (A) (A) (A) (A) (A) (A) (A) (A) (A)
                 (A) (A) (A) (A) (A) (A) (A) (A) (A) (A) (A) (A)
                 (A) (A) (A) (A) (A) (A) (A) (A) (A) (A) (A) (A)
                 (A)
       Virtual   (A) (A) (A) (A) (A) (A) (A) (A) (A) (A) (A) (A)
                 (A) (A) (A) (A) (A) (A) (A) (A) (A) (A) (A) (A)
                 (A) (A) (A) (A) (A) (A) (A) (A) (A) (A) (A) (A)
                 (A) (A) (A) (A) (A) (A) (A) (A) (A) (A) (A) (A)
                 (A) (A) (A) (A) (A) (A) (A) (A) (A) (A) (A) (A)
                 (A) (A) (A) (A) (A) (A) (A) (A) (A) (A) (A) (A)
                 (A) (A) (A) (A) (A) (A) (A) (A) (A) (A) (A) (A)
                 (A) (A) (A) (A) (A) (A) (A) (A) (A) (A) (A) (A)
                 (A)
 The electronic state is 1-A.
 Alpha  occ. eigenvalues --  -19.28397 -19.28306 -19.28305 -19.28278 -10.37113
 Alpha  occ. eigenvalues --  -10.37089 -10.37072 -10.37071  -2.53008  -1.55947
 Alpha  occ. eigenvalues --   -1.55486  -1.55466  -1.20137  -1.20051  -1.19991
 Alpha  occ. eigenvalues --   -1.19973  -0.90487  -0.90413  -0.85127  -0.85125
 Alpha  occ. eigenvalues --   -0.85063  -0.85062  -0.67899  -0.66681  -0.62324
 Alpha  occ. eigenvalues --   -0.60728  -0.59712  -0.59683  -0.52215  -0.51370
 Alpha  occ. eigenvalues --   -0.50928  -0.50727  -0.50695  -0.50441  -0.50127
 Alpha  occ. eigenvalues --   -0.50111  -0.49714  -0.49043  -0.47153  -0.47104
 Alpha  occ. eigenvalues --   -0.46717  -0.46513  -0.46468  -0.44295  -0.44274
 Alpha  occ. eigenvalues --   -0.43795  -0.37768  -0.37754  -0.37749  -0.37742
 Alpha  occ. eigenvalues --   -0.36849  -0.35889  -0.35847  -0.35844  -0.35794
 Alpha  occ. eigenvalues --   -0.35265  -0.35259  -0.35087  -0.29545  -0.29487
 Alpha  occ. eigenvalues --   -0.29419
 Alpha virt. eigenvalues --   -0.18306  -0.16607  -0.14272  -0.14197  -0.10851
 Alpha virt. eigenvalues --   -0.10630  -0.10065  -0.10029  -0.09851  -0.08857
 Alpha virt. eigenvalues --   -0.05058  -0.03729  -0.03699  -0.02650  -0.01552
 Alpha virt. eigenvalues --    0.00914   0.01919   0.01938   0.02444   0.04423
 Alpha virt. eigenvalues --    0.19278   0.21688   0.21823   0.22081   0.22380
 Alpha virt. eigenvalues --    0.26682   0.27161   0.29709   0.29757   0.30810
 Alpha virt. eigenvalues --    0.31685   0.32353   0.34949   0.34997   0.37039
 Alpha virt. eigenvalues --    0.42288   0.43771   0.43855   0.45962   0.46557
 Alpha virt. eigenvalues --    0.49122   0.50131   0.52817   0.53589   0.54353
 Alpha virt. eigenvalues --    0.56081   0.56099   0.56866   0.62378   0.62955
 Alpha virt. eigenvalues --    0.64069   0.64105   0.65721   0.66252   0.66305
 Alpha virt. eigenvalues --    0.66336   0.66766   0.67494   0.68162   0.68892
 Alpha virt. eigenvalues --    0.71656   0.72027   0.72226   0.72358   0.72457
 Alpha virt. eigenvalues --    0.73576   0.76087   0.76405   0.77716   0.78498
 Alpha virt. eigenvalues --    0.78753   0.79063   0.79700   0.80232   0.82240
 Alpha virt. eigenvalues --    0.82787   0.86431   0.89052   0.89336   0.91805
 Alpha virt. eigenvalues --    0.92694   1.16135   1.20549   1.20924   1.66934
 Alpha virt. eigenvalues --    1.74720   1.74880   1.76676   6.01879   6.17135
 Alpha virt. eigenvalues --    6.27248   6.56735   6.78073   7.88006  12.42745
 Alpha virt. eigenvalues --   15.96759  17.25092
          Condensed to atoms (all electrons):
              1          2          3          4          5          6
     1  Mo  14.315750  -0.009363  -0.009362  -0.057845  -0.052776  -0.057804
     2  P   -0.009363   4.253893  -0.004781   0.162527   0.167371   0.162569
     3  P   -0.009362  -0.004781   4.253895   0.000047   0.000031   0.000047
     4  Cl  -0.057845   0.162527   0.000047   7.078828  -0.033753  -0.034079
     5  Cl  -0.052776   0.167371   0.000031  -0.033753   7.064095  -0.033745
     6  Cl  -0.057804   0.162569   0.000047  -0.034079  -0.033745   7.078703
     7  Cl  -0.057834   0.000047   0.162543   0.000000   0.000000   0.000000
     8  Cl  -0.052775   0.000031   0.167373   0.000000   0.000000   0.000000
     9  Cl  -0.057818   0.000047   0.162552   0.000000   0.000000   0.000000
    10  C   -0.055492  -0.003913  -0.003913   0.000319   0.002669   0.000322
    11  C   -0.017658  -0.005999  -0.006018   0.000135   0.000676   0.002290
    12  C   -0.017393  -0.006039  -0.006021   0.002290   0.000682   0.000133
    13  C    0.008420  -0.008913  -0.008915   0.001932   0.000066   0.001923
    14  O    0.010145  -0.001186  -0.001186   0.000000  -0.000014   0.000000
    15  O    0.009870  -0.001146  -0.001145   0.000000   0.000006   0.000027
    16  O    0.009872  -0.001145  -0.001145   0.000028   0.000007   0.000000
    17  O    0.010362  -0.001146  -0.001146   0.000059   0.000000   0.000059
              7          8          9         10         11         12
     1  Mo  -0.057834  -0.052775  -0.057818  -0.055492  -0.017658  -0.017393
     2  P    0.000047   0.000031   0.000047  -0.003913  -0.005999  -0.006039
     3  P    0.162543   0.167373   0.162552  -0.003913  -0.006018  -0.006021
     4  Cl   0.000000   0.000000   0.000000   0.000319   0.000135   0.002290
     5  Cl   0.000000   0.000000   0.000000   0.002669   0.000676   0.000682
     6  Cl   0.000000   0.000000   0.000000   0.000322   0.002290   0.000133
     7  Cl   7.078784  -0.033751  -0.034078   0.000320   0.000134   0.002289
     8  Cl  -0.033751   7.064092  -0.033749   0.002669   0.000678   0.000680
     9  Cl  -0.034078  -0.033749   7.078753   0.000320   0.002291   0.000134
    10  C    0.000320   0.002669   0.000320   5.382129   0.007427   0.007447
    11  C    0.000134   0.000678   0.002291   0.007427   5.330490  -0.012643
    12  C    0.002289   0.000680   0.000134   0.007447  -0.012643   5.330112
    13  C    0.001930   0.000066   0.001926  -0.012339   0.011869   0.011886
    14  O    0.000000  -0.000014   0.000000   0.597783  -0.000548  -0.000546
    15  O    0.000000   0.000006   0.000028  -0.000639   0.596404   0.000029
    16  O    0.000028   0.000007   0.000000  -0.000639   0.000029   0.596390
    17  O    0.000059   0.000000   0.000059   0.000029  -0.000356  -0.000355
             13         14         15         16         17
     1  Mo   0.008420   0.010145   0.009870   0.009872   0.010362
     2  P   -0.008913  -0.001186  -0.001146  -0.001145  -0.001146
     3  P   -0.008915  -0.001186  -0.001145  -0.001145  -0.001146
     4  Cl   0.001932   0.000000   0.000000   0.000028   0.000059
     5  Cl   0.000066  -0.000014   0.000006   0.000007   0.000000
     6  Cl   0.001923   0.000000   0.000027   0.000000   0.000059
     7  Cl   0.001930   0.000000   0.000000   0.000028   0.000059
     8  Cl   0.000066  -0.000014   0.000006   0.000007   0.000000
     9  Cl   0.001926   0.000000   0.000028   0.000000   0.000059
    10  C   -0.012339   0.597783  -0.000639  -0.000639   0.000029
    11  C    0.011869  -0.000548   0.596404   0.000029  -0.000356
    12  C    0.011886  -0.000546   0.000029   0.596390  -0.000355
    13  C    5.289701   0.000028  -0.000245  -0.000245   0.594665
    14  O    0.000028   7.473185   0.000042   0.000042   0.000000
    15  O   -0.000245   0.000042   7.478386   0.000000   0.000030
    16  O   -0.000245   0.000042   0.000000   7.478429   0.000030
    17  O    0.594665   0.000000   0.000030   0.000030   7.483543
 Mulliken atomic charges:
              1
     1  Mo   0.081700
     2  P    0.297144
     3  P    0.297143
     4  Cl  -0.120489
     5  Cl  -0.115315
     6  Cl  -0.120444
     7  Cl  -0.120471
     8  Cl  -0.115313
     9  Cl  -0.120463
    10  C    0.075500
    11  C    0.090798
    12  C    0.090924
    13  C    0.106244
    14  O   -0.077729
    15  O   -0.081652
    16  O   -0.081686
    17  O   -0.085890
 Sum of Mulliken atomic charges =   0.00000
 Mulliken charges with hydrogens summed into heavy atoms:
              1
     1  Mo   0.081700
     2  P    0.297144
     3  P    0.297143
     4  Cl  -0.120489
     5  Cl  -0.115315
     6  Cl  -0.120444
     7  Cl  -0.120471
     8  Cl  -0.115313
     9  Cl  -0.120463
    10  C    0.075500
    11  C    0.090798
    12  C    0.090924
    13  C    0.106244
    14  O   -0.077729
    15  O   -0.081652
    16  O   -0.081686
    17  O   -0.085890
 Sum of Mulliken charges with hydrogens summed into heavy atoms =   0.00000
 APT atomic charges:
              1
     1  Mo  -2.622723
     2  P    1.963817
     3  P    1.963817
     4  Cl  -0.486304
     5  Cl  -0.499453
     6  Cl  -0.486407
     7  Cl  -0.486325
     8  Cl  -0.499454
     9  Cl  -0.486385
    10  C    1.134443
    11  C    1.134310
    12  C    1.134316
    13  C    1.136345
    14  O   -0.721492
    15  O   -0.725044
    16  O   -0.725075
    17  O   -0.728385
 Sum of APT charges=   0.00000
 APT Atomic charges with hydrogens summed into heavy atoms:
              1
     1  Mo  -2.622723
     2  P    1.963817
     3  P    1.963817
     4  Cl  -0.486304
     5  Cl  -0.499453
     6  Cl  -0.486407
     7  Cl  -0.486325
     8  Cl  -0.499454
     9  Cl  -0.486385
    10  C    1.134443
    11  C    1.134310
    12  C    1.134316
    13  C    1.136345
    14  O   -0.721492
    15  O   -0.725044
    16  O   -0.725075
    17  O   -0.728385
 Sum of APT charges=   0.00000
 Electronic spatial extent (au):  <R**2>=           4591.3375
 Charge=              0.0000 electrons
 Dipole moment (field-independent basis, Debye):
    X=              0.0000    Y=              0.3043    Z=             -0.0019  Tot=              0.3043
 Quadrupole moment (field-independent basis, Debye-Ang):
   XX=           -179.6822   YY=           -173.1394   ZZ=           -173.2919
   XY=              0.0000   XZ=             -0.0015   YZ=              0.0003
 Traceless Quadrupole moment (field-independent basis, Debye-Ang):
   XX=             -4.3110   YY=              2.2318   ZZ=              2.0793
   XY=              0.0000   XZ=             -0.0015   YZ=              0.0003
 Octapole moment (field-independent basis, Debye-Ang**2):
  XXX=             -0.0004  YYY=             -1.3346  ZZZ=             -0.0092  XYY=              0.0004
  XXY=              1.8957  XXZ=             -0.0108  XZZ=             -0.0003  YZZ=              1.9939
  YYZ=              0.0049  XYZ=              0.0011
 Hexadecapole moment (field-independent basis, Debye-Ang**3):
 XXXX=          -6733.7472 YYYY=          -2111.3430 ZZZZ=          -2105.2649 XXXY=             -0.0011
 XXXZ=              0.0003 YYYX=              0.0006 YYYZ=              0.4881 ZZZX=             -0.0143
 ZZZY=             -0.4846 XXYY=          -1428.1697 XXZZ=          -1430.2624 YYZZ=           -636.6095
 XXYZ=              0.0032 YYXZ=             -0.0013 ZZXY=             -0.0004
 N-N= 9.960024957664D+02 E-N=-3.394770567564D+03  KE= 5.115342724169D+02
  Exact polarizability: 297.762  -0.001 212.832   0.005   0.002 211.601
 Approx polarizability: 478.104  -0.002 484.369   0.024   0.000 482.282
 ******************************Gaussian NBO Version 3.1******************************
             N A T U R A L   A T O M I C   O R B I T A L   A N D
          N A T U R A L   B O N D   O R B I T A L   A N A L Y S I S
 ******************************Gaussian NBO Version 3.1******************************
       /RESON  / : Allow strongly delocalized NBO set

 Analyzing the SCF density

 Job title: trans form Fq Optimisation 1                                    

 Storage needed:     75934 in NPA,    100641 in NBO ( 917502317 available)


 NATURAL POPULATIONS:  Natural atomic orbital occupancies 
                                                          
   NAO  Atom  No  lang   Type(AO)    Occupancy      Energy
 ----------------------------------------------------------
     1   Mo    1  S      Cor( 4S)     1.97848      -2.39145
     2   Mo    1  S      Val( 5S)     0.39644       0.60895
     3   Mo    1  S      Ryd( 6S)     0.00299       8.96287
     4   Mo    1  px     Cor( 4p)     1.98582      -1.51965
     5   Mo    1  px     Val( 6p)     0.30357       0.54443
     6   Mo    1  px     Ryd( 5p)     0.00304       0.32215
     7   Mo    1  py     Cor( 4p)     1.99166      -1.50743
     8   Mo    1  py     Val( 5p)     0.37138       0.12393
     9   Mo    1  py     Ryd( 6p)     0.00141       0.13643
    10   Mo    1  pz     Cor( 4p)     1.99163      -1.50727
    11   Mo    1  pz     Val( 5p)     0.37139       0.12263
    12   Mo    1  pz     Ryd( 6p)     0.00140       0.13763
    13   Mo    1  dxy    Val( 4d)     1.55242      -0.25036
    14   Mo    1  dxy    Ryd( 5d)     0.00209       0.46449
    15   Mo    1  dxz    Val( 4d)     1.55529      -0.25032
    16   Mo    1  dxz    Ryd( 5d)     0.00219       0.45777
    17   Mo    1  dyz    Val( 4d)     1.51479      -0.22982
    18   Mo    1  dyz    Ryd( 5d)     0.00364       0.50781
    19   Mo    1  dx2y2  Val( 4d)     1.08773      -0.26159
    20   Mo    1  dx2y2  Ryd( 5d)     0.00869       1.07102
    21   Mo    1  dz2    Val( 4d)     1.09030      -0.26677
    22   Mo    1  dz2    Ryd( 5d)     0.00582       0.75432

    23    P    2  S      Val( 3S)     1.48776      -0.48274
    24    P    2  S      Ryd( 4S)     0.00106      12.34737
    25    P    2  px     Val( 3p)     0.98096      -0.22875
    26    P    2  px     Ryd( 4p)     0.00970       0.65402
    27    P    2  py     Val( 3p)     0.77723      -0.26596
    28    P    2  py     Ryd( 4p)     0.00892       0.68385
    29    P    2  pz     Val( 3p)     0.77603      -0.26604
    30    P    2  pz     Ryd( 4p)     0.00885       0.66785

    31    P    3  S      Val( 3S)     1.48776      -0.48274
    32    P    3  S      Ryd( 4S)     0.00106      12.34737
    33    P    3  px     Val( 3p)     0.98096      -0.22875
    34    P    3  px     Ryd( 4p)     0.00970       0.65403
    35    P    3  py     Val( 3p)     0.77723      -0.26596
    36    P    3  py     Ryd( 4p)     0.00892       0.68385
    37    P    3  pz     Val( 3p)     0.77603      -0.26604
    38    P    3  pz     Ryd( 4p)     0.00885       0.66785

    39   Cl    4  S      Val( 3S)     1.93405      -0.79416
    40   Cl    4  S      Ryd( 4S)     0.00027       6.87648
    41   Cl    4  px     Val( 3p)     1.85308      -0.35909
    42   Cl    4  px     Ryd( 4p)     0.00036       0.86913
    43   Cl    4  py     Val( 3p)     1.80675      -0.35922
    44   Cl    4  py     Ryd( 4p)     0.00025       0.80452
    45   Cl    4  pz     Val( 3p)     1.59258      -0.35435
    46   Cl    4  pz     Ryd( 4p)     0.00049       0.90551

    47   Cl    5  S      Val( 3S)     1.93334      -0.79451
    48   Cl    5  S      Ryd( 4S)     0.00024       7.00822
    49   Cl    5  px     Val( 3p)     1.80913      -0.35819
    50   Cl    5  px     Ryd( 4p)     0.00035       0.95426
    51   Cl    5  py     Val( 3p)     1.50348      -0.35327
    52   Cl    5  py     Ryd( 4p)     0.00055       0.93011
    53   Cl    5  pz     Val( 3p)     1.93720      -0.36292
    54   Cl    5  pz     Ryd( 4p)     0.00011       0.71460

    55   Cl    6  S      Val( 3S)     1.93404      -0.79416
    56   Cl    6  S      Ryd( 4S)     0.00027       6.87816
    57   Cl    6  px     Val( 3p)     1.85278      -0.35908
    58   Cl    6  px     Ryd( 4p)     0.00036       0.86981
    59   Cl    6  py     Val( 3p)     1.80650      -0.35922
    60   Cl    6  py     Ryd( 4p)     0.00025       0.80468
    61   Cl    6  pz     Val( 3p)     1.59310      -0.35437
    62   Cl    6  pz     Ryd( 4p)     0.00049       0.90490

    63   Cl    7  S      Val( 3S)     1.93404      -0.79416
    64   Cl    7  S      Ryd( 4S)     0.00027       6.87716
    65   Cl    7  px     Val( 3p)     1.85303      -0.35909
    66   Cl    7  px     Ryd( 4p)     0.00036       0.86936
    67   Cl    7  py     Val( 3p)     1.80744      -0.35924
    68   Cl    7  py     Ryd( 4p)     0.00025       0.80413
    69   Cl    7  pz     Val( 3p)     1.59193      -0.35434
    70   Cl    7  pz     Ryd( 4p)     0.00049       0.90578

    71   Cl    8  S      Val( 3S)     1.93334      -0.79451
    72   Cl    8  S      Ryd( 4S)     0.00024       7.00818
    73   Cl    8  px     Val( 3p)     1.80911      -0.35819
    74   Cl    8  px     Ryd( 4p)     0.00035       0.95426
    75   Cl    8  py     Val( 3p)     1.50350      -0.35327
    76   Cl    8  py     Ryd( 4p)     0.00055       0.93009
    77   Cl    8  pz     Val( 3p)     1.93720      -0.36292
    78   Cl    8  pz     Ryd( 4p)     0.00011       0.71460

    79   Cl    9  S      Val( 3S)     1.93404      -0.79416
    80   Cl    9  S      Ryd( 4S)     0.00027       6.87752
    81   Cl    9  px     Val( 3p)     1.85285      -0.35908
    82   Cl    9  px     Ryd( 4p)     0.00036       0.86958
    83   Cl    9  py     Val( 3p)     1.80580      -0.35920
    84   Cl    9  py     Ryd( 4p)     0.00025       0.80507
    85   Cl    9  pz     Val( 3p)     1.59374      -0.35438
    86   Cl    9  pz     Ryd( 4p)     0.00049       0.90465

    87    C   10  S      Cor( 1S)     1.99907     -10.23134
    88    C   10  S      Val( 2S)     1.15235      -0.37576
    89    C   10  S      Ryd( 3S)     0.02656       1.16913
    90    C   10  px     Val( 2p)     0.61720      -0.17652
    91    C   10  px     Ryd( 3p)     0.00572       0.40935
    92    C   10  py     Val( 2p)     0.80346      -0.04495
    93    C   10  py     Ryd( 3p)     0.01961       0.71923
    94    C   10  pz     Val( 2p)     0.61126      -0.17372
    95    C   10  pz     Ryd( 3p)     0.00392       0.35255

    96    C   11  S      Cor( 1S)     1.99907     -10.23110
    97    C   11  S      Val( 2S)     1.15178      -0.37522
    98    C   11  S      Ryd( 3S)     0.02645       1.15847
    99    C   11  px     Val( 2p)     0.62088      -0.17666
   100    C   11  px     Ryd( 3p)     0.00531       0.42594
   101    C   11  py     Val( 2p)     0.61209      -0.17350
   102    C   11  py     Ryd( 3p)     0.00401       0.35158
   103    C   11  pz     Val( 2p)     0.80253      -0.04519
   104    C   11  pz     Ryd( 3p)     0.01977       0.71573

   105    C   12  S      Cor( 1S)     1.99907     -10.23110
   106    C   12  S      Val( 2S)     1.15177      -0.37522
   107    C   12  S      Ryd( 3S)     0.02645       1.15840
   108    C   12  px     Val( 2p)     0.62091      -0.17666
   109    C   12  px     Ryd( 3p)     0.00531       0.42611
   110    C   12  py     Val( 2p)     0.61213      -0.17347
   111    C   12  py     Ryd( 3p)     0.00401       0.35154
   112    C   12  pz     Val( 2p)     0.80249      -0.04522
   113    C   12  pz     Ryd( 3p)     0.01977       0.71573

   114    C   13  S      Cor( 1S)     1.99907     -10.23146
   115    C   13  S      Val( 2S)     1.15041      -0.37492
   116    C   13  S      Ryd( 3S)     0.02648       1.15371
   117    C   13  px     Val( 2p)     0.62423      -0.17710
   118    C   13  px     Ryd( 3p)     0.00493       0.45004
   119    C   13  py     Val( 2p)     0.80189      -0.04610
   120    C   13  py     Ryd( 3p)     0.01977       0.71803
   121    C   13  pz     Val( 2p)     0.61287      -0.17386
   122    C   13  pz     Ryd( 3p)     0.00409       0.34694

   123    O   14  S      Cor( 1S)     1.99983     -19.03004
   124    O   14  S      Val( 2S)     1.72406      -1.03691
   125    O   14  S      Ryd( 3S)     0.00196       1.96067
   126    O   14  px     Val( 2p)     1.50539      -0.37495
   127    O   14  px     Ryd( 3p)     0.00064       0.77528
   128    O   14  py     Val( 2p)     1.64815      -0.45875
   129    O   14  py     Ryd( 3p)     0.00102       0.67005
   130    O   14  pz     Val( 2p)     1.51396      -0.37557
   131    O   14  pz     Ryd( 3p)     0.00062       0.77158

   132    O   15  S      Cor( 1S)     1.99983     -19.02907
   133    O   15  S      Val( 2S)     1.72380      -1.03621
   134    O   15  S      Ryd( 3S)     0.00196       1.96721
   135    O   15  px     Val( 2p)     1.50837      -0.37435
   136    O   15  px     Ryd( 3p)     0.00067       0.78310
   137    O   15  py     Val( 2p)     1.51306      -0.37475
   138    O   15  py     Ryd( 3p)     0.00060       0.77126
   139    O   15  pz     Val( 2p)     1.64819      -0.45818
   140    O   15  pz     Ryd( 3p)     0.00101       0.66939

   141    O   16  S      Cor( 1S)     1.99983     -19.02907
   142    O   16  S      Val( 2S)     1.72380      -1.03620
   143    O   16  S      Ryd( 3S)     0.00196       1.96728
   144    O   16  px     Val( 2p)     1.50840      -0.37434
   145    O   16  px     Ryd( 3p)     0.00068       0.78317
   146    O   16  py     Val( 2p)     1.51308      -0.37477
   147    O   16  py     Ryd( 3p)     0.00060       0.77119
   148    O   16  pz     Val( 2p)     1.64816      -0.45815
   149    O   16  pz     Ryd( 3p)     0.00101       0.66944

   150    O   17  S      Cor( 1S)     1.99983     -19.02914
   151    O   17  S      Val( 2S)     1.72390      -1.03596
   152    O   17  S      Ryd( 3S)     0.00196       1.97803
   153    O   17  px     Val( 2p)     1.51161      -0.37441
   154    O   17  px     Ryd( 3p)     0.00066       0.79241
   155    O   17  py     Val( 2p)     1.64731      -0.45762
   156    O   17  py     Ryd( 3p)     0.00100       0.66853
   157    O   17  pz     Val( 2p)     1.51261      -0.37453
   158    O   17  pz     Ryd( 3p)     0.00057       0.76835

 [108 electrons found in the effective core potential]

 WARNING:  4 low occupancy (<1.9990e) core orbitals found on Mo    1

 WARNING:  Population inversion found on atom Mo    1


 Summary of Natural Population Analysis:                  
                                                          
                                       Natural Population 
                Natural  -----------------------------------------------
    Atom  No    Charge         Core      Valence    Rydberg      Total
 -----------------------------------------------------------------------
     Mo    1   -2.22216     35.94759     8.24330    0.03127    44.22216
      P    2    0.94948     10.00000     4.02199    0.02853    14.05052
      P    3    0.94948     10.00000     4.02199    0.02853    14.05052
     Cl    4   -0.18783     10.00000     7.18645    0.00138    17.18783
     Cl    5   -0.18440     10.00000     7.18315    0.00125    17.18440
     Cl    6   -0.18779     10.00000     7.18642    0.00137    17.18779
     Cl    7   -0.18781     10.00000     7.18644    0.00138    17.18781
     Cl    8   -0.18440     10.00000     7.18315    0.00125    17.18440
     Cl    9   -0.18781     10.00000     7.18643    0.00138    17.18781
      C   10    0.76085      1.99907     3.18427    0.05580     5.23915
      C   11    0.75811      1.99907     3.18728    0.05554     5.24189
      C   12    0.75809      1.99907     3.18730    0.05554     5.24191
      C   13    0.75624      1.99907     3.18941    0.05528     5.24376
      O   14   -0.39563      1.99983     6.39156    0.00424     8.39563
      O   15   -0.39748      1.99983     6.39341    0.00424     8.39748
      O   16   -0.39749      1.99983     6.39343    0.00424     8.39749
      O   17   -0.39945      1.99983     6.39544    0.00419     8.39945
 =======================================================================
   * Total *    0.00000    131.94319    97.72140    0.33541   230.00000

                                 Natural Population      
 --------------------------------------------------------
   Effective Core           108.00000
   Core                      23.94319 ( 99.7633% of  24)
   Valence                   97.72140 ( 99.7157% of  98)
   Natural Minimal Basis    229.66459 ( 99.8542% of 230)
   Natural Rydberg Basis      0.33541 (  0.1458% of 230)
 --------------------------------------------------------

    Atom  No          Natural Electron Configuration
 ----------------------------------------------------------------------------
     Mo    1      [core]5S( 0.40)4d( 6.80)5p( 0.75)5d( 0.02)6p( 0.31)
      P    2      [core]3S( 1.49)3p( 2.53)4p( 0.03)
      P    3      [core]3S( 1.49)3p( 2.53)4p( 0.03)
     Cl    4      [core]3S( 1.93)3p( 5.25)
     Cl    5      [core]3S( 1.93)3p( 5.25)
     Cl    6      [core]3S( 1.93)3p( 5.25)
     Cl    7      [core]3S( 1.93)3p( 5.25)
     Cl    8      [core]3S( 1.93)3p( 5.25)
     Cl    9      [core]3S( 1.93)3p( 5.25)
      C   10      [core]2S( 1.15)2p( 2.03)3S( 0.03)3p( 0.03)
      C   11      [core]2S( 1.15)2p( 2.04)3S( 0.03)3p( 0.03)
      C   12      [core]2S( 1.15)2p( 2.04)3S( 0.03)3p( 0.03)
      C   13      [core]2S( 1.15)2p( 2.04)3S( 0.03)3p( 0.03)
      O   14      [core]2S( 1.72)2p( 4.67)
      O   15      [core]2S( 1.72)2p( 4.67)
      O   16      [core]2S( 1.72)2p( 4.67)
      O   17      [core]2S( 1.72)2p( 4.67)


 NATURAL BOND ORBITAL ANALYSIS:

                       Occupancies       Lewis Structure    Low   High
           Occ.    -------------------  -----------------   occ   occ
  Cycle   Thresh.   Lewis   Non-Lewis     CR  BD  3C  LP    (L)   (NL)   Dev
 =============================================================================
   1(1)    1.90   226.90167   3.09833     12  24   0  25     5     16    0.09
   2(2)    1.90   226.90167   3.09833     12  24   0  25     5     16    0.09
   3(1)    1.80   226.90167   3.09833     12  24   0  25     3     16    0.09
   4(2)    1.80   226.90167   3.09833     12  24   0  25     3     16    0.09
   5(1)    1.70   226.22625   3.77375     12  24   0  25     3     16    0.21
   6(2)    1.70   226.22619   3.77381     12  24   0  25     4     16    0.21
   7(1)    1.60   225.88438   4.11562     12  24   0  25     3     16    1.20
   8(2)    1.60   225.89563   4.10437     12  25   0  24     2     17    1.21
   9(3)    1.60   225.89558   4.10442     12  25   0  24     2     17    1.21
  10(4)    1.60   226.27478   3.72522     12  26   0  23     1     18    0.09
  11(5)    1.60   225.88372   4.11628     12  24   0  25     3     16    1.21
  12(6)    1.60   225.88379   4.11621     12  24   0  25     3     16    1.21
  13(7)    1.60   225.90511   4.09489     12  25   0  24     2     17    1.20
  14(8)    1.60   225.88903   4.11097     12  25   0  24     2     17    1.21
  15(9)    1.60   226.27478   3.72522     12  26   0  23     1     18    0.09
  16(1)    1.50   222.23525   7.76475     12  14   0  35     0     20    1.21
  17(2)    1.50   222.23525   7.76475     12  14   0  35     0     20    1.21
  18(1)    1.90   226.90167   3.09833     12  24   0  25     5     16    0.09
 -----------------------------------------------------------------------------

 Structure accepted: RESONANCE keyword permits strongly delocalized structure

 WARNING:  4 low occupancy (<1.9990e) core orbitals found on Mo    1

 --------------------------------------------------------
   Effective Core          108.00000
   Core                     23.94309 ( 99.763% of  24)
   Valence Lewis            94.95858 ( 96.897% of  98)
  ==================       ============================
   Total Lewis             226.90167 ( 98.653% of 230)
  -----------------------------------------------------
   Valence non-Lewis         2.88628 (  1.255% of 230)
   Rydberg non-Lewis         0.21205 (  0.092% of 230)
  ==================       ============================
   Total non-Lewis           3.09833 (  1.347% of 230)
 --------------------------------------------------------


       (Occupancy)   Bond orbital/ Coefficients/ Hybrids
 ---------------------------------------------------------------------------------
     1. (1.86984) BD ( 1)Mo   1 - P   2  
                ( 26.73%)   0.5170*Mo   1 s( 17.15%)p 2.91( 49.96%)d 1.92( 32.89%)
                                           -0.0032  0.4136  0.0208 -0.0021  0.7056
                                           -0.0403  0.0001 -0.0069  0.0003  0.0000
                                            0.0000  0.0000 -0.0209  0.0004  0.0001
                                            0.0000  0.0000  0.0000  0.4935 -0.0520
                                           -0.2851  0.0298
                ( 73.27%)   0.8560* P   2 s( 58.59%)p 0.71( 41.41%)
                                            0.7654 -0.0086 -0.6427  0.0099  0.0303
                                            0.0004 -0.0002  0.0000
     2. (1.86984) BD ( 1)Mo   1 - P   3  
                ( 26.73%)   0.5170*Mo   1 s( 17.15%)p 2.91( 49.96%)d 1.92( 32.89%)
                                           -0.0032  0.4136  0.0208  0.0021 -0.7056
                                            0.0403  0.0001 -0.0069  0.0003  0.0000
                                            0.0001  0.0000  0.0209 -0.0004 -0.0002
                                            0.0000  0.0000  0.0000  0.4935 -0.0520
                                           -0.2851  0.0298
                ( 73.27%)   0.8560* P   3 s( 58.59%)p 0.71( 41.41%)
                                            0.7654 -0.0086  0.6427 -0.0099  0.0303
                                            0.0004 -0.0002  0.0000
     3. (1.91110) BD ( 1)Mo   1 - C  10  
                ( 29.45%)   0.5427*Mo   1 s( 16.54%)p 3.02( 49.94%)d 2.03( 33.52%)
                                           -0.0040  0.4067  0.0005  0.0000  0.0000
                                            0.0000 -0.0008  0.7066  0.0101  0.0000
                                           -0.0017  0.0000  0.0000  0.0000  0.0000
                                            0.0000 -0.0025  0.0001 -0.4989  0.0199
                                           -0.2925  0.0166
                ( 70.55%)   0.8400* C  10 s( 68.56%)p 0.46( 31.44%)
                                            0.0005  0.8269 -0.0434  0.0000  0.0000
                                           -0.5588 -0.0464  0.0014  0.0001
     4. (1.91025) BD ( 1)Mo   1 - C  11  
                ( 29.50%)   0.5432*Mo   1 s( 16.41%)p 3.05( 50.00%)d 2.05( 33.59%)
                                           -0.0041  0.4051  0.0005  0.0000 -0.0001
                                            0.0000  0.0000  0.0026 -0.0001  0.0009
                                           -0.7070 -0.0101  0.0000  0.0000  0.0001
                                            0.0000 -0.0026  0.0019 -0.0040 -0.0057
                                            0.5789 -0.0271
                ( 70.50%)   0.8396* C  11 s( 68.54%)p 0.46( 31.46%)
                                            0.0005  0.8268 -0.0436  0.0001  0.0000
                                           -0.0086 -0.0003  0.5589  0.0460
     5. (1.91024) BD ( 1)Mo   1 - C  12  
                ( 29.51%)   0.5432*Mo   1 s( 16.41%)p 3.05( 50.00%)d 2.05( 33.59%)
                                           -0.0041  0.4051  0.0005  0.0000  0.0001
                                            0.0000  0.0000  0.0061 -0.0001 -0.0009
                                            0.7070  0.0101  0.0000  0.0000  0.0001
                                            0.0000  0.0075 -0.0022 -0.0041 -0.0057
                                            0.5788 -0.0271
                ( 70.49%)   0.8396* C  12 s( 68.54%)p 0.46( 31.46%)
                                            0.0005  0.8268 -0.0436 -0.0001  0.0000
                                           -0.0113 -0.0005 -0.5589 -0.0460
     6. (1.90860) BD ( 1)Mo   1 - C  13  
                ( 29.59%)   0.5440*Mo   1 s( 16.25%)p 3.08( 50.05%)d 2.07( 33.70%)
                                           -0.0043  0.4031  0.0006  0.0000  0.0000
                                            0.0000  0.0010 -0.7074 -0.0104  0.0000
                                            0.0017  0.0000  0.0000  0.0000  0.0000
                                            0.0000 -0.0024  0.0001 -0.5081  0.0213
                                           -0.2793  0.0201
                ( 70.41%)   0.8391* C  13 s( 68.49%)p 0.46( 31.51%)
                                            0.0005  0.8264 -0.0441  0.0000  0.0000
                                            0.5595  0.0460 -0.0013 -0.0001
     7. (1.97315) BD ( 1) P   2 -Cl   4  
                ( 37.65%)   0.6136* P   2 s( 13.67%)p 6.31( 86.33%)
                                            0.3696  0.0094  0.4197  0.0154 -0.4319
                                           -0.0036  0.7073  0.0064
                ( 62.35%)   0.7896*Cl   4 s(  8.16%)p11.26( 91.84%)
                                            0.2856 -0.0035 -0.3925 -0.0021  0.4584
                                            0.0041 -0.7444 -0.0072
     8. (1.97238) BD ( 1) P   2 -Cl   5  
                ( 37.82%)   0.6150* P   2 s( 14.04%)p 6.12( 85.96%)
                                            0.3746  0.0098  0.4835  0.0153  0.7909
                                            0.0070  0.0000  0.0000
                ( 62.18%)   0.7885*Cl   5 s(  8.20%)p11.19( 91.80%)
                                            0.2864 -0.0028 -0.4713 -0.0028 -0.8342
                                           -0.0079  0.0000  0.0000
     9. (1.97315) BD ( 1) P   2 -Cl   6  
                ( 37.65%)   0.6136* P   2 s( 13.67%)p 6.31( 86.33%)
                                            0.3697  0.0094  0.4201  0.0154 -0.4323
                                           -0.0036 -0.7068 -0.0064
                ( 62.35%)   0.7896*Cl   6 s(  8.16%)p11.26( 91.84%)
                                            0.2856 -0.0035 -0.3931 -0.0021  0.4588
                                            0.0041  0.7439  0.0072
    10. (1.97315) BD ( 1) P   3 -Cl   7  
                ( 37.65%)   0.6136* P   3 s( 13.67%)p 6.31( 86.33%)
                                            0.3696  0.0094 -0.4197 -0.0154 -0.4307
                                           -0.0036  0.7080  0.0064
                ( 62.35%)   0.7896*Cl   7 s(  8.16%)p11.26( 91.84%)
                                            0.2856 -0.0035  0.3926  0.0021  0.4572
                                            0.0041 -0.7451 -0.0072
    11. (1.97238) BD ( 1) P   3 -Cl   8  
                ( 37.82%)   0.6150* P   3 s( 14.04%)p 6.12( 85.96%)
                                           -0.3746 -0.0098  0.4835  0.0153 -0.7909
                                           -0.0070  0.0014  0.0000
                ( 62.18%)   0.7885*Cl   8 s(  8.20%)p11.19( 91.80%)
                                           -0.2864  0.0028 -0.4713 -0.0028  0.8341
                                            0.0079 -0.0015  0.0000
    12. (1.97315) BD ( 1) P   3 -Cl   9  
                ( 37.65%)   0.6136* P   3 s( 13.67%)p 6.31( 86.33%)
                                            0.3696  0.0094 -0.4200 -0.0154 -0.4335
                                           -0.0036 -0.7062 -0.0064
                ( 62.35%)   0.7896*Cl   9 s(  8.16%)p11.26( 91.84%)
                                            0.2856 -0.0035  0.3930  0.0021  0.4600
                                            0.0041  0.7432  0.0072
    13. (1.99842) BD ( 1) C  10 - O  14  
                ( 30.10%)   0.5487* C  10 s( 33.59%)p 1.98( 66.41%)
                                           -0.0002  0.5551  0.1667  0.0000  0.0000
                                            0.8131 -0.0552 -0.0021  0.0001
                ( 69.90%)   0.8360* O  14 s( 43.52%)p 1.30( 56.48%)
                                            0.0000  0.6592  0.0266  0.0000  0.0000
                                           -0.7512  0.0223  0.0019 -0.0001
    14. (1.99566) BD ( 2) C  10 - O  14  
                ( 25.81%)   0.5080* C  10 s(  0.00%)p 1.00(100.00%)
                                            0.0000  0.0000  0.0000  0.0004  0.0000
                                            0.0025  0.0000  1.0000  0.0095
                ( 74.19%)   0.8613* O  14 s(  0.00%)p 1.00(100.00%)
                                            0.0000  0.0000  0.0000  0.0004  0.0000
                                            0.0026  0.0000  1.0000  0.0022
    15. (1.99423) BD ( 3) C  10 - O  14  
                ( 26.19%)   0.5118* C  10 s(  0.00%)p 1.00(100.00%)
                                            0.0000  0.0000  0.0000  0.9999  0.0142
                                            0.0000  0.0000 -0.0004  0.0000
                ( 73.81%)   0.8591* O  14 s(  0.00%)p 1.00(100.00%)
                                            0.0000  0.0000  0.0000  1.0000  0.0006
                                            0.0000  0.0000 -0.0004  0.0000
    16. (1.99840) BD ( 1) C  11 - O  15  
                ( 30.10%)   0.5486* C  11 s( 33.61%)p 1.98( 66.39%)
                                           -0.0002  0.5553  0.1666 -0.0001  0.0000
                                            0.0139 -0.0010 -0.8128  0.0555
                ( 69.90%)   0.8361* O  15 s( 43.55%)p 1.30( 56.45%)
                                            0.0000  0.6594  0.0264  0.0001  0.0000
                                           -0.0181  0.0005  0.7508 -0.0222
    17. (1.99551) BD ( 2) C  11 - O  15  
                ( 25.85%)   0.5085* C  11 s(  0.00%)p 1.00(100.00%)
                                            0.0000 -0.0006 -0.0012 -0.0001  0.0000
                                            0.9998  0.0090  0.0163 -0.0011
                ( 74.15%)   0.8611* O  15 s(  0.00%)p 1.00(100.00%)
                                            0.0000  0.0015  0.0002 -0.0001  0.0000
                                            0.9997  0.0019  0.0227  0.0000
    18. (1.99471) BD ( 3) C  11 - O  15  
                ( 26.14%)   0.5113* C  11 s(  0.00%)p 1.00(100.00%)
                                            0.0000  0.0000  0.0000  0.9999  0.0147
                                            0.0001  0.0000 -0.0001  0.0000
                ( 73.86%)   0.8594* O  15 s(  0.00%)p 1.00(100.00%)
                                            0.0000  0.0000  0.0000  1.0000  0.0007
                                            0.0001  0.0000 -0.0001  0.0000
    19. (1.99840) BD ( 1) C  12 - O  16  
                ( 30.10%)   0.5486* C  12 s( 33.61%)p 1.98( 66.39%)
                                           -0.0002  0.5553  0.1666  0.0001  0.0000
                                            0.0178 -0.0013  0.8127 -0.0555
                ( 69.90%)   0.8361* O  16 s( 43.55%)p 1.30( 56.45%)
                                            0.0000  0.6594  0.0264 -0.0001  0.0000
                                           -0.0217  0.0006 -0.7507  0.0222
    20. (1.99551) BD ( 2) C  12 - O  16  
                ( 25.85%)   0.5085* C  12 s(  0.00%)p 1.00(100.00%)
                                            0.0000 -0.0006 -0.0012  0.0001  0.0000
                                            0.9997  0.0090 -0.0212  0.0011
                ( 74.15%)   0.8611* O  16 s(  0.00%)p 1.00(100.00%)
                                            0.0000  0.0015  0.0002  0.0001  0.0000
                                            0.9996  0.0019 -0.0276  0.0000
    21. (1.99471) BD ( 3) C  12 - O  16  
                ( 26.14%)   0.5113* C  12 s(  0.00%)p 1.00(100.00%)
                                            0.0000  0.0000  0.0000  0.9999  0.0147
                                           -0.0001  0.0000 -0.0001  0.0000
                ( 73.86%)   0.8594* O  16 s(  0.00%)p 1.00(100.00%)
                                            0.0000  0.0000  0.0000  1.0000  0.0007
                                           -0.0001  0.0000 -0.0001  0.0000
    22. (1.99837) BD ( 1) C  13 - O  17  
                ( 30.13%)   0.5489* C  13 s( 33.67%)p 1.97( 66.33%)
                                           -0.0002  0.5558  0.1666  0.0000  0.0000
                                           -0.8125  0.0557  0.0019 -0.0001
                ( 69.87%)   0.8359* O  17 s( 43.47%)p 1.30( 56.53%)
                                            0.0000  0.6588  0.0263  0.0000  0.0000
                                            0.7515 -0.0223 -0.0018  0.0001
    23. (1.99534) BD ( 2) C  13 - O  17  
                ( 25.88%)   0.5087* C  13 s(  0.00%)p 1.00(100.00%)
                                            0.0000  0.0000  0.0000  0.0016  0.0000
                                            0.0024  0.0000  1.0000  0.0086
                ( 74.12%)   0.8609* O  17 s(  0.00%)p 1.00(100.00%)
                                            0.0000  0.0000  0.0000  0.0016  0.0000
                                            0.0024  0.0000  1.0000  0.0016
    24. (1.99512) BD ( 3) C  13 - O  17  
                ( 26.07%)   0.5106* C  13 s(  0.00%)p 1.00(100.00%)
                                            0.0000  0.0000  0.0000  0.9999  0.0155
                                            0.0000  0.0000 -0.0016  0.0000
                ( 73.93%)   0.8598* O  17 s(  0.00%)p 1.00(100.00%)
                                            0.0000  0.0000  0.0000  1.0000  0.0010
                                            0.0000  0.0000 -0.0016  0.0000
    25. (1.97829) CR ( 1)Mo   1           s(100.00%)p 0.00(  0.00%)d 0.00(  0.00%)
                                            1.0000  0.0094  0.0001  0.0000  0.0000
                                            0.0000  0.0000 -0.0002  0.0000  0.0000
                                            0.0000  0.0000  0.0000  0.0000  0.0000
                                            0.0000  0.0000  0.0000 -0.0011 -0.0002
                                            0.0006  0.0001
    26. (1.98591) CR ( 2)Mo   1           s(  0.00%)p 1.00(100.00%)
                                            0.0000  0.0000  0.0000  1.0000  0.0030
                                           -0.0002  0.0000  0.0000  0.0000  0.0000
                                            0.0000  0.0000 -0.0001  0.0000  0.0000
                                            0.0000  0.0000  0.0000  0.0000  0.0000
                                            0.0000  0.0000
    27. (1.99163) CR ( 3)Mo   1           s(  0.00%)p 1.00(100.00%)
                                            0.0000 -0.0001  0.0000  0.0000  0.0000
                                            0.0000  1.0000  0.0013  0.0000  0.0000
                                            0.0000  0.0000  0.0000  0.0000  0.0000
                                            0.0000  0.0000  0.0000  0.0000  0.0000
                                            0.0001  0.0000
    28. (1.99160) CR ( 4)Mo   1           s(  0.00%)p 1.00(100.00%)
                                            0.0000  0.0000  0.0000  0.0000  0.0000
                                            0.0000  0.0000  0.0000  0.0000  1.0000
                                            0.0013  0.0000  0.0000  0.0000  0.0000
                                            0.0000  0.0000  0.0000  0.0000  0.0000
                                            0.0000  0.0000
    29. (1.99909) CR ( 1) C  10           s(100.00%)p 0.00(  0.00%)
                                            1.0000 -0.0003  0.0001  0.0000  0.0000
                                            0.0005  0.0000  0.0000  0.0000
    30. (1.99909) CR ( 1) C  11           s(100.00%)p 0.00(  0.00%)
                                            1.0000 -0.0003  0.0001  0.0000  0.0000
                                            0.0000  0.0000 -0.0005  0.0000
    31. (1.99909) CR ( 1) C  12           s(100.00%)p 0.00(  0.00%)
                                            1.0000 -0.0003  0.0001  0.0000  0.0000
                                            0.0000  0.0000  0.0005  0.0000
    32. (1.99909) CR ( 1) C  13           s(100.00%)p 0.00(  0.00%)
                                            1.0000 -0.0003  0.0001  0.0000  0.0000
                                           -0.0005  0.0000  0.0000  0.0000
    33. (1.99983) CR ( 1) O  14           s(100.00%)p 0.00(  0.00%)
                                            1.0000  0.0003  0.0000  0.0000  0.0000
                                            0.0003  0.0000  0.0000  0.0000
    34. (1.99983) CR ( 1) O  15           s(100.00%)p 0.00(  0.00%)
                                            1.0000  0.0003  0.0000  0.0000  0.0000
                                            0.0000  0.0000 -0.0003  0.0000
    35. (1.99983) CR ( 1) O  16           s(100.00%)p 0.00(  0.00%)
                                            1.0000  0.0003  0.0000  0.0000  0.0000
                                            0.0000  0.0000  0.0003  0.0000
    36. (1.99983) CR ( 1) O  17           s(100.00%)p 0.00(  0.00%)
                                            1.0000  0.0003  0.0000  0.0000  0.0000
                                           -0.0003  0.0000  0.0000  0.0000
    37. (1.55641) LP ( 1)Mo   1           s(  0.00%)p 0.00(  0.00%)d 1.00(100.00%)
                                            0.0000  0.0000  0.0000  0.0000 -0.0001
                                            0.0000  0.0000  0.0000  0.0000  0.0000
                                            0.0000  0.0000  0.0027  0.0001  0.9996
                                            0.0269  0.0000  0.0000  0.0001  0.0000
                                           -0.0001  0.0000
    38. (1.55212) LP ( 2)Mo   1           s(  0.00%)p 1.00(  0.09%)d99.99( 99.91%)
                                            0.0000  0.0000  0.0000  0.0000  0.0295
                                           -0.0016  0.0000  0.0000  0.0000  0.0000
                                            0.0000  0.0000  0.9992  0.0261 -0.0027
                                           -0.0001  0.0005  0.0000  0.0000  0.0000
                                            0.0000  0.0000
    39. (1.51785) LP ( 3)Mo   1           s(  0.00%)p 0.00(  0.00%)d 1.00(100.00%)
                                            0.0000  0.0000  0.0000  0.0000  0.0000
                                            0.0000  0.0000  0.0000  0.0000  0.0000
                                           -0.0070 -0.0003 -0.0005  0.0000  0.0000
                                            0.0000  0.9989  0.0452 -0.0024 -0.0001
                                           -0.0042 -0.0002
    40. (1.99056) LP ( 1)Cl   4           s( 89.24%)p 0.12( 10.76%)
                                            0.9447 -0.0004  0.2686  0.0006 -0.1055
                                           -0.0003  0.1558  0.0007
    41. (1.94905) LP ( 2)Cl   4           s(  2.60%)p37.46( 97.40%)
                                            0.1612  0.0023 -0.8792  0.0017 -0.2083
                                           -0.0012  0.3971  0.0020
    42. (1.93764) LP ( 3)Cl   4           s(  0.00%)p 1.00(100.00%)
                                            0.0027 -0.0003  0.0292 -0.0002  0.8575
                                           -0.0005  0.5136 -0.0004
    43. (1.99026) LP ( 1)Cl   5           s( 89.30%)p 0.12( 10.70%)
                                            0.9450 -0.0005  0.2826  0.0005  0.1648
                                            0.0006  0.0001  0.0000
    44. (1.94870) LP ( 2)Cl   5           s(  2.50%)p39.01( 97.50%)
                                            0.1581  0.0024 -0.8355  0.0018  0.5263
                                            0.0021 -0.0003  0.0000
    45. (1.93720) LP ( 3)Cl   5           s(  0.00%)p 1.00(100.00%)
                                            0.0000  0.0000 -0.0003  0.0000  0.0001
                                            0.0000  1.0000 -0.0008
    46. (1.99055) LP ( 1)Cl   6           s( 89.24%)p 0.12( 10.76%)
                                            0.9447 -0.0004  0.2688  0.0006 -0.1055
                                           -0.0003 -0.1556 -0.0007
    47. (1.94905) LP ( 2)Cl   6           s(  2.60%)p37.45( 97.40%)
                                            0.1612  0.0023 -0.8788  0.0017 -0.2086
                                           -0.0012 -0.3976 -0.0020
    48. (1.93763) LP ( 3)Cl   6           s(  0.00%)p 1.00(100.00%)
                                            0.0027 -0.0003  0.0296 -0.0002  0.8572
                                           -0.0005 -0.5141  0.0004
    49. (1.99056) LP ( 1)Cl   7           s( 89.24%)p 0.12( 10.76%)
                                            0.9447 -0.0004 -0.2687 -0.0006 -0.1052
                                           -0.0003  0.1560  0.0007
    50. (1.94905) LP ( 2)Cl   7           s(  2.60%)p37.45( 97.40%)
                                            0.1612  0.0023  0.8791 -0.0017 -0.2077
                                           -0.0012  0.3975  0.0020
    51. (1.93764) LP ( 3)Cl   7           s(  0.00%)p 1.00(100.00%)
                                            0.0027 -0.0003 -0.0293  0.0002  0.8583
                                           -0.0005  0.5122 -0.0004
    52. (1.99026) LP ( 1)Cl   8           s( 89.30%)p 0.12( 10.70%)
                                            0.9450 -0.0005 -0.2826 -0.0005  0.1648
                                            0.0006 -0.0003  0.0000
    53. (1.94870) LP ( 2)Cl   8           s(  2.50%)p39.02( 97.50%)
                                            0.1581  0.0024  0.8355 -0.0018  0.5263
                                            0.0021 -0.0012  0.0000
    54. (1.93720) LP ( 3)Cl   8           s(  0.00%)p 1.00(100.00%)
                                            0.0000  0.0000  0.0002  0.0000  0.0019
                                            0.0000  1.0000 -0.0008
    55. (1.99056) LP ( 1)Cl   9           s( 89.24%)p 0.12( 10.76%)
                                            0.9447 -0.0004 -0.2687 -0.0006 -0.1058
                                           -0.0003 -0.1554 -0.0007
    56. (1.94905) LP ( 2)Cl   9           s(  2.60%)p37.46( 97.40%)
                                            0.1612  0.0023  0.8789 -0.0017 -0.2093
                                           -0.0012 -0.3971 -0.0020
    57. (1.93764) LP ( 3)Cl   9           s(  0.00%)p 1.00(100.00%)
                                            0.0027 -0.0003 -0.0295  0.0002  0.8564
                                           -0.0005 -0.5155  0.0004
    58. (1.97508) LP ( 1) O  14           s( 56.53%)p 0.77( 43.47%)
                                           -0.0004  0.7517 -0.0167  0.0000  0.0000
                                            0.6593  0.0087 -0.0017  0.0000
    59. (1.97477) LP ( 1) O  15           s( 56.50%)p 0.77( 43.50%)
                                           -0.0004  0.7515 -0.0167 -0.0001  0.0000
                                            0.0138  0.0004 -0.6594 -0.0086
    60. (1.97477) LP ( 1) O  16           s( 56.50%)p 0.77( 43.50%)
                                           -0.0004  0.7515 -0.0167  0.0001  0.0000
                                            0.0170  0.0005  0.6593  0.0086
    61. (1.97469) LP ( 1) O  17           s( 56.58%)p 0.77( 43.42%)
                                           -0.0004  0.7520 -0.0165  0.0000  0.0000
                                           -0.6589 -0.0084  0.0016  0.0000
    62. (0.00292) RY*( 1)Mo   1           s( 89.49%)p 0.00(  0.20%)d 0.12( 10.31%)
                                            0.0000 -0.0056  0.9460  0.0000  0.0000
                                            0.0000  0.0000 -0.0007  0.0443  0.0000
                                            0.0000 -0.0003  0.0000  0.0000  0.0000
                                            0.0000  0.0000  0.0000  0.0030  0.2805
                                           -0.0014 -0.1563
    63. (0.00264) RY*( 2)Mo   1           s(  0.00%)p 1.00( 99.99%)d 0.00(  0.01%)
                                            0.0000  0.0000  0.0000  0.0000  0.0570
                                            0.9983  0.0000  0.0000  0.0000  0.0000
                                            0.0000  0.0000 -0.0003  0.0093  0.0000
                                           -0.0001  0.0000  0.0000  0.0000  0.0000
                                            0.0000  0.0000
    64. (0.00148) RY*( 3)Mo   1           s(  2.82%)p14.03( 39.64%)d20.37( 57.53%)
                                            0.0000 -0.0178  0.1671  0.0000  0.0000
                                            0.0000  0.0000  0.0115 -0.6295  0.0000
                                            0.0000  0.0008  0.0000 -0.0001  0.0000
                                           -0.0009  0.0002  0.0025 -0.0147 -0.0431
                                            0.0469  0.7557
    65. (0.00136) RY*( 4)Mo   1           s(  7.69%)p 0.35(  2.70%)d11.65( 89.61%)
                                            0.0000 -0.0348  0.2752  0.0000  0.0000
                                            0.0000  0.0000 -0.0026  0.1643  0.0000
                                            0.0000 -0.0006  0.0000  0.0001  0.0000
                                            0.0008 -0.0001 -0.0020 -0.0743 -0.9434
                                            0.0153  0.0190
    66. (0.00137) RY*( 5)Mo   1           s(  0.00%)p 1.00( 92.80%)d 0.08(  7.20%)
                                            0.0000  0.0000  0.0002  0.0000  0.0000
                                            0.0000  0.0000  0.0000  0.0002  0.0000
                                           -0.0147  0.9632  0.0000 -0.0015  0.0000
                                           -0.0001  0.0123 -0.2680 -0.0001  0.0001
                                           -0.0001  0.0000
    67. (0.00119) RY*( 6)Mo   1           s(  0.06%)p99.99( 57.46%)d99.99( 42.48%)
                                            0.0000 -0.0069  0.0238  0.0000  0.0000
                                            0.0000  0.0000 -0.0089  0.7580  0.0000
                                            0.0000  0.0007  0.0000  0.0000  0.0002
                                           -0.0062  0.0002  0.0032  0.0030  0.1524
                                            0.0362  0.6326
    68. (0.00107) RY*( 7)Mo   1           s(  0.00%)p 0.00(  0.00%)d 1.00(100.00%)
                                            0.0000  0.0000  0.0001  0.0000  0.0000
                                            0.0001  0.0000  0.0000  0.0040  0.0000
                                            0.0000  0.0001  0.0000 -0.0002 -0.0269
                                            0.9996  0.0000  0.0000  0.0001  0.0017
                                            0.0003  0.0046
    69. (0.00103) RY*( 8)Mo   1           s(  0.00%)p 0.00(  0.01%)d 1.00( 99.99%)
                                            0.0000  0.0000  0.0000  0.0000 -0.0019
                                           -0.0092  0.0000  0.0000 -0.0001  0.0000
                                            0.0000  0.0017 -0.0260  0.9996  0.0000
                                            0.0002  0.0000  0.0008  0.0000  0.0001
                                            0.0000  0.0000
    70. (0.00047) RY*( 9)Mo   1           s(  0.00%)p 1.00(  7.20%)d12.89( 92.80%)
                                            0.0000  0.0000  0.0001  0.0000  0.0000
                                            0.0000  0.0000  0.0000 -0.0005  0.0000
                                           -0.0007  0.2683  0.0000 -0.0012  0.0000
                                            0.0000 -0.0435  0.9623  0.0001 -0.0024
                                            0.0002 -0.0041
    71. (0.00902) RY*( 1) P   2           s(  0.20%)p99.99( 99.80%)
                                            0.0215  0.0393  0.0115 -0.8714  0.0034
                                           -0.4884  0.0000 -0.0001
    72. (0.00886) RY*( 2) P   2           s(  0.01%)p99.99( 99.99%)
                                            0.0118  0.0011  0.0067 -0.4884 -0.0080
                                            0.8722 -0.0002  0.0215
    73. (0.00883) RY*( 3) P   2           s(  0.00%)p 1.00(100.00%)
                                            0.0002 -0.0001  0.0001 -0.0104 -0.0002
                                            0.0188  0.0090 -0.9997
    74. (0.00066) RY*( 4) P   2           s( 99.81%)p 0.00(  0.19%)
                                           -0.0049  0.9991 -0.0186  0.0344  0.0005
                                            0.0182  0.0000 -0.0002
    75. (0.00902) RY*( 1) P   3           s(  0.20%)p99.99( 99.80%)
                                            0.0215  0.0393 -0.0115  0.8715  0.0034
                                           -0.4882  0.0000  0.0019
    76. (0.00886) RY*( 2) P   3           s(  0.01%)p99.99( 99.99%)
                                            0.0118  0.0011 -0.0067  0.4883 -0.0080
                                            0.8725 -0.0001  0.0085
    77. (0.00883) RY*( 3) P   3           s(  0.00%)p 1.00(100.00%)
                                            0.0001  0.0000 -0.0001  0.0058 -0.0001
                                            0.0065  0.0091 -0.9999
    78. (0.00066) RY*( 4) P   3           s( 99.81%)p 0.00(  0.19%)
                                           -0.0049  0.9991  0.0186 -0.0344  0.0005
                                            0.0182  0.0000 -0.0001
    79. (0.00111) RY*( 1)Cl   4           s( 22.73%)p 3.40( 77.27%)
                                            0.0013  0.4768 -0.0004  0.4963  0.0051
                                           -0.3749 -0.0079  0.6210
    80. (0.00018) RY*( 2)Cl   4           s(  4.58%)p20.84( 95.42%)
                                           -0.0008  0.2140  0.0014  0.7350 -0.0012
                                            0.3316  0.0023 -0.5514
    81. (0.00011) RY*( 3)Cl   4           s(  0.24%)p99.99( 99.76%)
                                            0.0000  0.0492  0.0001 -0.0276 -0.0006
                                           -0.8477 -0.0002 -0.5275
    82. (0.00002) RY*( 4)Cl   4           s( 72.45%)p 0.38( 27.55%)
    83. (0.00101) RY*( 1)Cl   5           s( 22.48%)p 3.45( 77.52%)
                                            0.0014  0.4741 -0.0011  0.5303 -0.0090
                                            0.7028  0.0000  0.0000
    84. (0.00016) RY*( 2)Cl   5           s(  5.16%)p18.36( 94.84%)
                                           -0.0006  0.2273  0.0016  0.6975  0.0022
                                           -0.6796  0.0000  0.0001
    85. (0.00011) RY*( 3)Cl   5           s(  0.00%)p 1.00(100.00%)
                                            0.0000  0.0006  0.0000 -0.0004  0.0000
                                            0.0000  0.0008  1.0000
    86. (0.00002) RY*( 4)Cl   5           s( 72.36%)p 0.38( 27.64%)
    87. (0.00111) RY*( 1)Cl   6           s( 22.73%)p 3.40( 77.27%)
                                            0.0013  0.4767 -0.0004  0.4965  0.0051
                                           -0.3753  0.0078 -0.6207
    88. (0.00018) RY*( 2)Cl   6           s(  4.58%)p20.84( 95.42%)
                                           -0.0008  0.2140  0.0014  0.7348 -0.0012
                                            0.3322 -0.0023  0.5512
    89. (0.00011) RY*( 3)Cl   6           s(  0.25%)p99.99( 99.75%)
                                            0.0000  0.0498  0.0001 -0.0278 -0.0006
                                           -0.8472  0.0002  0.5282
    90. (0.00002) RY*( 4)Cl   6           s( 72.44%)p 0.38( 27.56%)
    91. (0.00111) RY*( 1)Cl   7           s( 22.73%)p 3.40( 77.27%)
                                            0.0013  0.4768  0.0004 -0.4963  0.0051
                                           -0.3739 -0.0079  0.6217
    92. (0.00018) RY*( 2)Cl   7           s(  4.58%)p20.84( 95.42%)
                                           -0.0008  0.2140 -0.0014 -0.7350 -0.0012
                                            0.3309  0.0023 -0.5518
    93. (0.00011) RY*( 3)Cl   7           s(  0.24%)p99.99( 99.76%)
                                            0.0000  0.0494 -0.0001  0.0275 -0.0006
                                           -0.8484 -0.0002 -0.5263
    94. (0.00002) RY*( 4)Cl   7           s( 72.44%)p 0.38( 27.56%)
    95. (0.00101) RY*( 1)Cl   8           s( 22.48%)p 3.45( 77.52%)
                                            0.0014  0.4741  0.0011 -0.5304 -0.0090
                                            0.7028  0.0000 -0.0012
    96. (0.00016) RY*( 2)Cl   8           s(  5.16%)p18.36( 94.84%)
                                           -0.0006  0.2273 -0.0016 -0.6975  0.0022
                                           -0.6796  0.0000  0.0014
    97. (0.00011) RY*( 3)Cl   8           s(  0.00%)p 1.00(100.00%)
                                            0.0000  0.0001  0.0000  0.0002  0.0000
                                            0.0019  0.0008  1.0000
    98. (0.00002) RY*( 4)Cl   8           s( 72.36%)p 0.38( 27.64%)
    99. (0.00111) RY*( 1)Cl   9           s( 22.73%)p 3.40( 77.27%)
                                            0.0013  0.4768  0.0004 -0.4965  0.0051
                                           -0.3763  0.0078 -0.6201
   100. (0.00018) RY*( 2)Cl   9           s(  4.58%)p20.84( 95.42%)
                                           -0.0008  0.2140 -0.0014 -0.7348 -0.0012
                                            0.3330 -0.0023  0.5508
   101. (0.00011) RY*( 3)Cl   9           s(  0.25%)p99.99( 99.75%)
                                            0.0000  0.0496 -0.0001  0.0278 -0.0006
                                           -0.8464  0.0002  0.5295
   102. (0.00002) RY*( 4)Cl   9           s( 72.44%)p 0.38( 27.56%)
   103. (0.01882) RY*( 1) C  10           s( 29.43%)p 2.40( 70.57%)
                                            0.0000 -0.0897  0.5350  0.0000  0.0000
                                           -0.1051 -0.8335  0.0003  0.0021
   104. (0.00609) RY*( 2) C  10           s(  0.00%)p 1.00(100.00%)
                                            0.0000  0.0000  0.0000 -0.0142  0.9999
                                            0.0000  0.0000  0.0000  0.0002
   105. (0.00416) RY*( 3) C  10           s(  0.00%)p 1.00(100.00%)
                                            0.0000  0.0000  0.0000  0.0000 -0.0002
                                            0.0000  0.0026 -0.0095  1.0000
   106. (0.00325) RY*( 4) C  10           s( 68.42%)p 0.46( 31.58%)
                                            0.0000 -0.0105  0.8271  0.0000  0.0000
                                           -0.1252  0.5479  0.0003 -0.0014
   107. (0.01911) RY*( 1) C  11           s( 29.11%)p 2.43( 70.89%)
                                            0.0000 -0.0894  0.5321  0.0000  0.0001
                                            0.0000 -0.0205  0.1051  0.8351
[...]
   Z16        6.10795   0.00000   0.00000   0.00007   0.00008   6.10803
   X17       -0.00003   0.00000   0.00000   0.00005   0.00005   0.00002
   Y17       -6.00231   0.00000   0.00000   0.00004   0.00004  -6.00227
   Z17        0.01393   0.00000   0.00000  -0.00026  -0.00025   0.01367
         Item               Value     Threshold  Converged?
 Maximum Force            0.000004     0.000450     YES
 RMS     Force            0.000001     0.000300     YES
 Maximum Displacement     0.004016     0.001800     NO 
 RMS     Displacement     0.001105     0.001200     YES
 Predicted change in Energy=-1.891606D-09
 Optimization completed on the basis of negligible forces.
    -- Stationary point found.
 GradGradGradGradGradGradGradGradGradGradGradGradGradGradGradGradGradGrad

 1\1\GINC-CX1-7-36-1\Freq\RB3LYP\LANL2DZ\C4Cl6Mo1O4P2\SCAN-USER-1\12-Ma
 r-2010\0\\# freq b3lyp/lanl2dz pop=nbo geom=connectivity int=ultrafine
  scf=conver=9\\trans form Fq Optimisation 1\\0,1\Mo,0.000001,0.056938,
 -0.000381\P,2.444312,0.001289,-0.00008\P,-2.444309,0.00129,0.000079\Cl
 ,3.447989,-1.050059,1.706158\Cl,3.619726,1.908573,-0.00001\Cl,3.449284
 ,-1.050988,-1.704969\Cl,-3.448206,-1.04725,1.707901\Cl,-3.619775,1.908
 539,-0.003292\Cl,-3.449007,-1.053818,-1.703227\C,-0.000009,2.11687,-0.
 005509\C,-0.000195,0.069813,-2.060752\C,0.000208,0.079888,2.059901\C,-
 0.000013,-2.002964,0.004594\O,-0.000046,3.289079,-0.008509\O,-0.000321
 ,0.094041,-3.233166\O,0.000355,0.109834,3.232188\O,-0.000018,-3.176287
 ,0.00737\\Version=EM64L-G09RevA.02\State=1-A\HF=-623.5760311\RMSD=5.67
 9e-10\RMSF=1.119e-06\ZeroPoint=0.0423002\Thermal=0.0665254\Dipole=-0.0
 000026,0.1197056,-0.0007567\DipoleDeriv=-3.1321299,-0.0000178,-0.00010
 76,0.0000172,-2.3778673,-0.0000432,0.000074,-0.0000396,-2.3581709,3.14
 09767,-0.0014931,-0.0000206,-0.051327,1.3833325,0.000117,0.0002767,0.0
 000654,1.3671424,3.1409786,0.0014885,-0.0000601,0.0513137,1.3833257,-0
 .0000254,-0.000421,0.0000299,1.3671457,-0.6763788,0.1043003,-0.1713002
 ,0.2758204,-0.3008434,0.1853471,-0.4155446,0.1788327,-0.4816891,-0.747
 5853,-0.2251963,-0.0000074,-0.5024174,-0.5619571,0.0000048,-0.0001798,
 -0.0000464,-0.1888171,-0.6768766,0.1044942,0.1714426,0.2763322,-0.3010
 749,-0.1854523,0.4153622,-0.178813,-0.4812704,-0.6764592,-0.1040109,0.
 1715516,-0.2752004,-0.300254,0.1850877,0.415999,0.178489,-0.4822626,-0
 .7475991,0.2252021,-0.0004025,0.5024116,-0.5619429,0.000667,-0.000798,
 0.0006381,-0.1888186,-0.676784,-0.1047814,-0.1711844,-0.2769568,-0.301
 6718,-0.185715,-0.4149032,-0.1791605,-0.480699,0.495122,-0.0000467,0.0
 000404,-0.0000052,2.5577026,-0.0059001,-0.0000083,-0.0055999,0.3505031
 ,0.4511884,-0.0000238,0.0001994,0.0000013,0.357087,-0.0421598,0.000274
 ,-0.1109874,2.5946548,0.4508236,0.0000282,0.0002329,-0.0000017,0.35789
 77,0.0531403,0.0002794,0.1219282,2.5942265,0.4062161,0.0000214,0.00002
 29,0.0000103,2.649569,-0.0051449,0.0000133,-0.0054156,0.3532502,-0.198
 7198,0.0000495,-0.0000045,0.0000128,-1.7924827,0.0043045,0.000002,0.00
 41964,-0.1732739,-0.1892301,0.0000128,-0.0001882,0.0000019,-0.1738606,
 0.0477591,-0.000204,0.0760584,-1.8120425,-0.1891308,-0.0000158,-0.0002
 182,-0.0000031,-0.1744878,-0.055759,-0.0002158,-0.0840726,-1.8116075,-
 0.174412,-0.0000111,0.000004,-0.0000098,-1.8424718,0.003772,-0.0000059
 ,0.003897,-0.1682711\Polar=297.7617697,-0.0007075,212.831858,0.0047431
 ,0.0016129,211.6010072\PG=C01 [X(C4Cl6Mo1O4P2)]\NImag=0\\0.31659803,-0
 .00000007,0.38950153,0.00000490,-0.00000709,0.38800106,-0.04051062,0.0
 0052447,-0.00000054,0.16956607,0.00041366,-0.04079451,-0.00000077,0.00
 096087,0.14199004,-0.00000252,0.00000169,-0.04062895,-0.00000910,0.000
 00831,0.14005585,-0.04051102,-0.00052449,0.00000520,-0.02760936,0.0008
 8728,-0.00000512,0.16956708,-0.00041383,-0.04079463,0.00000133,-0.0008
 8714,0.00232161,-0.00000048,-0.00096082,0.14199062,0.00000235,-0.00000
 128,-0.04062903,0.00000674,-0.00000132,0.00238452,-0.00000024,-0.00000
 188,0.14005716,-0.00605387,0.00423096,-0.00726504,-0.03203297,0.016806
 66,-0.02681398,0.00285274,-0.00057955,0.00121686,0.03074061,0.00233278
 ,0.00290518,0.00266819,0.01638685,-0.02762888,0.02426230,-0.00135015,-
 0.00033532,-0.00113415,-0.01872172,0.03240704,-0.00333727,0.00220335,0
 .00040530,-0.02630257,0.02447757,-0.05161014,0.00207018,-0.00091084,0.
 00085796,0.02962267,-0.03309706,0.06671932,-0.00571228,-0.00836719,0.0
 0000409,-0.03782986,-0.03412485,-0.00000467,0.00292185,0.00178101,-0.0
 0000018,0.00365276,0.00103862,0.00040905,0.03662437,-0.00309121,-0.000
 49047,0.00000297,-0.03383509,-0.06138733,-0.00000484,0.00210430,0.0015
 3916,-0.00000109,-0.00149268,-0.00854117,0.00495874,0.03888033,0.08038
 818,-0.00000208,-0.00000255,0.00423891,-0.00000285,-0.00000197,-0.0119
 2717,0.00000068,-0.00000002,-0.00089920,0.00204455,0.00744850,-0.00127
 508,0.00000533,-0.00000295,0.01154905,-0.00605049,0.00423461,0.0072623
 0,-0.03207340,0.01684098,0.02681845,0.00285319,-0.00057918,-0.00122111
 ,0.00350603,-0.00095077,-0.00139486,0.00365530,-0.00148873,-0.00204067
 ,0.03078041,0.00233280,0.00290185,-0.00266863,0.01642103,-0.02765276,-
 0.02426482,-0.00135081,-0.00033371,0.00113743,-0.00095142,0.00245487,0
 .00137858,0.00104508,-0.00854245,-0.00744112,-0.01876357,0.03243253,0.
 00332783,-0.00220163,0.00041104,0.02631060,-0.02448275,-0.05154351,-0.
 00206661,0.00091028,0.00085745,0.00140795,-0.00138734,-0.01257491,-0.0
 0040683,-0.00495381,-0.00126941,-0.02963240,0.03310219,0.06663759,-0.0
 0605234,-0.00421992,0.00727209,0.00285271,0.00057601,-0.00121974,-0.03
 204043,-0.01676686,0.02684460,-0.00134668,0.00056849,-0.00080903,-0.00
 023755,-0.00024854,0.00008115,-0.00023899,0.00008621,0.00027308,0.0307
 4789,-0.00232692,0.00291288,0.00266333,0.00134675,-0.00033838,-0.00113
 364,-0.01634803,-0.02754850,0.02422219,-0.00056575,0.00035674,-0.00020
 509,-0.00023307,-0.00018485,0.00010988,-0.00008574,0.00012603,0.000080
 05,0.01867844,0.03229535,0.00333946,0.00219952,0.00039729,-0.00207195,
 -0.00090800,0.00086119,0.02633377,0.02443826,-0.05168444,0.00081047,-0
 .00020714,0.00044604,0.00021944,0.00021645,0.00001373,0.00027361,-0.00
 008102,-0.00027346,-0.02965636,-0.03303943,0.06682119,-0.00571184,0.00
 836686,-0.00001436,0.00292180,-0.00178108,0.00000529,-0.03783169,0.034
 12522,-0.00005876,-0.00023730,0.00023245,-0.00021930,-0.00158309,-0.00
 092198,-0.00000146,-0.00023757,0.00023355,0.00021871,0.00365353,-0.001
 04056,-0.00040715,0.03662583,0.00309089,-0.00049012,0.00000898,-0.0021
 0422,0.00153911,-0.00000554,0.03383563,-0.06138552,0.00008596,0.000248
 08,-0.00018465,0.00021632,0.00092195,0.00042662,0.00000104,0.00024886,
 -0.00018559,-0.00021585,0.00148844,-0.00851889,0.00497034,-0.03888124,
 0.08038649,-0.00000438,0.00000781,0.00423884,0.00000345,-0.00000356,-0
 .00089919,-0.00005859,0.00008702,-0.01192730,-0.00008071,0.00010985,0.
 00001378,-0.00000214,-0.00000083,0.00017474,0.00008081,-0.00010962,0.0
 0001427,-0.00204684,0.00745943,-0.00129585,0.00006763,-0.00012348,0.01
 154953,-0.00605248,-0.00424579,-0.00725540,0.00285326,0.00058275,0.001
 21809,-0.03206461,-0.01688129,-0.02678770,-0.00023911,0.00008560,-0.00
 027406,-0.00023730,-0.00024841,-0.00008037,-0.00134810,0.00056792,0.00
 080874,0.00350597,0.00095347,0.00139579,0.00365451,0.00149370,0.002038
 79,0.03077244,-0.00233881,0.00289412,-0.00267375,0.00135424,-0.0003306
 0,0.00113796,-0.01646042,-0.02773479,-0.02430640,-0.00008608,0.0001260
 5,-0.00008106,-0.00023292,-0.00018541,-0.00010960,-0.00057070,0.000357
 65,0.00020707,0.00094880,0.00245482,0.00135392,-0.00104248,-0.00856513
 ,-0.00743045,0.01880684,0.03254647,-0.00332594,-0.00220545,0.00041897,
 0.00206490,0.00091314,0.00085419,-0.02627903,-0.02452348,-0.05147080,-
 0.00027354,0.00008009,-0.00027368,-0.00021857,-0.00021574,0.00001433,-
 0.00080730,0.00020500,0.00044399,-0.00140698,-0.00141208,-0.01257452,0
 .00040900,-0.00494245,-0.00124890,0.02959837,0.03316165,0.06653694,-0.
 07295839,0.00000053,-0.00000120,-0.00228752,0.00812122,-0.00002275,-0.
 00228685,-0.00812180,0.00002124,-0.00053621,-0.00001736,-0.00006505,0.
 00017563,0.00030673,0.00000146,-0.00053746,-0.00002078,0.00006688,-0.0
 0053674,0.00001877,0.00006576,0.00017555,-0.00030647,0.00000010,-0.000
 53708,0.00001940,-0.00006625,0.09060091,0.00000047,-0.06387411,-0.0000
 1938,0.01762080,0.01156398,0.00000334,-0.01762131,0.01156364,-0.000009
 95,-0.00172340,-0.00059523,-0.00073885,-0.00493220,-0.00816173,-0.0000
 0120,-0.00171953,-0.00058995,0.00073893,0.00172214,-0.00059491,-0.0007
 3854,0.00493266,-0.00816172,0.00001269,0.00172076,-0.00059027,0.000739
 25,-0.00003019,1.07886569,0.00000021,-0.00002136,-0.07361714,-0.000043
 04,-0.00002473,0.00412577,0.00004413,-0.00001976,0.00412586,-0.0000939
 2,-0.00013819,-0.00024800,0.00001022,0.00001965,-0.00067642,0.00010116
 ,0.00014312,-0.00025177,0.00009346,-0.00013933,-0.00024786,-0.00001167
 ,0.00001884,-0.00067646,-0.00010161,0.00014199,-0.00025190,0.00000191,
 -0.00252082,0.09383363,-0.07393501,0.00000054,0.00000120,-0.00266934,0
 .00064609,-0.00936793,-0.00266723,-0.00064523,0.00937573,-0.00034712,-
 0.00009027,-0.00012376,-0.00030202,-0.00001573,0.00067492,0.00007317,-
 0.00037107,0.00003409,-0.00034704,0.00009006,0.00012362,-0.00030003,0.
 00001463,-0.00067688,0.00007270,0.00037072,-0.00003740,0.00482142,-0.0
 0000121,-0.00000049,0.09254022,0.00000038,-0.07396116,0.00063130,-0.00
 006293,0.00372193,-0.00077081,0.00006305,0.00372035,-0.00077073,0.0000
 5898,-0.00017546,0.00005038,0.00028724,-0.00004172,0.00039945,0.000264
 31,-0.00060505,0.00022884,-0.00005866,-0.00017518,0.00005026,-0.000288
 62,-0.00004109,0.00039947,-0.00026380,-0.00060435,0.00022907,-0.000000
 69,-0.00170196,-0.01356057,-0.00000213,0.09396903,0.00000587,0.0009799
 4,-0.06384466,-0.01717861,0.00380434,0.00956717,0.01717753,0.00380491,
 0.00955194,0.00235328,-0.00100836,-0.00015698,0.00207222,0.00139259,-0
 .00046589,0.00375428,-0.00366091,-0.00647488,-0.00235495,-0.00100754,-
 0.00015420,-0.00207579,0.00139807,-0.00046680,-0.00375089,-0.00366668,
 -0.00646374,-0.00000077,-0.01987958,-0.00245241,0.00010535,-0.02061368
 ,1.07595045,-0.07394281,-0.00000061,0.00000102,-0.00267175,0.00069090,
 0.00938165,-0.00267402,-0.00069186,-0.00937348,0.00007249,-0.00037173,
 -0.00003878,-0.00029640,-0.00001611,-0.00068025,-0.00034651,-0.0000893
 1,0.00012384,0.00007292,0.00037214,0.00003534,-0.00029837,0.00001719,0
 .00067826,-0.00034650,0.00008955,-0.00012401,0.00482138,0.00000165,-0.
 00000052,0.02670277,0.00000007,-0.00000914,0.09255592,-0.00000032,-0.0
 7397087,-0.00058182,0.00002007,0.00370395,0.00079892,-0.00002021,0.003
 70555,0.00079916,0.00024503,-0.00058642,-0.00025784,0.00028087,-0.0000
 4889,-0.00040152,0.00004650,-0.00017004,-0.00004984,-0.00024563,-0.000
 58721,-0.00025765,-0.00027954,-0.00004949,-0.00040148,-0.00004680,-0.0
 0017032,-0.00004998,0.00000083,-0.00153533,0.01355515,-0.00000014,0.02
 479668,-0.00082607,0.00000317,0.09418975,0.00000539,-0.00092945,-0.063
 84249,0.01717585,-0.00377684,0.00955019,-0.01717646,-0.00377654,0.0095
 6567,-0.00374487,0.00364705,-0.00646336,-0.00208294,-0.00140922,-0.000
 46078,-0.00235854,0.00100656,-0.00015458,0.00374794,0.00364133,-0.0064
 7450,0.00207936,-0.00140352,-0.00045987,0.00235688,0.00100742,-0.00015
 738,-0.00000169,0.01987282,-0.00262126,-0.00000879,0.00042545,-0.05713
 972,0.00012262,0.02540299,1.07570237,-0.07497057,-0.00000001,-0.000000
 51,-0.00314254,-0.01042195,0.00002178,-0.00314268,0.01042242,-0.000023
 59,0.00026222,0.00074069,0.00039376,-0.00033913,-0.00011866,0.00000068
 ,0.00026156,0.00074374,-0.00039556,0.00026177,-0.00074266,-0.00039308,
 -0.00033920,0.00011859,-0.00000034,0.00026190,-0.00074181,0.00039611,0
 .02685169,-0.00000044,-0.00000040,0.00458814,0.00000061,-0.00000075,0.
 00458745,-0.00000065,-0.00000103,0.09397577,-0.00000029,-0.06492085,-0
 .00002588,-0.01714070,0.00749243,-0.00003337,0.01714094,0.00749245,-0.
 00001770,0.00303050,-0.00265504,0.00352757,0.00272150,0.00038043,0.000
 00475,0.00302438,-0.00264123,-0.00350131,-0.00302790,-0.00264320,0.003
 52252,-0.00272146,0.00038036,0.00000036,-0.00302702,-0.00265331,-0.003
 50656,0.00000021,-0.05713934,0.00020366,0.00000154,-0.00255376,0.01922
 230,-0.00000195,-0.00270949,-0.01921543,0.00000403,1.07385866,0.000001
 30,-0.00002473,-0.07421984,0.00004290,-0.00000388,0.00350207,-0.000041
 17,-0.00000912,0.00350214,0.00024075,0.00005344,-0.00016846,-0.0000065
 9,-0.00000122,-0.00018914,-0.00026085,-0.00004578,-0.00014694,-0.00024
 282,0.00005518,-0.00016684,0.00000662,-0.00000143,-0.00018912,0.000258
 70,-0.00004396,-0.00014862,-0.00000039,0.00019822,0.02477011,-0.000000
 56,0.01333245,-0.00174341,-0.00000073,-0.01332826,-0.00158786,0.000001
 71,-0.00231842,0.09307636,0.02367800,0.00000054,0.00000013,0.00061929,
 -0.00115062,0.00000383,0.00061850,0.00115100,-0.00000336,0.00011050,-0
 .00000766,-0.00005255,-0.00063285,0.00030111,-0.00000200,0.00011138,-0
 .00000688,0.00005157,0.00011094,0.00000744,0.00005213,-0.00063268,-0.0
 0030142,0.00000116,0.00011113,0.00000707,-0.00005189,-0.03745549,0.000
 03001,-0.00000004,-0.00081897,0.00000003,-0.00000002,-0.00081846,-0.00
 000010,0.00000075,-0.00854892,-0.00000013,0.00000019,0.02074859,0.0000
 0070,-0.04496861,0.00016836,-0.01194803,-0.00689974,0.00000556,0.01194
 818,-0.00689987,0.00001118,0.00138378,0.00023607,0.00059760,0.00268146
 ,0.00490051,-0.00000229,0.00138319,0.00023349,-0.00059873,-0.00138351,
 0.00023621,0.00059791,-0.00268162,0.00490051,-0.00000887,-0.00138344,0
 .00023336,-0.00059841,0.00002983,-0.97556090,0.00240014,0.00000106,0.0
 0057845,0.01235038,-0.00000122,0.00050597,-0.01234382,0.00000003,0.014
 05222,-0.00005339,-0.00003055,1.01562695,-0.00000008,0.00017090,0.0239
 7393,0.00003002,0.00001571,-0.00073006,-0.00003058,0.00001546,-0.00073
 009,0.00000329,-0.00003222,0.00008881,-0.00000755,-0.00001115,0.000169
 91,-0.00001046,0.00003107,0.00009198,-0.00000331,-0.00003207,0.0000889
 0,0.00000714,-0.00001171,0.00016993,0.00001043,0.00003122,0.00009189,0
 .00000025,0.00239622,-0.03944100,0.00000033,0.00229269,0.00143862,0.00
 000035,-0.00228743,0.00151335,0.00000013,-0.00005526,-0.00825776,0.000
 00033,-0.00254506,0.02014835,0.02393645,-0.00000023,-0.00000653,0.0006
 4079,-0.00014760,0.00124358,0.00063857,0.00014714,-0.00124480,-0.00001
 507,0.00010853,-0.00005275,0.00010301,-0.00001115,-0.00013142,-0.00036
 446,0.00019131,-0.00025982,-0.00001514,-0.00010823,0.00005307,0.000102
 98,0.00001111,0.00013186,-0.00036232,-0.00019086,0.00026028,-0.0008269
 4,0.00000119,0.00000017,-0.03814399,0.00000230,-0.00010029,-0.00854230
 ,0.00000009,0.00000238,-0.00073824,-0.00000124,0.00000014,0.00013684,-
 0.00000081,-0.00000009,0.02082961,-0.00000008,0.02398399,0.00027128,-0
 .00015727,-0.00065978,0.00008197,0.00015726,-0.00065958,0.00008199,0.0
 0004794,0.00004990,-0.00001526,0.00002011,0.00011643,-0.00004479,0.000
 12063,0.00009225,0.00006312,-0.00004801,0.00004994,-0.00001506,-0.0000
 2002,0.00011644,-0.00004500,-0.00012035,0.00009204,0.00006319,0.000000
 09,0.00109831,0.00235599,0.00000210,-0.03981836,0.01926043,0.,-0.00825
 409,-0.00004098,-0.00000015,0.00167772,-0.00228297,0.,-0.00033303,-0.0
 0042229,-0.00000230,0.02071484,-0.00000706,-0.00021465,-0.04470915,0.0
 1169746,-0.00171517,-0.00645605,-0.01169682,-0.00171537,-0.00645192,-0
 .00161935,0.00062332,-0.00000500,-0.00169196,-0.00105665,0.00045864,-0
 .00220307,0.00182434,0.00414205,0.00162019,0.00062264,-0.00000663,0.00
 169393,-0.00105960,0.00046069,0.00220190,0.00182767,0.00413638,-0.0000
 0007,0.01223535,0.00091478,-0.00010173,0.02031575,-0.97262770,0.000002
 18,0.00040472,0.01416422,0.00000010,-0.01180722,0.00079115,0.00000015,
 -0.00785180,-0.00054001,0.00010512,-0.01985281,1.01280495,0.02393884,0
 .00000022,-0.00000699,0.00063893,-0.00015308,-0.00124449,0.00064154,0.
 00015361,0.00124307,-0.00035968,0.00019194,0.00025884,0.00010236,-0.00
 001067,0.00013256,-0.00001566,0.00010814,0.00005308,-0.00036189,-0.000
 19247,-0.00025822,0.00010234,0.00001074,-0.00013209,-0.00001568,-0.000
 10847,-0.00005275,-0.00082661,-0.00000143,0.00000019,-0.00854276,-0.00
 000007,0.00000247,-0.03815123,-0.00000325,-0.00011719,-0.00073773,0.00
 000148,0.00000019,0.00013671,0.00000094,-0.00000011,0.00250845,0.00000
 002,-0.00000093,0.02083035,0.00000004,0.02398273,-0.00060692,-0.000214
 22,-0.00065146,-0.00011025,0.00021422,-0.00065164,-0.00011028,0.000130
 43,0.00008237,-0.00004330,0.00002813,0.00012189,0.00004701,0.00005602,
 0.00004704,0.00001445,-0.00013070,0.00008260,-0.00004321,-0.00002821,0
 .00012186,0.00004680,-0.00005596,0.00004700,0.00001466,-0.00000012,0.0
 0102644,-0.00235656,0.00000002,-0.00825538,0.00015035,-0.00000303,-0.0
 4003457,-0.02380729,0.00000018,0.00174548,0.00227871,0.00000002,-0.000
 29267,0.00042106,-0.00000003,0.00249950,-0.00014905,0.00000325,0.02093
 415,-0.00000750,-0.00012203,-0.04470620,-0.01169481,0.00168743,-0.0064
 5593,0.01169534,0.00168739,-0.00645998,0.00219857,-0.00181314,0.004136
 91,0.00169696,0.00106627,0.00045932,0.00162148,-0.00062183,-0.00000595
 ,-0.00219962,-0.00180985,0.00414258,-0.00169500,0.00106317,0.00045726,
 -0.00162064,-0.00062254,-0.00000432,0.00000041,-0.01223320,0.00098924,
 0.00000207,-0.00029528,0.01416680,-0.00011861,-0.02486358,-0.97238302,
 0.00000020,0.01179999,0.00072444,-0.00000031,0.00784945,-0.00058281,-0
 .00000086,0.00010514,-0.00652013,0.00012244,0.02468878,1.01256056,0.02
 431043,-0.00000042,-0.00000035,0.00073450,0.00125276,-0.00000238,0.000
 73442,-0.00125286,0.00000263,-0.00002934,-0.00017627,-0.00008452,-0.00
 006480,-0.00009353,-0.00000023,-0.00002840,-0.00017594,0.00008485,-0.0
 0002895,0.00017635,0.00008430,-0.00006477,0.00009355,-0.00000010,-0.00
 002874,0.00017593,-0.00008501,-0.00865729,0.00000005,0.00000023,-0.000
 72491,-0.00000007,0.00000022,-0.00072458,0.00000007,0.00000034,-0.0390
 9150,-0.00000389,0.00000060,0.00252548,0.,-0.00000008,0.00011177,0.000
 00003,-0.00000005,0.00011172,-0.00000004,-0.00000012,0.02091497,-0.000
 00021,-0.04481696,0.00016849,0.01171453,-0.00598959,0.00002370,-0.0117
 1462,-0.00598980,0.00001689,-0.00206176,0.00208396,-0.00206083,-0.0017
 9607,-0.00028921,-0.00000264,-0.00206127,0.00207505,0.00204632,0.00206
 120,0.00207656,-0.00205914,0.00179607,-0.00028917,-0.00000014,0.002061
 82,0.00208264,0.00204809,-0.00000019,0.01438737,-0.00005722,-0.0000009
 8,0.00114705,-0.01170048,0.00000113,0.00121482,0.01169947,-0.00000395,
 -0.96916354,0.00219514,0.00000015,-0.00654892,0.00002286,0.00000077,-0
 .00076652,0.00756853,-0.00000090,-0.00080533,-0.00756619,0.00000429,1.
 00959160,-0.00000049,0.00016702,0.02411211,-0.00002844,0.00001247,-0.0
 0064994,0.00002779,0.00001282,-0.00064994,-0.00000698,-0.00007513,0.00
 010749,0.00000411,0.00000082,0.00008446,0.00001718,0.00006544,0.000097
 03,0.00000715,-0.00007501,0.00010738,-0.00000419,0.00000087,0.00008445
 ,-0.00001700,0.00006554,0.00009714,0.00000014,-0.00005531,-0.00827516,
 0.00000023,-0.00234406,0.00131542,0.00000027,0.00234454,0.00124903,0.0
 0000079,0.00219999,-0.03954828,-0.00000007,0.00002179,0.00250606,-0.00
 000007,0.00043604,-0.00055626,-0.00000008,-0.00043497,-0.00051877,-0.0
 0000031,-0.00234287,0.02043777\\0.00000011,-0.00000026,-0.00000160,-0.
 00000077,0.00000005,0.00000254,0.00000055,-0.00000009,0.00000037,0.000
 00142,0.00000071,0.00000003,-0.00000027,0.,0.00000127,-0.00000021,-0.0
 0000108,-0.00000150,0.00000018,0.00000070,0.00000024,-0.00000029,-0.00
 000037,-0.00000022,-0.00000036,0.,-0.00000066,0.00000119,-0.00000436,0
 .00000008,-0.00000045,0.00000082,0.00000017,-0.00000013,0.00000083,-0.
 00000147,-0.00000067,-0.00000135,0.00000028,-0.00000092,0.00000390,-0.
 00000027,-0.00000010,-0.00000003,-0.00000039,0.00000053,0.00000023,0.0
 0000113,0.00000020,0.00000030,0.\\\@


 GOORD'S AXIOM:  A MEETING IS AN EVENT AT WHICH
 THE MINUTES ARE KEPT AND THE HOURS ARE LOST.
 Job cpu time:  0 days  0 hours 31 minutes 46.6 seconds.
 File lengths (MBytes):  RWF=     76 Int=      0 D2E=      0 Chk=      3 Scr=      1
 Normal termination of Gaussian 09 at Fri Mar 12 11:20:39 2010.
