<?xml version="1.0" encoding="UTF-8"?>
<module cmlx:templateRef="gaussian.log" xmlns="http://www.xml-cml.org/schema" xmlns:cmlx="http://www.xml-cml.org/schema/cmlx"> Entering Gaussian System, Link 0=g03 Initial command: /apps/gaussian/g09/g09/l1.exe /home/scan-user-1/run/26217/Gau-30193.inp -scrdir=/home/scan-user-1/run/26217/ Entering Link 1 = /apps/gaussian/g09/g09/l1.exe PID=     30194.  <module cmlx:lineCount="48" cmlx:templateRef="l1.legal"><scalar dataType="xsd:string" dictRef="g:l1.legal">Copyright (c) 1988,1990,1992,1993,1995,1998,2003,2009, Gaussian, Inc.</scalar></module>  <module cmlx:lineCount="18" cmlx:templateRef="l1.citation"><list cmlx:templateRef="citation"><scalar dataType="xsd:string" dictRef="g:l1.citation">Cite this work as:</scalar></list></module> <module cmlx:lineCount="20" cmlx:templateRef="l1.end"><scalar dataType="xsd:string" dictRef="cc:run.date">15-Mar-2010</scalar><scalar dataType="xsd:string" dictRef="cc:program">Gaussian 09</scalar><scalar dataType="xsd:string" dictRef="cc:version">EM64L-G09RevA.02</scalar><scalar dataType="xsd:string" dictRef="cc:program.date">11-Jun-2009</scalar> Will use up to    4 processors via shared memory. %mem=7000MB %NoSave %Chk=chk.chk %rwf=/tmp/pbs.3646626.cx1/rwf<list cmlx:templateRef="control"><scalar dataType="xsd:string" dictRef="g:control">1/38=1,57=2/1</scalar></list><list cmlx:templateRef="control"><scalar dataType="xsd:string" dictRef="g:control">2/12=2,17=6,18=5,40=1/2</scalar></list><list cmlx:templateRef="control"><scalar dataType="xsd:string" dictRef="g:control">3/5=6,6=3,11=2,16=1,25=1,30=1,74=-5,116=1/1,2,3</scalar></list><list cmlx:templateRef="control"><scalar dataType="xsd:string" dictRef="g:control">4//1</scalar></list><list cmlx:templateRef="control"><scalar dataType="xsd:string" dictRef="g:control">5/5=2,38=5/2</scalar></list><list cmlx:templateRef="control"><scalar dataType="xsd:string" dictRef="g:control">6/7=3,28=1/1,7</scalar></list><list cmlx:templateRef="control"><scalar dataType="xsd:string" dictRef="g:control">99/5=1,9=1/99</scalar></list></module><module cmlx:lineCount="3" cmlx:templateRef="l101.title"><scalar dataType="xsd:string" dictRef="cc:title" cmlx:templateRef="title">[No Title]</scalar></module><module cmlx:lineCount="45" cmlx:templateRef="l101"><list cmlx:templateRef="rest"><scalar dataType="xsd:string" dictRef="x:l101"/></list></module><module cmlx:lineCount="48" cmlx:templateRef="l202.orient"><molecule id="mol.l202.orient" cmlx:templateRef="atom"><atomArray><atom id="a1" elementType="Mg" x3="0.919405" y3="0.024517" z3="0.125351"><scalar dataType="xsd:integer" dictRef="cc:serial">1</scalar><scalar dataType="xsd:integer" dictRef="g:atomicType">0</scalar><scalar dataType="xsd:integer" dictRef="compchem:atomicNumber">12</scalar></atom><atom id="a2" elementType="C" x3="-0.333958" y3="-0.246289" z3="1.889278"><scalar dataType="xsd:integer" dictRef="cc:serial">2</scalar><scalar dataType="xsd:integer" dictRef="g:atomicType">0</scalar><scalar dataType="xsd:integer" dictRef="compchem:atomicNumber">6</scalar></atom><atom id="a3" elementType="C" x3="-0.229443" y3="0.012768" z3="-1.735167"><scalar dataType="xsd:integer" dictRef="cc:serial">3</scalar><scalar dataType="xsd:integer" dictRef="g:atomicType">0</scalar><scalar dataType="xsd:integer" dictRef="compchem:atomicNumber">6</scalar></atom><atom id="a4" elementType="C" x3="3.623102" y3="1.025769" z3="1.938416"><scalar dataType="xsd:integer" dictRef="cc:serial">4</scalar><scalar dataType="xsd:integer" dictRef="g:atomicType">0</scalar><scalar dataType="xsd:integer" dictRef="compchem:atomicNumber">6</scalar></atom><atom id="a5" elementType="O" x3="2.193388" y3="-1.550948" z3="-0.048722"><scalar dataType="xsd:integer" dictRef="cc:serial">5</scalar><scalar dataType="xsd:integer" dictRef="g:atomicType">0</scalar><scalar dataType="xsd:integer" dictRef="compchem:atomicNumber">8</scalar></atom><atom id="a6" elementType="Mg" x3="-1.782262" y3="-0.002699" z3="0.02961"><scalar dataType="xsd:integer" dictRef="cc:serial">6</scalar><scalar dataType="xsd:integer" dictRef="g:atomicType">0</scalar><scalar dataType="xsd:integer" dictRef="compchem:atomicNumber">12</scalar></atom><atom id="a7" elementType="Br" x3="-2.599948" y3="2.389041" z3="0.122469"><scalar dataType="xsd:integer" dictRef="cc:serial">7</scalar><scalar dataType="xsd:integer" dictRef="g:atomicType">0</scalar><scalar dataType="xsd:integer" dictRef="compchem:atomicNumber">35</scalar></atom><atom id="a8" elementType="Br" x3="-2.967189" y3="-2.204528" z3="-0.141362"><scalar dataType="xsd:integer" dictRef="cc:serial">8</scalar><scalar dataType="xsd:integer" dictRef="g:atomicType">0</scalar><scalar dataType="xsd:integer" dictRef="compchem:atomicNumber">35</scalar></atom><atom id="a9" elementType="C" x3="2.955504" y3="-1.792146" z3="-1.30218"><scalar dataType="xsd:integer" dictRef="cc:serial">9</scalar><scalar dataType="xsd:integer" dictRef="g:atomicType">0</scalar><scalar dataType="xsd:integer" dictRef="compchem:atomicNumber">6</scalar></atom><atom id="a10" elementType="O" x3="2.011217" y3="1.739355" z3="0.207641"><scalar dataType="xsd:integer" dictRef="cc:serial">10</scalar><scalar dataType="xsd:integer" dictRef="g:atomicType">0</scalar><scalar dataType="xsd:integer" dictRef="compchem:atomicNumber">8</scalar></atom><atom id="a11" elementType="C" x3="4.465515" y3="-1.844023" z3="-1.059107"><scalar dataType="xsd:integer" dictRef="cc:serial">11</scalar><scalar dataType="xsd:integer" dictRef="g:atomicType">0</scalar><scalar dataType="xsd:integer" dictRef="compchem:atomicNumber">6</scalar></atom><atom id="a12" elementType="C" x3="2.009549" y3="-2.749639" z3="0.833605"><scalar dataType="xsd:integer" dictRef="cc:serial">12</scalar><scalar dataType="xsd:integer" dictRef="g:atomicType">0</scalar><scalar dataType="xsd:integer" dictRef="compchem:atomicNumber">6</scalar></atom><atom id="a13" elementType="C" x3="0.959628" y3="-3.721955" z3="0.293181"><scalar dataType="xsd:integer" dictRef="cc:serial">13</scalar><scalar dataType="xsd:integer" dictRef="g:atomicType">0</scalar><scalar dataType="xsd:integer" dictRef="compchem:atomicNumber">6</scalar></atom><atom id="a14" elementType="C" x3="3.363411" y3="1.973101" z3="0.767541"><scalar dataType="xsd:integer" dictRef="cc:serial">14</scalar><scalar dataType="xsd:integer" dictRef="g:atomicType">0</scalar><scalar dataType="xsd:integer" dictRef="compchem:atomicNumber">6</scalar></atom><atom id="a15" elementType="C" x3="1.321045" y3="2.977921" z3="-0.291553"><scalar dataType="xsd:integer" dictRef="cc:serial">15</scalar><scalar dataType="xsd:integer" dictRef="g:atomicType">0</scalar><scalar dataType="xsd:integer" dictRef="compchem:atomicNumber">6</scalar></atom><atom id="a16" elementType="C" x3="1.93929" y3="3.494939" z3="-1.588839"><scalar dataType="xsd:integer" dictRef="cc:serial">16</scalar><scalar dataType="xsd:integer" dictRef="g:atomicType">0</scalar><scalar dataType="xsd:integer" dictRef="compchem:atomicNumber">6</scalar></atom><atom id="a17" elementType="H" x3="4.622582" y3="1.219525" z3="2.348425"><scalar dataType="xsd:integer" dictRef="cc:serial">17</scalar><scalar dataType="xsd:integer" dictRef="g:atomicType">0</scalar><scalar dataType="xsd:integer" dictRef="compchem:atomicNumber">1</scalar></atom><atom id="a18" elementType="H" x3="3.587321" y3="-0.02326" z3="1.624607"><scalar dataType="xsd:integer" dictRef="cc:serial">18</scalar><scalar dataType="xsd:integer" dictRef="g:atomicType">0</scalar><scalar dataType="xsd:integer" dictRef="compchem:atomicNumber">1</scalar></atom><atom id="a19" elementType="H" x3="2.890166" y3="1.184761" z3="2.737173"><scalar dataType="xsd:integer" dictRef="cc:serial">19</scalar><scalar dataType="xsd:integer" dictRef="g:atomicType">0</scalar><scalar dataType="xsd:integer" dictRef="compchem:atomicNumber">1</scalar></atom><atom id="a20" elementType="H" x3="-0.584941" y3="-1.284071" z3="2.162963"><scalar dataType="xsd:integer" dictRef="cc:serial">20</scalar><scalar dataType="xsd:integer" dictRef="g:atomicType">0</scalar><scalar dataType="xsd:integer" dictRef="compchem:atomicNumber">1</scalar></atom><atom id="a21" elementType="H" x3="-1.138644" y3="0.387417" z3="2.305591"><scalar dataType="xsd:integer" dictRef="cc:serial">21</scalar><scalar dataType="xsd:integer" dictRef="g:atomicType">0</scalar><scalar dataType="xsd:integer" dictRef="compchem:atomicNumber">1</scalar></atom><atom id="a22" elementType="H" x3="0.524698" y3="0.037181" z3="2.534059"><scalar dataType="xsd:integer" dictRef="cc:serial">22</scalar><scalar dataType="xsd:integer" dictRef="g:atomicType">0</scalar><scalar dataType="xsd:integer" dictRef="compchem:atomicNumber">1</scalar></atom><atom id="a23" elementType="H" x3="-1.132395" y3="0.480341" z3="-2.167692"><scalar dataType="xsd:integer" dictRef="cc:serial">23</scalar><scalar dataType="xsd:integer" dictRef="g:atomicType">0</scalar><scalar dataType="xsd:integer" dictRef="compchem:atomicNumber">1</scalar></atom><atom id="a24" elementType="H" x3="-0.205408" y3="-1.012489" z3="-2.142395"><scalar dataType="xsd:integer" dictRef="cc:serial">24</scalar><scalar dataType="xsd:integer" dictRef="g:atomicType">0</scalar><scalar dataType="xsd:integer" dictRef="compchem:atomicNumber">1</scalar></atom><atom id="a25" elementType="H" x3="0.576297" y3="0.574679" z3="-2.25293"><scalar dataType="xsd:integer" dictRef="cc:serial">25</scalar><scalar dataType="xsd:integer" dictRef="g:atomicType">0</scalar><scalar dataType="xsd:integer" dictRef="compchem:atomicNumber">1</scalar></atom><atom id="a26" elementType="H" x3="2.583346" y3="-2.716648" z3="-1.756869"><scalar dataType="xsd:integer" dictRef="cc:serial">26</scalar><scalar dataType="xsd:integer" dictRef="g:atomicType">0</scalar><scalar dataType="xsd:integer" dictRef="compchem:atomicNumber">1</scalar></atom><atom id="a27" elementType="H" x3="2.688555" y3="-0.96112" z3="-1.962596"><scalar dataType="xsd:integer" dictRef="cc:serial">27</scalar><scalar dataType="xsd:integer" dictRef="g:atomicType">0</scalar><scalar dataType="xsd:integer" dictRef="compchem:atomicNumber">1</scalar></atom><atom id="a28" elementType="H" x3="4.98354" y3="-1.970968" z3="-2.018594"><scalar dataType="xsd:integer" dictRef="cc:serial">28</scalar><scalar dataType="xsd:integer" dictRef="g:atomicType">0</scalar><scalar dataType="xsd:integer" dictRef="compchem:atomicNumber">1</scalar></atom><atom id="a29" elementType="H" x3="4.822027" y3="-0.915511" z3="-0.598722"><scalar dataType="xsd:integer" dictRef="cc:serial">29</scalar><scalar dataType="xsd:integer" dictRef="g:atomicType">0</scalar><scalar dataType="xsd:integer" dictRef="compchem:atomicNumber">1</scalar></atom><atom id="a30" elementType="H" x3="4.750977" y3="-2.683338" z3="-0.414933"><scalar dataType="xsd:integer" dictRef="cc:serial">30</scalar><scalar dataType="xsd:integer" dictRef="g:atomicType">0</scalar><scalar dataType="xsd:integer" dictRef="compchem:atomicNumber">1</scalar></atom><atom id="a31" elementType="H" x3="1.700183" y3="-2.331161" z3="1.795041"><scalar dataType="xsd:integer" dictRef="cc:serial">31</scalar><scalar dataType="xsd:integer" dictRef="g:atomicType">0</scalar><scalar dataType="xsd:integer" dictRef="compchem:atomicNumber">1</scalar></atom><atom id="a32" elementType="H" x3="2.992045" y3="-3.220848" z3="0.954051"><scalar dataType="xsd:integer" dictRef="cc:serial">32</scalar><scalar dataType="xsd:integer" dictRef="g:atomicType">0</scalar><scalar dataType="xsd:integer" dictRef="compchem:atomicNumber">1</scalar></atom><atom id="a33" elementType="H" x3="0.84186" y3="-4.547095" z3="1.008217"><scalar dataType="xsd:integer" dictRef="cc:serial">33</scalar><scalar dataType="xsd:integer" dictRef="g:atomicType">0</scalar><scalar dataType="xsd:integer" dictRef="compchem:atomicNumber">1</scalar></atom><atom id="a34" elementType="H" x3="1.253083" y3="-4.160472" z3="-0.667881"><scalar dataType="xsd:integer" dictRef="cc:serial">34</scalar><scalar dataType="xsd:integer" dictRef="g:atomicType">0</scalar><scalar dataType="xsd:integer" dictRef="compchem:atomicNumber">1</scalar></atom><atom id="a35" elementType="H" x3="-0.018171" y3="-3.242336" z3="0.176776"><scalar dataType="xsd:integer" dictRef="cc:serial">35</scalar><scalar dataType="xsd:integer" dictRef="g:atomicType">0</scalar><scalar dataType="xsd:integer" dictRef="compchem:atomicNumber">1</scalar></atom><atom id="a36" elementType="H" x3="3.404347" y3="3.016664" z3="1.103049"><scalar dataType="xsd:integer" dictRef="cc:serial">36</scalar><scalar dataType="xsd:integer" dictRef="g:atomicType">0</scalar><scalar dataType="xsd:integer" dictRef="compchem:atomicNumber">1</scalar></atom><atom id="a37" elementType="H" x3="4.095688" y3="1.835496" z3="-0.038171"><scalar dataType="xsd:integer" dictRef="cc:serial">37</scalar><scalar dataType="xsd:integer" dictRef="g:atomicType">0</scalar><scalar dataType="xsd:integer" dictRef="compchem:atomicNumber">1</scalar></atom><atom id="a38" elementType="H" x3="1.374938" y3="3.716613" z3="0.517982"><scalar dataType="xsd:integer" dictRef="cc:serial">38</scalar><scalar dataType="xsd:integer" dictRef="g:atomicType">0</scalar><scalar dataType="xsd:integer" dictRef="compchem:atomicNumber">1</scalar></atom><atom id="a39" elementType="H" x3="0.2714" y3="2.697668" z3="-0.423166"><scalar dataType="xsd:integer" dictRef="cc:serial">39</scalar><scalar dataType="xsd:integer" dictRef="g:atomicType">0</scalar><scalar dataType="xsd:integer" dictRef="compchem:atomicNumber">1</scalar></atom><atom id="a40" elementType="H" x3="1.375761" y3="4.375247" z3="-1.923"><scalar dataType="xsd:integer" dictRef="cc:serial">40</scalar><scalar dataType="xsd:integer" dictRef="g:atomicType">0</scalar><scalar dataType="xsd:integer" dictRef="compchem:atomicNumber">1</scalar></atom><atom id="a41" elementType="H" x3="1.87932" y3="2.739601" z3="-2.380566"><scalar dataType="xsd:integer" dictRef="cc:serial">41</scalar><scalar dataType="xsd:integer" dictRef="g:atomicType">0</scalar><scalar dataType="xsd:integer" dictRef="compchem:atomicNumber">1</scalar></atom><atom id="a42" elementType="H" x3="2.986815" y3="3.794389" z3="-1.461108"><scalar dataType="xsd:integer" dictRef="cc:serial">42</scalar><scalar dataType="xsd:integer" dictRef="g:atomicType">0</scalar><scalar dataType="xsd:integer" dictRef="compchem:atomicNumber">1</scalar></atom></atomArray><formula formalCharge="0" concise="C 10 H 26 Br 2 Mg 2 O 2"><atomArray elementType="C H Br Mg O" count="10.0 26.0 2.0 2.0 2.0"/></formula><bondArray><bond atomRefs2="a1 a2" id="a1_a2" order="S"/><bond atomRefs2="a1 a3" id="a1_a3" order="S"/><bond atomRefs2="a1 a5" id="a1_a5" order="S"/><bond atomRefs2="a1 a6" id="a1_a6" order="S"/><bond atomRefs2="a1 a10" id="a1_a10" order="S"/><bond atomRefs2="a2 a6" id="a2_a6" order="S"/><bond atomRefs2="a2 a20" id="a2_a20" order="S"/><bond atomRefs2="a2 a21" id="a2_a21" order="S"/><bond atomRefs2="a2 a22" id="a2_a22" order="S"/><bond atomRefs2="a3 a6" id="a3_a6" order="S"/><bond atomRefs2="a3 a23" id="a3_a23" order="S"/><bond atomRefs2="a3 a24" id="a3_a24" order="S"/><bond atomRefs2="a3 a25" id="a3_a25" order="S"/><bond atomRefs2="a4 a14" id="a4_a14" order="S"/><bond atomRefs2="a4 a17" id="a4_a17" order="S"/><bond atomRefs2="a4 a18" id="a4_a18" order="S"/><bond atomRefs2="a4 a19" id="a4_a19" order="S"/><bond atomRefs2="a5 a9" id="a5_a9" order="S"/><bond atomRefs2="a5 a12" id="a5_a12" order="S"/><bond atomRefs2="a6 a7" id="a6_a7" order="S"/><bond atomRefs2="a6 a8" id="a6_a8" order="S"/><bond atomRefs2="a9 a11" id="a9_a11" order="S"/><bond atomRefs2="a9 a26" id="a9_a26" order="S"/><bond atomRefs2="a9 a27" id="a9_a27" order="S"/><bond atomRefs2="a10 a14" id="a10_a14" order="S"/><bond atomRefs2="a10 a15" id="a10_a15" order="S"/><bond atomRefs2="a11 a28" id="a11_a28" order="S"/><bond atomRefs2="a11 a29" id="a11_a29" order="S"/><bond atomRefs2="a11 a30" id="a11_a30" order="S"/><bond atomRefs2="a12 a13" id="a12_a13" order="S"/><bond atomRefs2="a12 a31" id="a12_a31" order="S"/><bond atomRefs2="a12 a32" id="a12_a32" order="S"/><bond atomRefs2="a13 a33" id="a13_a33" order="S"/><bond atomRefs2="a13 a34" id="a13_a34" order="S"/><bond atomRefs2="a13 a35" id="a13_a35" order="S"/><bond atomRefs2="a14 a36" id="a14_a36" order="S"/><bond atomRefs2="a14 a37" id="a14_a37" order="S"/><bond atomRefs2="a15 a16" id="a15_a16" order="S"/><bond atomRefs2="a15 a38" id="a15_a38" order="S"/><bond atomRefs2="a15 a39" id="a15_a39" order="S"/><bond atomRefs2="a16 a40" id="a16_a40" order="S"/><bond atomRefs2="a16 a41" id="a16_a41" order="S"/><bond atomRefs2="a16 a42" id="a16_a42" order="S"/></bondArray><property dictRef="cml:molmass"><scalar dataType="xsd:double" units="unit:dalton" xmlns:unit="http://www.xml-cml.org/unit/si/">386.73024000000004</scalar></property></molecule></module><module cmlx:lineCount="208" cmlx:templateRef="l202.distmat"><array dataType="xsd:double" size="900" dictRef="cc:distance">0.0 2.180755 0.0 2.186668 3.635194 0.0 3.405831 4.156786 5.418809 0.0 2.033574 3.441723 3.340571 3.55419 0.0 2.7035 2.369659 2.350728 5.824023 4.267201 0.0 4.239909 3.898883 3.836245 6.624389 6.207164 2.529358 0.0 4.488362 3.859029 3.866765 7.628383 5.202625 2.506259 4.615772 0.0 3.079579 4.836904 3.686337 4.346009 1.486659 5.236622 7.097535 6.04945 0.0 2.034575 3.502932 3.431641 2.470417 3.305299 4.178149 4.657487 6.36086 3.95509 0.0 4.179627 5.85497 5.093855 4.234443 2.503863 6.603824 8.3208 7.49782 1.53033 4.524249 0.0 3.063655 3.587929 4.386635 4.251807 1.499719 4.750781 6.939684 5.100552 2.52452 4.532428 3.230212 0.0 3.750445 4.037468 4.413189 5.686983 2.520383 4.628207 7.074178 4.232175 3.202009 5.562289 4.20078 1.529637 0.0 3.191011 4.455841 4.797401 1.528341 3.801863 5.56114 6.012551 7.639057 4.315926 1.482078 4.372838 4.913408 6.199746 0.0 3.009604 4.229727 3.644196 3.752749 4.618507 4.31483 3.986525 6.728245 5.142603 1.503189 5.807579 5.877496 6.735048 2.510498 0.0 4.002804 5.59122 4.104915 4.623154 5.281809 5.357499 4.975567 7.658502 5.391487 2.512885 5.930172 6.698352 7.52232 3.145892 1.527248 0.0 4.481475 5.189096 6.455551 1.097547 4.395773 6.92046 7.647718 8.690673 5.017592 3.41649 4.584896 4.987673 6.485328 2.156985 4.578383 5.280115 0.0 3.060691 3.936524 5.084984 1.095545 2.660246 5.601505 6.808665 7.13009 3.477676 2.756575 3.35987 3.247798 4.728405 2.184068 4.220754 5.041822 1.772059 0.0 3.471553 3.62792 5.577397 1.095667 3.966209 5.529244 6.199058 7.354036 5.018228 2.734714 5.105585 4.458538 5.811707 2.173681 3.853666 4.995545 1.775837 1.784136 0.0 2.850846 1.102219 4.123541 4.80556 3.561164 2.761646 4.660002 3.439805 4.979971 4.438967 6.016842 3.262891 3.438758 5.305267 5.274657 6.579263 5.781063 4.391724 4.301304 0.0 3.020051 1.105631 4.158694 4.818354 4.516911 2.397191 3.302716 4.006162 5.8761 4.0188 6.907034 4.681771 5.033833 5.014827 4.416553 5.85636 5.821165 4.792404 4.129568 1.766579 0.0 2.440866 1.11058 4.335391 3.306388 3.460843 3.405278 4.594608 4.937247 4.896119 3.243356 5.655069 3.58646 4.397932 3.863504 4.155262 5.563762 4.269081 3.195374 2.636974 1.764856 1.7151 0.0 3.11058 4.198154 1.105 6.306534 4.435877 2.34175 3.322903 3.83158 4.756493 4.136378 6.161836 5.41409 5.300165 5.572809 3.972049 4.342594 7.35265 6.075431 6.38239 4.70823 4.474252 5.004879 0.0 2.735554 4.105846 1.103433 5.95525 3.229184 2.867708 4.736437 3.612828 3.362319 4.243671 4.866465 4.096377 3.82499 5.487982 4.656076 5.022257 6.961238 5.436329 6.182287 4.330578 4.755549 4.848101 1.757409 0.0 2.46508 4.319773 1.110423 5.201335 3.462919 3.33259 4.361532 4.973832 3.488038 3.077316 4.733006 4.75731 5.009061 4.341294 3.190176 3.290393 6.161227 4.945613 5.534195 4.929862 4.874034 4.817347 1.713416 1.772677 0.0 3.718257 5.282776 3.919434 5.361148 2.104445 5.442018 7.51442 5.803496 1.095421 4.903325 2.188814 2.653467 2.801751 5.382833 6.014039 6.247148 6.041968 4.438095 5.959156 5.23979 6.323924 5.498515 4.918968 3.290887 3.886792 0.0 2.908762 4.948081 3.084622 4.476494 2.063008 4.987551 6.598435 6.070453 1.094539 3.530054 2.180229 3.388007 3.962314 4.064324 4.49205 4.534044 5.2039 3.815152 5.170424 5.276392 5.889263 5.089085 4.088953 2.899998 2.627662 1.77067 0.0 5.009556 6.820687 5.584866 5.146761 3.441186 7.337936 9.005727 8.172677 2.158276 5.249507 1.097761 4.193565 4.960053 5.093432 6.394376 6.271227 5.420368 4.360723 6.079322 6.997516 7.857588 6.681361 6.590585 5.278181 5.095 2.526949 2.507964 0.0 4.079019 5.763869 5.260281 3.412193 2.759714 6.696616 8.156341 7.90839 2.178819 3.949581 1.095988 3.650427 4.856928 3.512594 5.245001 5.36121 3.644699 2.695144 4.389923 6.082602 6.757385 5.402682 6.31389 5.259984 4.794089 3.097917 2.532575 1.776545 0.0 4.722852 6.091401 5.815203 4.535177 2.820936 7.07578 8.947286 7.737841 2.192066 5.239666 1.095855 3.013083 3.994306 5.000601 6.620386 6.888741 4.783824 3.548216 5.325465 6.088967 7.177633 5.827453 6.906164 5.508322 5.605431 2.549613 3.100787 1.770109 1.778775 0.0 2.991103 2.914327 4.65616 3.871324 2.061903 4.545977 6.600677 5.054706 3.385136 4.380146 4.003814 1.093248 2.176767 4.727447 5.71699 6.741755 4.631849 2.986092 3.82954 2.540385 3.963618 2.745352 5.624171 4.568761 5.10814 3.680305 4.119918 5.045194 4.180918 3.783564 0.0 3.938905 4.559051 5.29775 4.404652 2.105225 5.831388 7.964469 6.143721 2.670787 5.111043 2.849485 1.096286 2.195126 5.210547 6.539764 7.257849 4.931515 3.320929 4.753871 4.243513 5.64879 4.381664 6.360431 4.968756 5.525087 2.787533 3.702068 3.790102 3.32784 2.292788 1.779807 0.0 4.656727 4.54486 5.428277 6.297411 3.452629 5.338092 7.793624 4.617143 4.170752 6.444204 4.971046 2.150543 1.098181 6.994934 7.651463 8.521934 7.024523 5.32753 6.327639 3.743865 5.473115 4.841939 6.265716 4.849388 6.077678 3.745532 5.009514 5.740342 5.622489 4.558524 2.503233 2.526888 0.0 4.272551 4.937468 4.555537 6.269519 2.842032 5.194891 7.639805 4.6812 2.984885 6.012426 3.979788 2.194801 1.096382 6.643391 7.148629 7.741083 7.028228 5.274532 6.545682 4.434602 5.936766 5.32947 5.42928 3.769772 5.039055 2.245022 3.73801 4.531519 4.824097 3.805413 3.100365 2.556862 1.768583 0.0 3.399121 3.465355 3.780987 5.880388 2.79332 3.691737 6.195234 3.142446 3.623963 5.379276 4.856555 2.187652 1.095297 6.243788 6.380002 7.234634 6.794178 5.045616 5.883302 2.84622 4.354586 4.075135 4.53832 3.222705 4.563602 3.283782 4.136088 5.60831 5.426143 4.838116 2.53017 3.109022 1.770125 1.781153 0.0 4.010458 5.023937 5.503026 2.170105 4.863751 6.096699 6.116127 8.331019 5.395483 2.091431 5.424691 5.938713 7.213981 1.096934 2.507302 3.101838 2.502952 3.089764 2.508109 5.961053 5.384962 4.383775 6.141067 6.308511 5.022325 6.459415 5.0728 6.092206 4.513074 6.05043 5.655286 6.252899 7.9866 7.699053 7.193517 0.0 3.65994 5.26029 4.990881 2.187668 3.884181 6.159046 6.720399 8.137363 4.007184 2.101115 3.836397 5.112282 6.38983 1.097423 3.011309 3.131832 2.520492 2.545239 3.09504 6.04028 5.915098 4.754185 5.805528 5.571194 4.345219 5.095401 3.674846 4.381726 2.89997 4.581617 5.143942 5.269644 7.240151 6.665476 6.538686 1.781991 0.0 3.740754 4.528286 4.622682 3.783189 5.360803 4.90303 4.209346 7.372158 6.013119 2.100169 6.554353 6.50498 7.453544 2.656339 1.097232 2.192334 4.486999 4.483961 3.692018 5.617288 4.538412 4.280852 4.896225 5.651505 4.264684 6.929794 5.455277 7.197555 5.880988 7.295707 6.189688 7.136775 8.295383 7.96678 7.10522 2.225024 3.35416 0.0 2.804731 3.792194 3.029996 4.427891 4.678139 3.422647 2.938981 5.882125 5.304292 2.084045 6.214658 5.854382 6.496027 3.391653 1.094358 2.185473 5.366508 4.753121 4.374307 4.824482 3.843384 3.985917 3.151278 4.116838 2.819234 6.036446 4.647495 6.822449 5.813268 7.001564 5.678995 6.657888 7.406813 6.932364 5.977243 3.499492 3.939129 1.772514 0.0 4.830409 6.230184 4.652224 5.583912 6.269068 5.740401 4.892363 8.082629 6.396698 3.448385 6.998015 7.665805 8.405314 4.11826 2.148752 1.097347 6.224588 6.068227 5.847208 7.250333 6.33293 6.277619 4.639075 5.619246 3.897732 7.19589 5.495617 7.300661 6.451557 7.968059 7.674958 8.281936 9.406661 8.628376 8.023695 3.888172 4.171441 2.528279 2.506668 0.0 3.817426 5.660893 3.506999 4.963023 4.893357 5.17072 5.143143 7.276475 4.780985 2.777896 5.426257 6.362359 7.053117 3.563794 2.175418 1.095885 5.674458 5.156751 5.443399 6.55028 6.049871 5.769889 3.770941 4.298953 2.530029 5.536723 3.811154 5.653023 5.019396 6.443477 6.57118 6.919883 8.102846 7.136979 6.776728 3.812879 3.349105 3.100086 2.533492 1.771518 4.5829 6.211256 4.971929 4.430224 5.585426 6.275684 5.974499 8.554467 5.588883 2.82129 5.842931 7.003218 7.980128 2.902721 2.193004 1.096948 4.880389 4.94537 4.944195 7.189025 6.543309 6.011655 5.33386 5.81038 4.099282 6.530227 4.791171 6.126748 5.127852 6.794682 7.055515 7.419338 8.959841 8.18015 7.824839 2.711843 2.663008 2.553624 3.107024 1.773763</array></module><module cmlx:lineCount="6" cmlx:templateRef="l202.stoich"><scalar dataType="xsd:string" dictRef="cc:formula" cmlx:templateRef="stoich">C10H26Br2Mg2O2</scalar><scalar dataType="xsd:string" dictRef="cc:frameworkgroup" cmlx:templateRef="framework">C1[X(C10H26Br2Mg2O2)]</scalar><scalar dataType="xsd:integer" dictRef="cc:degfreedom" cmlx:templateRef="degfreedom">120</scalar><scalar dataType="xsd:string" dictRef="cc:pointgroup">C1</scalar><scalar dataType="xsd:integer" dictRef="cc:operatorcount">1</scalar><scalar dataType="xsd:string" dictRef="cc:largestabelian">C1</scalar><scalar dataType="xsd:integer" dictRef="cc:operatorcount">1</scalar><scalar dataType="xsd:string" dictRef="cc:largestconciseabelian">C1</scalar><scalar dataType="xsd:integer" dictRef="cc:operatorcount">1</scalar></module><module cmlx:lineCount="48" cmlx:templateRef="l202.orient"><molecule id="a42" cmlx:templateRef="atom"><atomArray><atom id="a1" elementType="Mg" x3="0.919405" y3="0.024517" z3="0.125351"><scalar dataType="xsd:integer" dictRef="cc:serial">1</scalar><scalar dataType="xsd:integer" dictRef="g:atomicType">0</scalar><scalar dataType="xsd:integer" dictRef="compchem:atomicNumber">12</scalar></atom><atom id="a2" elementType="C" x3="-0.333958" y3="-0.246289" z3="1.889278"><scalar dataType="xsd:integer" dictRef="cc:serial">2</scalar><scalar dataType="xsd:integer" dictRef="g:atomicType">0</scalar><scalar dataType="xsd:integer" dictRef="compchem:atomicNumber">6</scalar></atom><atom id="a3" elementType="C" x3="-0.229443" y3="0.012768" z3="-1.735167"><scalar dataType="xsd:integer" dictRef="cc:serial">3</scalar><scalar dataType="xsd:integer" dictRef="g:atomicType">0</scalar><scalar dataType="xsd:integer" dictRef="compchem:atomicNumber">6</scalar></atom><atom id="a4" elementType="C" x3="3.623102" y3="1.025769" z3="1.938416"><scalar dataType="xsd:integer" dictRef="cc:serial">4</scalar><scalar dataType="xsd:integer" dictRef="g:atomicType">0</scalar><scalar dataType="xsd:integer" dictRef="compchem:atomicNumber">6</scalar></atom><atom id="a5" elementType="O" x3="2.193388" y3="-1.550948" z3="-0.048722"><scalar dataType="xsd:integer" dictRef="cc:serial">5</scalar><scalar dataType="xsd:integer" dictRef="g:atomicType">0</scalar><scalar dataType="xsd:integer" dictRef="compchem:atomicNumber">8</scalar></atom><atom id="a6" elementType="Mg" x3="-1.782262" y3="-0.002699" z3="0.02961"><scalar dataType="xsd:integer" dictRef="cc:serial">6</scalar><scalar dataType="xsd:integer" dictRef="g:atomicType">0</scalar><scalar dataType="xsd:integer" dictRef="compchem:atomicNumber">12</scalar></atom><atom id="a7" elementType="Br" x3="-2.599948" y3="2.389041" z3="0.122469"><scalar dataType="xsd:integer" dictRef="cc:serial">7</scalar><scalar dataType="xsd:integer" dictRef="g:atomicType">0</scalar><scalar dataType="xsd:integer" dictRef="compchem:atomicNumber">35</scalar></atom><atom id="a8" elementType="Br" x3="-2.967189" y3="-2.204528" z3="-0.141362"><scalar dataType="xsd:integer" dictRef="cc:serial">8</scalar><scalar dataType="xsd:integer" dictRef="g:atomicType">0</scalar><scalar dataType="xsd:integer" dictRef="compchem:atomicNumber">35</scalar></atom><atom id="a9" elementType="C" x3="2.955504" y3="-1.792146" z3="-1.30218"><scalar dataType="xsd:integer" dictRef="cc:serial">9</scalar><scalar dataType="xsd:integer" dictRef="g:atomicType">0</scalar><scalar dataType="xsd:integer" dictRef="compchem:atomicNumber">6</scalar></atom><atom id="a10" elementType="O" x3="2.011217" y3="1.739355" z3="0.207641"><scalar dataType="xsd:integer" dictRef="cc:serial">10</scalar><scalar dataType="xsd:integer" dictRef="g:atomicType">0</scalar><scalar dataType="xsd:integer" dictRef="compchem:atomicNumber">8</scalar></atom><atom id="a11" elementType="C" x3="4.465515" y3="-1.844023" z3="-1.059107"><scalar dataType="xsd:integer" dictRef="cc:serial">11</scalar><scalar dataType="xsd:integer" dictRef="g:atomicType">0</scalar><scalar dataType="xsd:integer" dictRef="compchem:atomicNumber">6</scalar></atom><atom id="a12" elementType="C" x3="2.009549" y3="-2.749639" z3="0.833605"><scalar dataType="xsd:integer" dictRef="cc:serial">12</scalar><scalar dataType="xsd:integer" dictRef="g:atomicType">0</scalar><scalar dataType="xsd:integer" dictRef="compchem:atomicNumber">6</scalar></atom><atom id="a13" elementType="C" x3="0.959628" y3="-3.721955" z3="0.293181"><scalar dataType="xsd:integer" dictRef="cc:serial">13</scalar><scalar dataType="xsd:integer" dictRef="g:atomicType">0</scalar><scalar dataType="xsd:integer" dictRef="compchem:atomicNumber">6</scalar></atom><atom id="a14" elementType="C" x3="3.363411" y3="1.973101" z3="0.767541"><scalar dataType="xsd:integer" dictRef="cc:serial">14</scalar><scalar dataType="xsd:integer" dictRef="g:atomicType">0</scalar><scalar dataType="xsd:integer" dictRef="compchem:atomicNumber">6</scalar></atom><atom id="a15" elementType="C" x3="1.321045" y3="2.977921" z3="-0.291553"><scalar dataType="xsd:integer" dictRef="cc:serial">15</scalar><scalar dataType="xsd:integer" dictRef="g:atomicType">0</scalar><scalar dataType="xsd:integer" dictRef="compchem:atomicNumber">6</scalar></atom><atom id="a16" elementType="C" x3="1.93929" y3="3.494939" z3="-1.588839"><scalar dataType="xsd:integer" dictRef="cc:serial">16</scalar><scalar dataType="xsd:integer" dictRef="g:atomicType">0</scalar><scalar dataType="xsd:integer" dictRef="compchem:atomicNumber">6</scalar></atom><atom id="a17" elementType="H" x3="4.622582" y3="1.219525" z3="2.348425"><scalar dataType="xsd:integer" dictRef="cc:serial">17</scalar><scalar dataType="xsd:integer" dictRef="g:atomicType">0</scalar><scalar dataType="xsd:integer" dictRef="compchem:atomicNumber">1</scalar></atom><atom id="a18" elementType="H" x3="3.587321" y3="-0.02326" z3="1.624607"><scalar dataType="xsd:integer" dictRef="cc:serial">18</scalar><scalar dataType="xsd:integer" dictRef="g:atomicType">0</scalar><scalar dataType="xsd:integer" dictRef="compchem:atomicNumber">1</scalar></atom><atom id="a19" elementType="H" x3="2.890166" y3="1.184761" z3="2.737173"><scalar dataType="xsd:integer" dictRef="cc:serial">19</scalar><scalar dataType="xsd:integer" dictRef="g:atomicType">0</scalar><scalar dataType="xsd:integer" dictRef="compchem:atomicNumber">1</scalar></atom><atom id="a20" elementType="H" x3="-0.584941" y3="-1.284071" z3="2.162963"><scalar dataType="xsd:integer" dictRef="cc:serial">20</scalar><scalar dataType="xsd:integer" dictRef="g:atomicType">0</scalar><scalar dataType="xsd:integer" dictRef="compchem:atomicNumber">1</scalar></atom><atom id="a21" elementType="H" x3="-1.138644" y3="0.387417" z3="2.305591"><scalar dataType="xsd:integer" dictRef="cc:serial">21</scalar><scalar dataType="xsd:integer" dictRef="g:atomicType">0</scalar><scalar dataType="xsd:integer" dictRef="compchem:atomicNumber">1</scalar></atom><atom id="a22" elementType="H" x3="0.524698" y3="0.037181" z3="2.534059"><scalar dataType="xsd:integer" dictRef="cc:serial">22</scalar><scalar dataType="xsd:integer" dictRef="g:atomicType">0</scalar><scalar dataType="xsd:integer" dictRef="compchem:atomicNumber">1</scalar></atom><atom id="a23" elementType="H" x3="-1.132395" y3="0.480341" z3="-2.167692"><scalar dataType="xsd:integer" dictRef="cc:serial">23</scalar><scalar dataType="xsd:integer" dictRef="g:atomicType">0</scalar><scalar dataType="xsd:integer" dictRef="compchem:atomicNumber">1</scalar></atom><atom id="a24" elementType="H" x3="-0.205408" y3="-1.012489" z3="-2.142395"><scalar dataType="xsd:integer" dictRef="cc:serial">24</scalar><scalar dataType="xsd:integer" dictRef="g:atomicType">0</scalar><scalar dataType="xsd:integer" dictRef="compchem:atomicNumber">1</scalar></atom><atom id="a25" elementType="H" x3="0.576297" y3="0.574679" z3="-2.25293"><scalar dataType="xsd:integer" dictRef="cc:serial">25</scalar><scalar dataType="xsd:integer" dictRef="g:atomicType">0</scalar><scalar dataType="xsd:integer" dictRef="compchem:atomicNumber">1</scalar></atom><atom id="a26" elementType="H" x3="2.583346" y3="-2.716648" z3="-1.756869"><scalar dataType="xsd:integer" dictRef="cc:serial">26</scalar><scalar dataType="xsd:integer" dictRef="g:atomicType">0</scalar><scalar dataType="xsd:integer" dictRef="compchem:atomicNumber">1</scalar></atom><atom id="a27" elementType="H" x3="2.688555" y3="-0.96112" z3="-1.962596"><scalar dataType="xsd:integer" dictRef="cc:serial">27</scalar><scalar dataType="xsd:integer" dictRef="g:atomicType">0</scalar><scalar dataType="xsd:integer" dictRef="compchem:atomicNumber">1</scalar></atom><atom id="a28" elementType="H" x3="4.98354" y3="-1.970968" z3="-2.018594"><scalar dataType="xsd:integer" dictRef="cc:serial">28</scalar><scalar dataType="xsd:integer" dictRef="g:atomicType">0</scalar><scalar dataType="xsd:integer" dictRef="compchem:atomicNumber">1</scalar></atom><atom id="a29" elementType="H" x3="4.822027" y3="-0.915511" z3="-0.598722"><scalar dataType="xsd:integer" dictRef="cc:serial">29</scalar><scalar dataType="xsd:integer" dictRef="g:atomicType">0</scalar><scalar dataType="xsd:integer" dictRef="compchem:atomicNumber">1</scalar></atom><atom id="a30" elementType="H" x3="4.750977" y3="-2.683338" z3="-0.414933"><scalar dataType="xsd:integer" dictRef="cc:serial">30</scalar><scalar dataType="xsd:integer" dictRef="g:atomicType">0</scalar><scalar dataType="xsd:integer" dictRef="compchem:atomicNumber">1</scalar></atom><atom id="a31" elementType="H" x3="1.700183" y3="-2.331161" z3="1.795041"><scalar dataType="xsd:integer" dictRef="cc:serial">31</scalar><scalar dataType="xsd:integer" dictRef="g:atomicType">0</scalar><scalar dataType="xsd:integer" dictRef="compchem:atomicNumber">1</scalar></atom><atom id="a32" elementType="H" x3="2.992045" y3="-3.220848" z3="0.954051"><scalar dataType="xsd:integer" dictRef="cc:serial">32</scalar><scalar dataType="xsd:integer" dictRef="g:atomicType">0</scalar><scalar dataType="xsd:integer" dictRef="compchem:atomicNumber">1</scalar></atom><atom id="a33" elementType="H" x3="0.84186" y3="-4.547095" z3="1.008217"><scalar dataType="xsd:integer" dictRef="cc:serial">33</scalar><scalar dataType="xsd:integer" dictRef="g:atomicType">0</scalar><scalar dataType="xsd:integer" dictRef="compchem:atomicNumber">1</scalar></atom><atom id="a34" elementType="H" x3="1.253083" y3="-4.160472" z3="-0.667881"><scalar dataType="xsd:integer" dictRef="cc:serial">34</scalar><scalar dataType="xsd:integer" dictRef="g:atomicType">0</scalar><scalar dataType="xsd:integer" dictRef="compchem:atomicNumber">1</scalar></atom><atom id="a35" elementType="H" x3="-0.018171" y3="-3.242336" z3="0.176776"><scalar dataType="xsd:integer" dictRef="cc:serial">35</scalar><scalar dataType="xsd:integer" dictRef="g:atomicType">0</scalar><scalar dataType="xsd:integer" dictRef="compchem:atomicNumber">1</scalar></atom><atom id="a36" elementType="H" x3="3.404347" y3="3.016664" z3="1.103049"><scalar dataType="xsd:integer" dictRef="cc:serial">36</scalar><scalar dataType="xsd:integer" dictRef="g:atomicType">0</scalar><scalar dataType="xsd:integer" dictRef="compchem:atomicNumber">1</scalar></atom><atom id="a37" elementType="H" x3="4.095688" y3="1.835496" z3="-0.038171"><scalar dataType="xsd:integer" dictRef="cc:serial">37</scalar><scalar dataType="xsd:integer" dictRef="g:atomicType">0</scalar><scalar dataType="xsd:integer" dictRef="compchem:atomicNumber">1</scalar></atom><atom id="a38" elementType="H" x3="1.374938" y3="3.716613" z3="0.517982"><scalar dataType="xsd:integer" dictRef="cc:serial">38</scalar><scalar dataType="xsd:integer" dictRef="g:atomicType">0</scalar><scalar dataType="xsd:integer" dictRef="compchem:atomicNumber">1</scalar></atom><atom id="a39" elementType="H" x3="0.2714" y3="2.697668" z3="-0.423166"><scalar dataType="xsd:integer" dictRef="cc:serial">39</scalar><scalar dataType="xsd:integer" dictRef="g:atomicType">0</scalar><scalar dataType="xsd:integer" dictRef="compchem:atomicNumber">1</scalar></atom><atom id="a40" elementType="H" x3="1.375761" y3="4.375247" z3="-1.923"><scalar dataType="xsd:integer" dictRef="cc:serial">40</scalar><scalar dataType="xsd:integer" dictRef="g:atomicType">0</scalar><scalar dataType="xsd:integer" dictRef="compchem:atomicNumber">1</scalar></atom><atom id="a41" elementType="H" x3="1.87932" y3="2.739601" z3="-2.380566"><scalar dataType="xsd:integer" dictRef="cc:serial">41</scalar><scalar dataType="xsd:integer" dictRef="g:atomicType">0</scalar><scalar dataType="xsd:integer" dictRef="compchem:atomicNumber">1</scalar></atom><atom id="a42" elementType="H" x3="2.986815" y3="3.794389" z3="-1.461108"><scalar dataType="xsd:integer" dictRef="cc:serial">42</scalar><scalar dataType="xsd:integer" dictRef="g:atomicType">0</scalar><scalar dataType="xsd:integer" dictRef="compchem:atomicNumber">1</scalar></atom></atomArray><formula formalCharge="0" concise="C 10 H 26 Br 2 Mg 2 O 2"><atomArray elementType="C H Br Mg O" count="10.0 26.0 2.0 2.0 2.0"/></formula><bondArray><bond atomRefs2="a1 a2" id="a1_a2" order="S"/><bond atomRefs2="a1 a3" id="a1_a3" order="S"/><bond atomRefs2="a1 a5" id="a1_a5" order="S"/><bond atomRefs2="a1 a6" id="a1_a6" order="S"/><bond atomRefs2="a1 a10" id="a1_a10" order="S"/><bond atomRefs2="a2 a6" id="a2_a6" order="S"/><bond atomRefs2="a2 a20" id="a2_a20" order="S"/><bond atomRefs2="a2 a21" id="a2_a21" order="S"/><bond atomRefs2="a2 a22" id="a2_a22" order="S"/><bond atomRefs2="a3 a6" id="a3_a6" order="S"/><bond atomRefs2="a3 a23" id="a3_a23" order="S"/><bond atomRefs2="a3 a24" id="a3_a24" order="S"/><bond atomRefs2="a3 a25" id="a3_a25" order="S"/><bond atomRefs2="a4 a14" id="a4_a14" order="S"/><bond atomRefs2="a4 a17" id="a4_a17" order="S"/><bond atomRefs2="a4 a18" id="a4_a18" order="S"/><bond atomRefs2="a4 a19" id="a4_a19" order="S"/><bond atomRefs2="a5 a9" id="a5_a9" order="S"/><bond atomRefs2="a5 a12" id="a5_a12" order="S"/><bond atomRefs2="a6 a7" id="a6_a7" order="S"/><bond atomRefs2="a6 a8" id="a6_a8" order="S"/><bond atomRefs2="a9 a11" id="a9_a11" order="S"/><bond atomRefs2="a9 a26" id="a9_a26" order="S"/><bond atomRefs2="a9 a27" id="a9_a27" order="S"/><bond atomRefs2="a10 a14" id="a10_a14" order="S"/><bond atomRefs2="a10 a15" id="a10_a15" order="S"/><bond atomRefs2="a11 a28" id="a11_a28" order="S"/><bond atomRefs2="a11 a29" id="a11_a29" order="S"/><bond atomRefs2="a11 a30" id="a11_a30" order="S"/><bond atomRefs2="a12 a13" id="a12_a13" order="S"/><bond atomRefs2="a12 a31" id="a12_a31" order="S"/><bond atomRefs2="a12 a32" id="a12_a32" order="S"/><bond atomRefs2="a13 a33" id="a13_a33" order="S"/><bond atomRefs2="a13 a34" id="a13_a34" order="S"/><bond atomRefs2="a13 a35" id="a13_a35" order="S"/><bond atomRefs2="a14 a36" id="a14_a36" order="S"/><bond atomRefs2="a14 a37" id="a14_a37" order="S"/><bond atomRefs2="a15 a16" id="a15_a16" order="S"/><bond atomRefs2="a15 a38" id="a15_a38" order="S"/><bond atomRefs2="a15 a39" id="a15_a39" order="S"/><bond atomRefs2="a16 a40" id="a16_a40" order="S"/><bond atomRefs2="a16 a41" id="a16_a41" order="S"/><bond atomRefs2="a16 a42" id="a16_a42" order="S"/></bondArray><property dictRef="cml:molmass"><scalar dataType="xsd:double" units="unit:dalton" xmlns:unit="http://www.xml-cml.org/unit/si/">386.73024000000004</scalar></property></molecule></module><module cmlx:lineCount="1" cmlx:templateRef="l202.rotconst"><array dataType="xsd:double" size="3" dictRef="cc:rotconst" cmlx:templateRef="rotconst">0.2497383 0.1883713 0.1222754</array></module><scalar dataType="xsd:integer" dictRef="g:buffer" cmlx:templateRef="buffer">131072</scalar><scalar dataType="xsd:string" dictRef="g:raffenetti" cmlx:templateRef="raff">Raffenetti</scalar><scalar dataType="xsd:string" dictRef="g:twoe" cmlx:templateRef="twoe">Two-electron</scalar><module cmlx:lineCount="9" cmlx:templateRef="l301.basis"><scalar dataType="xsd:string" dictRef="cc:basis">LANL2DZ</scalar><scalar dataType="xsd:string" dictRef="cc:diffuse">(5D, 7F)</scalar><list cmlx:lineCount="1" cmlx:templateRef="symmadapt"><array dataType="xsd:integer" dictRef="cc:adapted" size="1">192</array><array dataType="xsd:string" dictRef="cc:symm" size="1">A</array></list><scalar dataType="xsd:integer" dictRef="cc:basiscount">192</scalar><scalar dataType="xsd:integer" dictRef="g:primbasis">452</scalar><scalar dataType="xsd:integer" dictRef="cc:cartesianbasis">192</scalar><scalar dataType="xsd:integer" dictRef="cc:alphae">60</scalar><scalar dataType="xsd:integer" dictRef="cc:betae">60</scalar> NAtoms=   42 NActive=   42 NUniq=   42 SFac= 7.50D-01 NAtFMM=   80 NAOKFM=F Big=F</module><module cmlx:lineCount="1" cmlx:templateRef="l302.basis"><list cmlx:templateRef="onee"><scalar dataType="xsd:string" dictRef="g:onee">One-electron integrals</scalar></list></module>   1 Symmetry operations used in ECPInt. ECPInt:  NShTT=    8256 NPrTT=   48008 LenC2=    8030 LenP2D=   30297. LDataN:  DoStor=T MaxTD1= 4 Len=   56 NBasis=   192 RedAO= T  NBF=   192 NBsUse=   192 1.00D-06 NBFU=   192 Harris functional with IExCor=  402 diagonalized for initial guess. ExpMin= 4.04D-02 ExpMax= 7.82D+03 ExpMxC= 2.73D+02 IAcc=2 IRadAn=         0 AccDes= 0.00D+00 HarFok:  IExCor=  402 AccDes= 0.00D+00 IRadAn=         0 IDoV= 1 ScaDFX=  1.000000  1.000000  1.000000  1.000000 FoFCou: FMM=F IPFlag=           0 FMFlag=      100000 FMFlg1=           0         NFxFlg=           0 DoJE=T BraDBF=F KetDBF=T FulRan=T         Omega=  0.000000  0.000000  1.000000  0.000000  0.000000 ICntrl=     500 IOpCl=  0         NMat0=    1 NMatS0=    1 NMatT0=    0 NMatD0=    1 NMtDS0=    0 NMtDT0=    0         I1Cent=           4 NGrid=           0. Petite list used in FoFCou. Initial guess orbital symmetries:       Occupied  (A) (A) (A) (A) (A) (A) (A) (A) (A) (A) (A) (A)                 (A) (A) (A) (A) (A) (A) (A) (A) (A) (A) (A) (A)                 (A) (A) (A) (A) (A) (A) (A) (A) (A) (A) (A) (A)                 (A) (A) (A) (A) (A) (A) (A) (A) (A) (A) (A) (A)                 (A) (A) (A) (A) (A) (A) (A) (A) (A) (A) (A) (A)       Virtual   (A) (A) (A) (A) (A) (A) (A) (A) (A) (A) (A) (A)                 (A) (A) (A) (A) (A) (A) (A) (A) (A) (A) (A) (A)                 (A) (A) (A) (A) (A) (A) (A) (A) (A) (A) (A) (A)                 (A) (A) (A) (A) (A) (A) (A) (A) (A) (A) (A) (A)                 (A) (A) (A) (A) (A) (A) (A) (A) (A) (A) (A) (A)                 (A) (A) (A) (A) (A) (A) (A) (A) (A) (A) (A) (A)                 (A) (A) (A) (A) (A) (A) (A) (A) (A) (A) (A) (A)                 (A) (A) (A) (A) (A) (A) (A) (A) (A) (A) (A) (A)                 (A) (A) (A) (A) (A) (A) (A) (A) (A) (A) (A) (A)                 (A) (A) (A) (A) (A) (A) (A) (A) (A) (A) (A) (A)                 (A) (A) (A) (A) (A) (A) (A) (A) (A) (A) (A) (A) The electronic state of the initial guess is 1-A. Requested convergence on RMS density matrix=1.00D-08 within 128 cycles. Requested convergence on MAX density matrix=1.00D-06. Requested convergence on             energy=1.00D-06. No special actions if energy rises. Keep R1 ints in memory in canonical form, NReq=175748300. SCF Done:  E(RB3LYP) =  -575.323087736     A.U. after   12 cycles             Convg  =    0.9498D-08             -V/T =  2.0400<module cmlx:lineCount="15895" cmlx:templateRef="l601.popanal"> Orbital symmetries:<module cmlx:lineCount="5" cmlx:templateRef="l4601.occupied"><list cmlx:templateRef="occ"><scalar dataType="xsd:string" dictRef="g:occorbs">(A) (A) (A) (A) (A) (A) (A) (A) (A) (A) (A) (A)</scalar></list><list cmlx:templateRef="occ"><scalar dataType="xsd:string" dictRef="g:occorbs">(A) (A) (A) (A) (A) (A) (A) (A) (A) (A) (A) (A)</scalar><scalar dataType="xsd:string" dictRef="g:occorbs">(A) (A) (A) (A) (A) (A) (A) (A) (A) (A) (A) (A)</scalar><scalar dataType="xsd:string" dictRef="g:occorbs">(A) (A) (A) (A) (A) (A) (A) (A) (A) (A) (A) (A)</scalar><scalar dataType="xsd:string" dictRef="g:occorbs">(A) (A) (A) (A) (A) (A) (A) (A) (A) (A) (A) (A)</scalar></list></module><module cmlx:lineCount="11" cmlx:templateRef="l4601.virtual"><list cmlx:templateRef="virt"><scalar dataType="xsd:string" dictRef="g:virtorbs">(A) (A) (A) (A) (A) (A) (A) (A) (A) (A) (A) (A)</scalar></list><list cmlx:templateRef="virt"><scalar dataType="xsd:string" dictRef="g:virtorbs">(A) (A) (A) (A) (A) (A) (A) (A) (A) (A) (A) (A)</scalar><scalar dataType="xsd:string" dictRef="g:virtorbs">(A) (A) (A) (A) (A) (A) (A) (A) (A) (A) (A) (A)</scalar><scalar dataType="xsd:string" dictRef="g:virtorbs">(A) (A) (A) (A) (A) (A) (A) (A) (A) (A) (A) (A)</scalar><scalar dataType="xsd:string" dictRef="g:virtorbs">(A) (A) (A) (A) (A) (A) (A) (A) (A) (A) (A) (A)</scalar><scalar dataType="xsd:string" dictRef="g:virtorbs">(A) (A) (A) (A) (A) (A) (A) (A) (A) (A) (A) (A)</scalar><scalar dataType="xsd:string" dictRef="g:virtorbs">(A) (A) (A) (A) (A) (A) (A) (A) (A) (A) (A) (A)</scalar><scalar dataType="xsd:string" dictRef="g:virtorbs">(A) (A) (A) (A) (A) (A) (A) (A) (A) (A) (A) (A)</scalar><scalar dataType="xsd:string" dictRef="g:virtorbs">(A) (A) (A) (A) (A) (A) (A) (A) (A) (A) (A) (A)</scalar><scalar dataType="xsd:string" dictRef="g:virtorbs">(A) (A) (A) (A) (A) (A) (A) (A) (A) (A) (A) (A)</scalar><scalar dataType="xsd:string" dictRef="g:virtorbs">(A) (A) (A) (A) (A) (A) (A) (A) (A) (A) (A) (A)</scalar></list></module><module cmlx:lineCount="1" cmlx:templateRef="l601.state"><scalar dataType="xsd:string" dictRef="g:l601.state">1-A.</scalar></module><array dataType="xsd:double" size="60" dictRef="g:alphaocc">-19.21743 -19.21282 -10.29654 -10.2961 -10.28844 -10.27691 -10.22928 -10.22637 -10.2116 -10.20334 -10.13574 -10.13441 -1.08331 -1.07844 -0.8219 -0.82144 -0.78194 -0.77867 -0.6945 -0.68621 -0.67075 -0.66419 -0.65883 -0.65699 -0.64676 -0.63842 -0.55264 -0.54504 -0.54014 -0.53187 -0.50803 -0.48239 -0.47736 -0.46865 -0.46469 -0.44494 -0.4367 -0.43435 -0.42718 -0.42199 -0.4128 -0.4118 -0.40303 -0.39846 -0.39065 -0.38548 -0.38279 -0.37946 -0.37678 -0.37479 -0.33584 -0.32992 -0.30428 -0.25687 -0.24751 -0.23663 -0.22204 -0.22019 -0.21736 -0.21693</array><array dataType="xsd:double" size="132" dictRef="g:alphavirt">4.2E-4 0.01806 0.02314 0.0328 0.03911 0.05213 0.06713 0.07234 0.08065 0.08364 0.08675 0.09537 0.09762 0.10487 0.10638 0.11898 0.12478 0.12595 0.13544 0.13634 0.14254 0.14735 0.15176 0.15473 0.15596 0.16467 0.16851 0.17317 0.18093 0.18283 0.186 0.18677 0.19053 0.19855 0.20591 0.20808 0.21174 0.21537 0.22876 0.23049 0.24019 0.2507 0.2609 0.26831 0.27314 0.28238 0.28894 0.29269 0.30019 0.30125 0.30781 0.32 0.32569 0.33136 0.3382 0.34081 0.3477 0.35038 0.36465 0.37218 0.37698 0.38472 0.39718 0.40256 0.40931 0.41732 0.43254 0.4411 0.45007 0.46654 0.47064 0.4782 0.50488 0.52298 0.52458 0.5482 0.56419 0.5827 0.61731 0.62961 0.64736 0.6799 0.68955 0.7177 0.80469 0.84512 0.86921 0.8829 0.90138 0.94988 0.95717 0.97115 0.98732 1.01145 1.01651 1.02823 1.04288 1.06776 1.07548 1.08504 1.09219 1.10092 1.10511 1.11422 1.11615 1.1349 1.15376 1.15641 1.16313 1.17488 1.18358 1.19182 1.19773 1.21429 1.23024 1.23672 1.24414 1.25763 1.28745 1.30284 1.31688 1.34741 1.35609 1.3848 1.44868 1.5441 1.82974 1.84505 5.78623 8.23751 18.77013 19.43395</array><module cmlx:lineCount="39" cmlx:templateRef="l601.alphabetaeigen"/><list cmlx:templateRef="popanal"><scalar dataType="xsd:string" dictRef="x:popanal">Molecular Orbital Coefficients:</scalar><scalar dataType="xsd:string" dictRef="x:popanal">1         2         3         4         5</scalar><scalar dataType="xsd:string" dictRef="x:popanal">O         O         O         O         O</scalar><scalar dataType="xsd:string" dictRef="x:popanal">Eigenvalues --   -19.21743 -19.21282 -10.29654 -10.29610 -10.28844</scalar><scalar dataType="xsd:string" dictRef="x:popanal">1 1   Mg 1S          0.00015   0.00010   0.00012  -0.00005   0.00016</scalar><scalar dataType="xsd:string" dictRef="x:popanal">2        2S         -0.00011  -0.00074  -0.00010  -0.00091   0.00062</scalar><scalar dataType="xsd:string" dictRef="x:popanal">3        3PX        -0.00021  -0.00006   0.00003  -0.00025  -0.00024</scalar><scalar dataType="xsd:string" dictRef="x:popanal">4        3PY        -0.00007  -0.00016   0.00003  -0.00025  -0.00045</scalar><scalar dataType="xsd:string" dictRef="x:popanal">5        3PZ        -0.00012   0.00005  -0.00048  -0.00017   0.00014</scalar><scalar dataType="xsd:string" dictRef="x:popanal">6        4PX         0.00067   0.00056   0.00111   0.00259   0.00105</scalar><scalar dataType="xsd:string" dictRef="x:popanal">7        4PY        -0.00066   0.00023  -0.00173   0.00023  -0.00094</scalar><scalar dataType="xsd:string" dictRef="x:popanal">8        4PZ         0.00000   0.00000   0.00094   0.00072  -0.00049</scalar><scalar dataType="xsd:string" dictRef="x:popanal">9 2   C  1S          0.00000   0.00000  -0.00001   0.00000   0.00000</scalar><scalar dataType="xsd:string" dictRef="x:popanal">10        2S          0.00007   0.00006  -0.00007  -0.00002   0.00003</scalar><scalar dataType="xsd:string" dictRef="x:popanal">11        3S         -0.00011  -0.00013   0.00038   0.00037   0.00007</scalar><scalar dataType="xsd:string" dictRef="x:popanal">12        4PX         0.00003   0.00000   0.00003   0.00004   0.00002</scalar><scalar dataType="xsd:string" dictRef="x:popanal">13        4PY        -0.00004   0.00002  -0.00004   0.00002  -0.00006</scalar><scalar dataType="xsd:string" dictRef="x:popanal">14        4PZ        -0.00003  -0.00002   0.00003   0.00001   0.00003</scalar><scalar dataType="xsd:string" dictRef="x:popanal">15        5PX        -0.00024  -0.00004  -0.00002  -0.00011  -0.00065</scalar><scalar dataType="xsd:string" dictRef="x:popanal">16        5PY         0.00050  -0.00012   0.00045   0.00002   0.00073</scalar><scalar dataType="xsd:string" dictRef="x:popanal">17        5PZ         0.00012   0.00004  -0.00002   0.00012   0.00009</scalar><scalar dataType="xsd:string" dictRef="x:popanal">18 3   C  1S          0.00000   0.00000   0.00000  -0.00001   0.00000</scalar><scalar dataType="xsd:string" dictRef="x:popanal">19        2S          0.00007   0.00001  -0.00001  -0.00007   0.00003</scalar><scalar dataType="xsd:string" dictRef="x:popanal">20        3S         -0.00007   0.00010   0.00023   0.00022   0.00019</scalar><scalar dataType="xsd:string" dictRef="x:popanal">21        4PX         0.00003   0.00001   0.00000   0.00001   0.00004</scalar><scalar dataType="xsd:string" dictRef="x:popanal">22        4PY        -0.00002   0.00002  -0.00002  -0.00001  -0.00005</scalar><scalar dataType="xsd:string" dictRef="x:popanal">23        4PZ         0.00001   0.00002   0.00000   0.00001   0.00000</scalar><scalar dataType="xsd:string" dictRef="x:popanal">24        5PX        -0.00049  -0.00002  -0.00035  -0.00019  -0.00038</scalar><scalar dataType="xsd:string" dictRef="x:popanal">25        5PY         0.00025  -0.00007   0.00051   0.00036   0.00050</scalar><scalar dataType="xsd:string" dictRef="x:popanal">26        5PZ        -0.00014  -0.00008  -0.00024  -0.00002  -0.00021</scalar><scalar dataType="xsd:string" dictRef="x:popanal">27 4   C  1S          0.00000   0.00001  -0.00001   0.00145   0.00002</scalar><scalar dataType="xsd:string" dictRef="x:popanal">28        2S         -0.00005   0.00002  -0.00006  -0.00039   0.00007</scalar><scalar dataType="xsd:string" dictRef="x:popanal">29        3S          0.00046  -0.00053   0.00063   0.00414  -0.00012</scalar><scalar dataType="xsd:string" dictRef="x:popanal">30        4PX        -0.00001   0.00005  -0.00001  -0.00003   0.00000</scalar><scalar dataType="xsd:string" dictRef="x:popanal">31        4PY        -0.00004  -0.00008  -0.00004   0.00004  -0.00004</scalar><scalar dataType="xsd:string" dictRef="x:popanal">32        4PZ        -0.00002   0.00009   0.00000  -0.00008   0.00000</scalar><scalar dataType="xsd:string" dictRef="x:popanal">33        5PX         0.00015   0.00032   0.00017  -0.00032   0.00018</scalar><scalar dataType="xsd:string" dictRef="x:popanal">34        5PY        -0.00004  -0.00001   0.00021   0.00156   0.00019</scalar><scalar dataType="xsd:string" dictRef="x:popanal">35        5PZ        -0.00014   0.00005  -0.00018  -0.00174  -0.00015</scalar><scalar dataType="xsd:string" dictRef="x:popanal">36 5   O  1S          0.99883   0.00011  -0.00001   0.00000  -0.00001</scalar><scalar dataType="xsd:string" dictRef="x:popanal">37        2S          0.00682  -0.00001   0.00021   0.00006   0.00024</scalar><scalar dataType="xsd:string" dictRef="x:popanal">38        3S         -0.00522   0.00006   0.00066  -0.00013   0.00058</scalar><scalar dataType="xsd:string" dictRef="x:popanal">39        4PX         0.00028  -0.00001  -0.00002   0.00000  -0.00001</scalar><scalar dataType="xsd:string" dictRef="x:popanal">40        4PY        -0.00090   0.00003  -0.00003   0.00003   0.00001</scalar><scalar dataType="xsd:string" dictRef="x:popanal">41        4PZ        -0.00031   0.00001   0.00005   0.00002  -0.00005</scalar><scalar dataType="xsd:string" dictRef="x:popanal">42        5PX        -0.00042   0.00006   0.00038   0.00006  -0.00019</scalar><scalar dataType="xsd:string" dictRef="x:popanal">43        5PY         0.00132  -0.00012   0.00039  -0.00018  -0.00027</scalar><scalar dataType="xsd:string" dictRef="x:popanal">44        5PZ         0.00043  -0.00002  -0.00060  -0.00008   0.00062</scalar><scalar dataType="xsd:string" dictRef="x:popanal">45 6   Mg 1S          0.00003   0.00004  -0.00002   0.00003  -0.00009</scalar><scalar dataType="xsd:string" dictRef="x:popanal">46        2S          0.00026   0.00063   0.00075   0.00202   0.00028</scalar><scalar dataType="xsd:string" dictRef="x:popanal">47        3PX         0.00002   0.00009   0.00000   0.00013  -0.00011</scalar><scalar dataType="xsd:string" dictRef="x:popanal">48        3PY        -0.00005  -0.00001  -0.00003  -0.00004   0.00002</scalar><scalar dataType="xsd:string" dictRef="x:popanal">49        3PZ         0.00003   0.00002  -0.00004   0.00002  -0.00010</scalar><scalar dataType="xsd:string" dictRef="x:popanal">50        4PX         0.00005   0.00023   0.00030   0.00077   0.00003</scalar><scalar dataType="xsd:string" dictRef="x:popanal">51        4PY         0.00017   0.00005   0.00040   0.00004   0.00007</scalar><scalar dataType="xsd:string" dictRef="x:popanal">52        4PZ         0.00002  -0.00002  -0.00004  -0.00014   0.00007</scalar><scalar dataType="xsd:string" dictRef="x:popanal">53 7   Br 1S          0.00000   0.00000   0.00000   0.00000   0.00000</scalar><scalar dataType="xsd:string" dictRef="x:popanal">54        2S          0.00000  -0.00002  -0.00004  -0.00002   0.00004</scalar><scalar dataType="xsd:string" dictRef="x:popanal">55        3PX        -0.00002  -0.00004  -0.00003  -0.00003  -0.00002</scalar><scalar dataType="xsd:string" dictRef="x:popanal">56        3PY         0.00000   0.00000   0.00000  -0.00001  -0.00002</scalar><scalar dataType="xsd:string" dictRef="x:popanal">57        3PZ         0.00000   0.00001   0.00000   0.00000  -0.00001</scalar><scalar dataType="xsd:string" dictRef="x:popanal">58        4PX         0.00006   0.00007   0.00011   0.00007   0.00008</scalar><scalar dataType="xsd:string" dictRef="x:popanal">59        4PY         0.00000   0.00001   0.00001   0.00001   0.00003</scalar><scalar dataType="xsd:string" dictRef="x:popanal">60        4PZ         0.00000  -0.00002   0.00000   0.00001   0.00002</scalar><scalar dataType="xsd:string" dictRef="x:popanal">61 8   Br 1S          0.00000   0.00000   0.00000   0.00000   0.00000</scalar><scalar dataType="xsd:string" dictRef="x:popanal">62        2S          0.00004   0.00001   0.00006  -0.00001   0.00001</scalar><scalar dataType="xsd:string" dictRef="x:popanal">63        3PX         0.00000   0.00000   0.00002  -0.00001  -0.00003</scalar><scalar dataType="xsd:string" dictRef="x:popanal">64        3PY         0.00001   0.00000  -0.00001  -0.00001   0.00004</scalar><scalar dataType="xsd:string" dictRef="x:popanal">65        3PZ         0.00000   0.00000   0.00001  -0.00001   0.00000</scalar><scalar dataType="xsd:string" dictRef="x:popanal">66        4PX         0.00001   0.00001  -0.00006   0.00002   0.00006</scalar><scalar dataType="xsd:string" dictRef="x:popanal">67        4PY        -0.00001   0.00000   0.00002   0.00001  -0.00008</scalar><scalar dataType="xsd:string" dictRef="x:popanal">68        4PZ         0.00000   0.00001  -0.00001   0.00002   0.00000</scalar><scalar dataType="xsd:string" dictRef="x:popanal">69 9   C  1S         -0.00002   0.00000   0.99776  -0.00062   0.00073</scalar><scalar dataType="xsd:string" dictRef="x:popanal">70        2S         -0.00013  -0.00001   0.01596   0.00003  -0.00064</scalar><scalar dataType="xsd:string" dictRef="x:popanal">71        3S          0.00199  -0.00001  -0.01746  -0.00013   0.00219</scalar><scalar dataType="xsd:string" dictRef="x:popanal">72        4PX        -0.00016   0.00002  -0.00040   0.00001  -0.00006</scalar><scalar dataType="xsd:string" dictRef="x:popanal">73        4PY        -0.00001   0.00003   0.00002   0.00003   0.00003</scalar><scalar dataType="xsd:string" dictRef="x:popanal">74        4PZ         0.00030   0.00000   0.00057  -0.00001   0.00004</scalar><scalar dataType="xsd:string" dictRef="x:popanal">75        5PX        -0.00060  -0.00016  -0.00103  -0.00029   0.00001</scalar><scalar dataType="xsd:string" dictRef="x:popanal">76        5PY        -0.00031  -0.00023   0.00115  -0.00013  -0.00252</scalar><scalar dataType="xsd:string" dictRef="x:popanal">77        5PZ         0.00043  -0.00006  -0.00091  -0.00031   0.00147</scalar><scalar dataType="xsd:string" dictRef="x:popanal">78 10  O  1S         -0.00011   0.99883   0.00000  -0.00001   0.00000</scalar><scalar dataType="xsd:string" dictRef="x:popanal">79        2S         -0.00003   0.00681   0.00000   0.00014  -0.00001</scalar><scalar dataType="xsd:string" dictRef="x:popanal">80        3S          0.00011  -0.00521   0.00003   0.00082  -0.00002</scalar><scalar dataType="xsd:string" dictRef="x:popanal">81        4PX         0.00002   0.00045   0.00001  -0.00005   0.00003</scalar><scalar dataType="xsd:string" dictRef="x:popanal">82        4PY        -0.00002   0.00088  -0.00004   0.00005   0.00001</scalar><scalar dataType="xsd:string" dictRef="x:popanal">83        4PZ        -0.00001   0.00004  -0.00002  -0.00003   0.00001</scalar><scalar dataType="xsd:string" dictRef="x:popanal">84        5PX        -0.00006  -0.00073  -0.00006   0.00053  -0.00019</scalar><scalar dataType="xsd:string" dictRef="x:popanal">85        5PY         0.00005  -0.00149   0.00020  -0.00064  -0.00009</scalar><scalar dataType="xsd:string" dictRef="x:popanal">86        5PZ         0.00000  -0.00008   0.00006   0.00031  -0.00007</scalar><scalar dataType="xsd:string" dictRef="x:popanal">87 11  C  1S          0.00000   0.00000   0.00144  -0.00002  -0.00003</scalar><scalar dataType="xsd:string" dictRef="x:popanal">88        2S         -0.00010  -0.00002  -0.00060  -0.00009  -0.00004</scalar><scalar dataType="xsd:string" dictRef="x:popanal">89        3S         -0.00010   0.00013   0.00526   0.00079  -0.00055</scalar><scalar dataType="xsd:string" dictRef="x:popanal">90        4PX         0.00012  -0.00001  -0.00022   0.00000   0.00020</scalar><scalar dataType="xsd:string" dictRef="x:popanal">91        4PY         0.00000   0.00001  -0.00002   0.00005   0.00004</scalar><scalar dataType="xsd:string" dictRef="x:popanal">92        4PZ        -0.00001   0.00000  -0.00001   0.00000  -0.00002</scalar><scalar dataType="xsd:string" dictRef="x:popanal">93        5PX         0.00002  -0.00005  -0.00252   0.00006   0.00036</scalar><scalar dataType="xsd:string" dictRef="x:popanal">94        5PY         0.00017   0.00004  -0.00039  -0.00005   0.00095</scalar><scalar dataType="xsd:string" dictRef="x:popanal">95        5PZ        -0.00003  -0.00003  -0.00028   0.00014  -0.00003</scalar><scalar dataType="xsd:string" dictRef="x:popanal">96 12  C  1S         -0.00002   0.00000  -0.00083   0.00006   0.99776</scalar><scalar dataType="xsd:string" dictRef="x:popanal">97        2S         -0.00013   0.00002  -0.00068   0.00002   0.01593</scalar><scalar dataType="xsd:string" dictRef="x:popanal">98        3S          0.00195  -0.00015   0.00246   0.00004  -0.01742</scalar><scalar dataType="xsd:string" dictRef="x:popanal">99        4PX         0.00008   0.00000   0.00001   0.00001   0.00029</scalar><scalar dataType="xsd:string" dictRef="x:popanal">100        4PY         0.00023  -0.00002   0.00009   0.00003   0.00057</scalar><scalar dataType="xsd:string" dictRef="x:popanal">101        4PZ        -0.00025   0.00001  -0.00001   0.00003  -0.00043</scalar><scalar dataType="xsd:string" dictRef="x:popanal">102        5PX         0.00008  -0.00015   0.00133  -0.00033  -0.00055</scalar><scalar dataType="xsd:string" dictRef="x:popanal">103        5PY         0.00040   0.00008  -0.00099  -0.00029   0.00101</scalar><scalar dataType="xsd:string" dictRef="x:popanal">104        5PZ        -0.00037   0.00011  -0.00222  -0.00004   0.00144</scalar><scalar dataType="xsd:string" dictRef="x:popanal">105 13  C  1S          0.00001   0.00000  -0.00001   0.00001   0.00115</scalar><scalar dataType="xsd:string" dictRef="x:popanal">106        2S         -0.00004   0.00001  -0.00001   0.00009  -0.00055</scalar><scalar dataType="xsd:string" dictRef="x:popanal">107        3S         -0.00042  -0.00007  -0.00072  -0.00058   0.00503</scalar><scalar dataType="xsd:string" dictRef="x:popanal">108        4PX        -0.00008   0.00002  -0.00017   0.00001   0.00018</scalar><scalar dataType="xsd:string" dictRef="x:popanal">109        4PY        -0.00010   0.00000  -0.00014  -0.00003   0.00013</scalar><scalar dataType="xsd:string" dictRef="x:popanal">110        4PZ        -0.00003   0.00000  -0.00001   0.00001   0.00002</scalar><scalar dataType="xsd:string" dictRef="x:popanal">111        5PX        -0.00013   0.00007  -0.00098  -0.00009   0.00207</scalar><scalar dataType="xsd:string" dictRef="x:popanal">112        5PY        -0.00007   0.00002   0.00023   0.00000   0.00115</scalar><scalar dataType="xsd:string" dictRef="x:popanal">113        5PZ         0.00005  -0.00005   0.00020  -0.00013   0.00065</scalar><scalar dataType="xsd:string" dictRef="x:popanal">114 14  C  1S          0.00000  -0.00002   0.00063   0.99775  -0.00006</scalar><scalar dataType="xsd:string" dictRef="x:popanal">115        2S          0.00003  -0.00019   0.00005   0.01575   0.00002</scalar><scalar dataType="xsd:string" dictRef="x:popanal">116        3S         -0.00011   0.00243  -0.00030  -0.01658   0.00015</scalar><scalar dataType="xsd:string" dictRef="x:popanal">117        4PX         0.00000  -0.00032   0.00002  -0.00059  -0.00001</scalar><scalar dataType="xsd:string" dictRef="x:popanal">118        4PY        -0.00003   0.00000  -0.00002   0.00003  -0.00003</scalar><scalar dataType="xsd:string" dictRef="x:popanal">119        4PZ        -0.00002  -0.00013   0.00000  -0.00034   0.00000</scalar><scalar dataType="xsd:string" dictRef="x:popanal">120        5PX        -0.00016  -0.00083  -0.00021   0.00015  -0.00020</scalar><scalar dataType="xsd:string" dictRef="x:popanal">121        5PY         0.00034   0.00033   0.00022   0.00033   0.00036</scalar><scalar dataType="xsd:string" dictRef="x:popanal">122        5PZ         0.00003  -0.00020  -0.00033  -0.00028  -0.00012</scalar><scalar dataType="xsd:string" dictRef="x:popanal">123 15  C  1S          0.00000  -0.00003  -0.00002  -0.00034   0.00000</scalar><scalar dataType="xsd:string" dictRef="x:popanal">124        2S          0.00001  -0.00017   0.00000  -0.00057   0.00002</scalar><scalar dataType="xsd:string" dictRef="x:popanal">125        3S         -0.00021   0.00219  -0.00031   0.00211  -0.00025</scalar><scalar dataType="xsd:string" dictRef="x:popanal">126        4PX         0.00001   0.00023   0.00003   0.00009   0.00003</scalar><scalar dataType="xsd:string" dictRef="x:popanal">127        4PY         0.00002  -0.00025   0.00003  -0.00005   0.00003</scalar><scalar dataType="xsd:string" dictRef="x:popanal">128        4PZ        -0.00002   0.00015  -0.00003   0.00005  -0.00003</scalar><scalar dataType="xsd:string" dictRef="x:popanal">129        5PX        -0.00022   0.00030  -0.00037   0.00153  -0.00027</scalar><scalar dataType="xsd:string" dictRef="x:popanal">130        5PY        -0.00015  -0.00043  -0.00038   0.00028  -0.00019</scalar><scalar dataType="xsd:string" dictRef="x:popanal">131        5PZ         0.00003   0.00021  -0.00008   0.00111   0.00026</scalar><scalar dataType="xsd:string" dictRef="x:popanal">132 16  C  1S          0.00000   0.00000  -0.00001  -0.00004  -0.00001</scalar><scalar dataType="xsd:string" dictRef="x:popanal">133        2S         -0.00004  -0.00006  -0.00005  -0.00017  -0.00006</scalar><scalar dataType="xsd:string" dictRef="x:popanal">134        3S          0.00024  -0.00033   0.00016  -0.00027   0.00049</scalar><scalar dataType="xsd:string" dictRef="x:popanal">135        4PX         0.00000   0.00005   0.00002   0.00003   0.00000</scalar><scalar dataType="xsd:string" dictRef="x:popanal">136        4PY         0.00000   0.00006   0.00000   0.00006  -0.00002</scalar><scalar dataType="xsd:string" dictRef="x:popanal">137        4PZ         0.00001  -0.00011   0.00004  -0.00016   0.00001</scalar><scalar dataType="xsd:string" dictRef="x:popanal">138        5PX         0.00001  -0.00002  -0.00011  -0.00055  -0.00010</scalar><scalar dataType="xsd:string" dictRef="x:popanal">139        5PY         0.00002   0.00003   0.00011  -0.00061   0.00013</scalar><scalar dataType="xsd:string" dictRef="x:popanal">140        5PZ         0.00011  -0.00017   0.00024  -0.00035   0.00011</scalar><scalar dataType="xsd:string" dictRef="x:popanal">141 17  H  1S          0.00000   0.00000  -0.00002  -0.00021   0.00001</scalar><scalar dataType="xsd:string" dictRef="x:popanal">142        2S         -0.00013   0.00003  -0.00014   0.00013  -0.00005</scalar><scalar dataType="xsd:string" dictRef="x:popanal">143 18  H  1S          0.00005   0.00003   0.00006  -0.00016  -0.00002</scalar><scalar dataType="xsd:string" dictRef="x:popanal">144        2S         -0.00041   0.00006  -0.00044  -0.00012   0.00001</scalar><scalar dataType="xsd:string" dictRef="x:popanal">145 19  H  1S         -0.00002   0.00003  -0.00001  -0.00018  -0.00002</scalar><scalar dataType="xsd:string" dictRef="x:popanal">146        2S          0.00006   0.00011  -0.00004   0.00003   0.00023</scalar><scalar dataType="xsd:string" dictRef="x:popanal">147 20  H  1S         -0.00002   0.00001  -0.00002   0.00001   0.00003</scalar><scalar dataType="xsd:string" dictRef="x:popanal">148        2S          0.00033  -0.00001   0.00007  -0.00008   0.00015</scalar><scalar dataType="xsd:string" dictRef="x:popanal">149 21  H  1S          0.00004   0.00001   0.00002   0.00001   0.00001</scalar><scalar dataType="xsd:string" dictRef="x:popanal">150        2S         -0.00034   0.00005  -0.00034  -0.00019  -0.00051</scalar><scalar dataType="xsd:string" dictRef="x:popanal">151 22  H  1S          0.00000   0.00000   0.00004   0.00008   0.00005</scalar><scalar dataType="xsd:string" dictRef="x:popanal">152        2S          0.00006   0.00012  -0.00040  -0.00041   0.00007</scalar><scalar dataType="xsd:string" dictRef="x:popanal">153 23  H  1S          0.00003   0.00001   0.00000   0.00003   0.00004</scalar><scalar dataType="xsd:string" dictRef="x:popanal">154        2S         -0.00035  -0.00006  -0.00033  -0.00031  -0.00049</scalar><scalar dataType="xsd:string" dictRef="x:popanal">155 24  H  1S          0.00005  -0.00001  -0.00001  -0.00006   0.00005</scalar><scalar dataType="xsd:string" dictRef="x:popanal">156        2S          0.00001  -0.00001   0.00020   0.00043  -0.00002</scalar><scalar dataType="xsd:string" dictRef="x:popanal">157 25  H  1S         -0.00001   0.00003   0.00007  -0.00002   0.00003</scalar><scalar dataType="xsd:string" dictRef="x:popanal">158        2S          0.00020  -0.00007  -0.00014   0.00007  -0.00018</scalar><scalar dataType="xsd:string" dictRef="x:popanal">159 26  H  1S         -0.00009   0.00002  -0.00017   0.00003  -0.00014</scalar><scalar dataType="xsd:string" dictRef="x:popanal">160        2S         -0.00068  -0.00020   0.00340  -0.00027  -0.00123</scalar><scalar dataType="xsd:string" dictRef="x:popanal">161 27  H  1S         -0.00009   0.00000  -0.00017   0.00006  -0.00012</scalar><scalar dataType="xsd:string" dictRef="x:popanal">162        2S         -0.00032   0.00005   0.00243  -0.00030   0.00118</scalar><scalar dataType="xsd:string" dictRef="x:popanal">163 28  H  1S         -0.00003   0.00000  -0.00026  -0.00002  -0.00002</scalar><scalar dataType="xsd:string" dictRef="x:popanal">164        2S          0.00017  -0.00002   0.00022  -0.00010   0.00017</scalar><scalar dataType="xsd:string" dictRef="x:popanal">165 29  H  1S          0.00002  -0.00001  -0.00025   0.00010   0.00008</scalar><scalar dataType="xsd:string" dictRef="x:popanal">166        2S         -0.00016   0.00003   0.00033  -0.00059  -0.00066</scalar><scalar dataType="xsd:string" dictRef="x:popanal">167 30  H  1S          0.00001   0.00000  -0.00023   0.00001   0.00009</scalar><scalar dataType="xsd:string" dictRef="x:popanal">168        2S          0.00001   0.00002  -0.00012  -0.00027  -0.00009</scalar><scalar dataType="xsd:string" dictRef="x:popanal">169 31  H  1S         -0.00008  -0.00001  -0.00008   0.00002  -0.00017</scalar><scalar dataType="xsd:string" dictRef="x:popanal">170        2S         -0.00041  -0.00001   0.00087  -0.00012   0.00233</scalar><scalar dataType="xsd:string" dictRef="x:popanal">171 32  H  1S         -0.00011   0.00000  -0.00014   0.00000  -0.00021</scalar><scalar dataType="xsd:string" dictRef="x:popanal">172        2S         -0.00036   0.00013  -0.00120   0.00007   0.00380</scalar><scalar dataType="xsd:string" dictRef="x:popanal">173 33  H  1S         -0.00001  -0.00001  -0.00001   0.00001  -0.00023</scalar><scalar dataType="xsd:string" dictRef="x:popanal">174        2S          0.00011   0.00006   0.00015   0.00010   0.00003</scalar><scalar dataType="xsd:string" dictRef="x:popanal">175 34  H  1S          0.00002  -0.00001   0.00011   0.00001  -0.00022</scalar><scalar dataType="xsd:string" dictRef="x:popanal">176        2S         -0.00003   0.00002  -0.00024   0.00003  -0.00017</scalar><scalar dataType="xsd:string" dictRef="x:popanal">177 35  H  1S          0.00003  -0.00002   0.00010  -0.00002  -0.00023</scalar><scalar dataType="xsd:string" dictRef="x:popanal">178        2S         -0.00011   0.00015  -0.00077   0.00017   0.00029</scalar><scalar dataType="xsd:string" dictRef="x:popanal">179 36  H  1S          0.00002  -0.00011   0.00000  -0.00016   0.00001</scalar><scalar dataType="xsd:string" dictRef="x:popanal">180        2S         -0.00019  -0.00069   0.00004   0.00278  -0.00026</scalar><scalar dataType="xsd:string" dictRef="x:popanal">181 37  H  1S          0.00000  -0.00013   0.00003  -0.00019   0.00001</scalar><scalar dataType="xsd:string" dictRef="x:popanal">182        2S          0.00008  -0.00020  -0.00009   0.00300  -0.00011</scalar><scalar dataType="xsd:string" dictRef="x:popanal">183 38  H  1S          0.00000  -0.00013  -0.00002  -0.00007   0.00000</scalar><scalar dataType="xsd:string" dictRef="x:popanal">184        2S          0.00012  -0.00035   0.00037  -0.00119   0.00003</scalar><scalar dataType="xsd:string" dictRef="x:popanal">185 39  H  1S         -0.00001  -0.00008  -0.00003  -0.00009   0.00000</scalar><scalar dataType="xsd:string" dictRef="x:popanal">186        2S          0.00003  -0.00040   0.00012   0.00066   0.00002</scalar><scalar dataType="xsd:string" dictRef="x:popanal">187 40  H  1S         -0.00001  -0.00001  -0.00001  -0.00004  -0.00001</scalar><scalar dataType="xsd:string" dictRef="x:popanal">188        2S          0.00001   0.00012  -0.00001   0.00031  -0.00012</scalar><scalar dataType="xsd:string" dictRef="x:popanal">189 41  H  1S         -0.00001   0.00002  -0.00007   0.00006   0.00000</scalar><scalar dataType="xsd:string" dictRef="x:popanal">190        2S          0.00006  -0.00010   0.00041  -0.00051  -0.00001</scalar><scalar dataType="xsd:string" dictRef="x:popanal">191 42  H  1S          0.00000   0.00004  -0.00002  -0.00006   0.00000</scalar><scalar dataType="xsd:string" dictRef="x:popanal">192        2S         -0.00005  -0.00012   0.00010   0.00045  -0.00005</scalar><scalar dataType="xsd:string" dictRef="x:popanal">6         7         8         9        10</scalar><scalar dataType="xsd:string" dictRef="x:popanal">O         O         O         O         O</scalar><scalar dataType="xsd:string" dictRef="x:popanal">Eigenvalues --   -10.27691 -10.22928 -10.22637 -10.21160 -10.20334</scalar><scalar dataType="xsd:string" dictRef="x:popanal">1 1   Mg 1S          0.00010  -0.00009   0.00015  -0.00009  -0.00005</scalar><scalar dataType="xsd:string" dictRef="x:popanal">2        2S          0.00059   0.00122  -0.00023   0.00158   0.00010</scalar><scalar dataType="xsd:string" dictRef="x:popanal">3        3PX        -0.00015   0.00011   0.00022   0.00004  -0.00029</scalar><scalar dataType="xsd:string" dictRef="x:popanal">4        3PY         0.00020  -0.00006  -0.00004  -0.00011   0.00031</scalar><scalar dataType="xsd:string" dictRef="x:popanal">5        3PZ        -0.00012   0.00020   0.00030   0.00016  -0.00010</scalar><scalar dataType="xsd:string" dictRef="x:popanal">6        4PX         0.00044  -0.00062  -0.00037  -0.00095   0.00241</scalar><scalar dataType="xsd:string" dictRef="x:popanal">7        4PY         0.00091  -0.00135   0.00089   0.00179  -0.00184</scalar><scalar dataType="xsd:string" dictRef="x:popanal">8        4PZ         0.00031  -0.00054  -0.00054   0.00084   0.00062</scalar><scalar dataType="xsd:string" dictRef="x:popanal">9 2   C  1S          0.00001   0.00001   0.00000   0.00003   0.00000</scalar><scalar dataType="xsd:string" dictRef="x:popanal">10        2S          0.00008   0.00004   0.00000   0.00012   0.00000</scalar><scalar dataType="xsd:string" dictRef="x:popanal">11        3S         -0.00028  -0.00010   0.00009  -0.00025   0.00033</scalar><scalar dataType="xsd:string" dictRef="x:popanal">12        4PX         0.00002   0.00001  -0.00002   0.00001   0.00008</scalar><scalar dataType="xsd:string" dictRef="x:popanal">13        4PY         0.00002  -0.00005   0.00003   0.00002  -0.00006</scalar><scalar dataType="xsd:string" dictRef="x:popanal">14        4PZ         0.00000  -0.00002   0.00000   0.00005   0.00001</scalar><scalar dataType="xsd:string" dictRef="x:popanal">15        5PX        -0.00020  -0.00036   0.00023  -0.00027  -0.00065</scalar><scalar dataType="xsd:string" dictRef="x:popanal">16        5PY        -0.00041   0.00049  -0.00026  -0.00035   0.00062</scalar><scalar dataType="xsd:string" dictRef="x:popanal">17        5PZ        -0.00014   0.00016   0.00013   0.00006   0.00010</scalar><scalar dataType="xsd:string" dictRef="x:popanal">18 3   C  1S          0.00002   0.00000  -0.00001   0.00000  -0.00002</scalar><scalar dataType="xsd:string" dictRef="x:popanal">19        2S          0.00013  -0.00001  -0.00005  -0.00002  -0.00007</scalar><scalar dataType="xsd:string" dictRef="x:popanal">20        3S         -0.00055  -0.00013   0.00021   0.00034   0.00040</scalar><scalar dataType="xsd:string" dictRef="x:popanal">21        4PX        -0.00001  -0.00006   0.00000   0.00001   0.00006</scalar><scalar dataType="xsd:string" dictRef="x:popanal">22        4PY         0.00002   0.00003   0.00003   0.00009  -0.00005</scalar><scalar dataType="xsd:string" dictRef="x:popanal">23        4PZ         0.00000  -0.00001  -0.00002   0.00002   0.00002</scalar><scalar dataType="xsd:string" dictRef="x:popanal">24        5PX        -0.00004   0.00061   0.00025   0.00038  -0.00069</scalar><scalar dataType="xsd:string" dictRef="x:popanal">25        5PY        -0.00042   0.00001  -0.00021  -0.00053   0.00037</scalar><scalar dataType="xsd:string" dictRef="x:popanal">26        5PZ         0.00005  -0.00002   0.00007  -0.00024  -0.00010</scalar><scalar dataType="xsd:string" dictRef="x:popanal">27 4   C  1S         -0.00001   0.00008   0.99768   0.00007  -0.00005</scalar><scalar dataType="xsd:string" dictRef="x:popanal">28        2S         -0.00005   0.00000   0.01659  -0.00008   0.00012</scalar><scalar dataType="xsd:string" dictRef="x:popanal">29        3S          0.00047   0.00012  -0.02034   0.00032  -0.00026</scalar><scalar dataType="xsd:string" dictRef="x:popanal">30        4PX        -0.00002   0.00004   0.00006  -0.00002   0.00001</scalar><scalar dataType="xsd:string" dictRef="x:popanal">31        4PY        -0.00005  -0.00005   0.00011  -0.00002   0.00000</scalar><scalar dataType="xsd:string" dictRef="x:popanal">32        4PZ         0.00003  -0.00005  -0.00005   0.00004   0.00001</scalar><scalar dataType="xsd:string" dictRef="x:popanal">33        5PX         0.00083  -0.00030  -0.00015   0.00034   0.00006</scalar><scalar dataType="xsd:string" dictRef="x:popanal">34        5PY         0.00018  -0.00001  -0.00108   0.00034   0.00022</scalar><scalar dataType="xsd:string" dictRef="x:popanal">35        5PZ        -0.00038  -0.00002   0.00141   0.00004  -0.00005</scalar><scalar dataType="xsd:string" dictRef="x:popanal">36 5   O  1S          0.00000   0.00000   0.00000   0.00000   0.00000</scalar><scalar dataType="xsd:string" dictRef="x:popanal">37        2S         -0.00003  -0.00016  -0.00002  -0.00005  -0.00010</scalar><scalar dataType="xsd:string" dictRef="x:popanal">38        3S          0.00008   0.00007   0.00021   0.00019  -0.00016</scalar><scalar dataType="xsd:string" dictRef="x:popanal">39        4PX        -0.00001  -0.00011   0.00002  -0.00002   0.00006</scalar><scalar dataType="xsd:string" dictRef="x:popanal">40        4PY         0.00001   0.00004   0.00004   0.00000   0.00011</scalar><scalar dataType="xsd:string" dictRef="x:popanal">41        4PZ        -0.00001   0.00005   0.00004   0.00001  -0.00001</scalar><scalar dataType="xsd:string" dictRef="x:popanal">42        5PX         0.00002   0.00024  -0.00001   0.00009  -0.00003</scalar><scalar dataType="xsd:string" dictRef="x:popanal">43        5PY         0.00002  -0.00020  -0.00020   0.00001  -0.00021</scalar><scalar dataType="xsd:string" dictRef="x:popanal">44        5PZ         0.00005  -0.00018  -0.00006  -0.00008   0.00000</scalar><scalar dataType="xsd:string" dictRef="x:popanal">45 6   Mg 1S          0.00008   0.00003   0.00002   0.00000   0.00001</scalar><scalar dataType="xsd:string" dictRef="x:popanal">46        2S         -0.00037  -0.00072   0.00004  -0.00094   0.00101</scalar><scalar dataType="xsd:string" dictRef="x:popanal">47        3PX        -0.00008  -0.00006   0.00004  -0.00005  -0.00004</scalar><scalar dataType="xsd:string" dictRef="x:popanal">48        3PY         0.00007   0.00004  -0.00001   0.00003  -0.00016</scalar><scalar dataType="xsd:string" dictRef="x:popanal">49        3PZ        -0.00006  -0.00012   0.00007  -0.00010  -0.00003</scalar><scalar dataType="xsd:string" dictRef="x:popanal">50        4PX        -0.00007  -0.00029   0.00005  -0.00034   0.00048</scalar><scalar dataType="xsd:string" dictRef="x:popanal">51        4PY        -0.00044   0.00028  -0.00013  -0.00028   0.00078</scalar><scalar dataType="xsd:string" dictRef="x:popanal">52        4PZ        -0.00004   0.00005   0.00002  -0.00015  -0.00002</scalar><scalar dataType="xsd:string" dictRef="x:popanal">53 7   Br 1S          0.00001   0.00000   0.00000   0.00000   0.00000</scalar><scalar dataType="xsd:string" dictRef="x:popanal">54        2S          0.00006  -0.00004  -0.00003   0.00000  -0.00006</scalar><scalar dataType="xsd:string" dictRef="x:popanal">55        3PX         0.00016  -0.00002   0.00001   0.
[...]
                     144(v),143(v),52(r),51(r)                                                    155(r)    47. CR (   1) C  13                  1.99936   -10.07873  147(v),145(v),146(v),112(v)                                                    53(r)    54. LP (   1) O   5                  1.95297    -0.37395  179(v),171(v),172(v),181(v)                                                    52(r),176(r),155(r),51(r)                                                    165(r),71(r),53(r),68(r)                                                    86(r),88(r),75(r),160(r)                                                    169(r),102(r),161(r)    55. LP (   2) O   5                  1.92634    -0.65627  51(r),53(r),155(r),68(r)                                                    173(v),180(v),98(v),67(r)                                                    66(r),110(v),109(v),181(v)                                                    171(v),74(r),70(r),65(r)                                                    86(r),102(r),71(r),87(r)                                                    73(r),103(r),75(r),88(r)                                                    85(r),161(r),130(r)    81. RY*(   1) O   5                  0.00284     0.89808       82. RY*(   2) O   5                  0.00136     1.20945       83. RY*(   3) O   5                  0.00055     1.00785       84. RY*(   4) O   5                  0.00040     1.73330       97. RY*(   1) C   9                  0.00463     0.50195       98. RY*(   2) C   9                  0.00252     0.39120       99. RY*(   3) C   9                  0.00131     0.39284      100. RY*(   4) C   9                  0.00072     0.97316      105. RY*(   1) C  11                  0.00226     0.27840      106. RY*(   2) C  11                  0.00195     0.27326      107. RY*(   3) C  11                  0.00082     0.54852      108. RY*(   4) C  11                  0.00005     0.77828      109. RY*(   1) C  12                  0.00441     0.53004      110. RY*(   2) C  12                  0.00225     0.42582      111. RY*(   3) C  12                  0.00108     0.34347      112. RY*(   4) C  12                  0.00062     0.98172      113. RY*(   1) C  13                  0.00272     0.29134      114. RY*(   2) C  13                  0.00194     0.33942      115. RY*(   3) C  13                  0.00099     0.51750      116. RY*(   4) C  13                  0.00011     0.87364      138. RY*(   1) H  26                  0.00189     0.88458      139. RY*(   1) H  27                  0.00152     0.98446      140. RY*(   1) H  28                  0.00074     0.81920      141. RY*(   1) H  29                  0.00113     0.91486      142. RY*(   1) H  30                  0.00103     0.85272      143. RY*(   1) H  31                  0.00154     0.97727      144. RY*(   1) H  32                  0.00196     0.86211      145. RY*(   1) H  33                  0.00077     0.85495      146. RY*(   1) H  34                  0.00103     0.88297      147. RY*(   1) H  35                  0.00154     0.98040      167. BD*(   1) O   5 - C   9          0.03555     0.15324      168. BD*(   1) O   5 - C  12          0.03976     0.14567      171. BD*(   1) C   9 - C  11          0.01355     0.31541      172. BD*(   1) C   9 - H  26          0.01879     0.43463      173. BD*(   1) C   9 - H  27          0.01433     0.42902      176. BD*(   1) C  11 - H  28          0.00461     0.43166      177. BD*(   1) C  11 - H  29          0.00789     0.42275      178. BD*(   1) C  11 - H  30          0.00828     0.42547      179. BD*(   1) C  12 - C  13          0.01260     0.33071      180. BD*(   1) C  12 - H  31          0.01399     0.44418      181. BD*(   1) C  12 - H  32          0.01886     0.43897      182. BD*(   1) C  13 - H  33          0.00452     0.45511      183. BD*(   1) C  13 - H  34          0.00817     0.44415      184. BD*(   1) C  13 - H  35          0.01125     0.47280          -------------------------------              Total Lewis   41.65726  ( 99.3824%)        Valence non-Lewis    0.21217  (  0.5062%)        Rydberg non-Lewis    0.04669  (  0.1114%)       -------------------------------            Total unit  4   41.91613  (100.0000%)           Charge unit  4    0.08387<module cmlx:lineCount="25" cmlx:templateRef="l9999.archive"><scalar dataType="xsd:string" dictRef="cc:hostname">GINC-CX1-10-2-3</scalar><scalar dataType="xsd:string" dictRef="g:operation">SP</scalar><scalar dataType="xsd:string" dictRef="cc:method">RB3LYP</scalar><scalar dataType="xsd:string" dictRef="cc:basis">LANL2DZ</scalar><scalar dataType="xsd:string" dictRef="cc:jobname">SCAN-USER-1</scalar><scalar dataType="xsd:date" dictRef="cc:date">2010-03-15T00:00:00Z</scalar><scalar dataType="xsd:string" dictRef="g:keyword">#</scalar><scalar dataType="xsd:string" dictRef="g:keyword">rb3lyp/lanl2dz</scalar><scalar dataType="xsd:string" dictRef="g:keyword">pop=(nbo,full)</scalar><scalar dataType="xsd:string" dictRef="g:keyword">geom=connectivity</scalar><scalar dataType="xsd:string" dictRef="cc:title">[No Title]</scalar><molecule id="mol9999"><atomArray><atom id="a1" elementType="Mg" x3="0.0" y3="0.919405" z3="0.024517"><scalar dataType="xsd:integer" dictRef="compchem:atomicNumber">12</scalar></atom><atom id="a2" elementType="C" x3="0.0" y3="-0.333958" z3="-0.246289"><scalar dataType="xsd:integer" dictRef="compchem:atomicNumber">6</scalar></atom><atom id="a3" elementType="C" x3="0.0" y3="-0.229443" z3="0.012768"><scalar dataType="xsd:integer" dictRef="compchem:atomicNumber">6</scalar></atom><atom id="a4" elementType="C" x3="0.0" y3="3.623102" z3="1.025769"><scalar dataType="xsd:integer" dictRef="compchem:atomicNumber">6</scalar></atom><atom id="a5" elementType="O" x3="0.0" y3="2.193388" z3="-1.550948"><scalar dataType="xsd:integer" dictRef="compchem:atomicNumber">8</scalar></atom><atom id="a6" elementType="Mg" x3="0.0" y3="-1.782262" z3="-0.002699"><scalar dataType="xsd:integer" dictRef="compchem:atomicNumber">12</scalar></atom><atom id="a7" elementType="Br" x3="0.0" y3="-2.599948" z3="2.389041"><scalar dataType="xsd:integer" dictRef="compchem:atomicNumber">35</scalar></atom><atom id="a8" elementType="Br" x3="0.0" y3="-2.967189" z3="-2.204528"><scalar dataType="xsd:integer" dictRef="compchem:atomicNumber">35</scalar></atom><atom id="a9" elementType="C" x3="0.0" y3="2.955504" z3="-1.792146"><scalar dataType="xsd:integer" dictRef="compchem:atomicNumber">6</scalar></atom><atom id="a10" elementType="O" x3="0.0" y3="2.011217" z3="1.739355"><scalar dataType="xsd:integer" dictRef="compchem:atomicNumber">8</scalar></atom><atom id="a11" elementType="C" x3="0.0" y3="4.465515" z3="-1.844023"><scalar dataType="xsd:integer" dictRef="compchem:atomicNumber">6</scalar></atom><atom id="a12" elementType="C" x3="0.0" y3="2.009549" z3="-2.749639"><scalar dataType="xsd:integer" dictRef="compchem:atomicNumber">6</scalar></atom><atom id="a13" elementType="C" x3="0.0" y3="0.959628" z3="-3.721955"><scalar dataType="xsd:integer" dictRef="compchem:atomicNumber">6</scalar></atom><atom id="a14" elementType="C" x3="0.0" y3="3.363411" z3="1.973101"><scalar dataType="xsd:integer" dictRef="compchem:atomicNumber">6</scalar></atom><atom id="a15" elementType="C" x3="0.0" y3="1.321045" z3="2.977921"><scalar dataType="xsd:integer" dictRef="compchem:atomicNumber">6</scalar></atom><atom id="a16" elementType="C" x3="0.0" y3="1.93929" z3="3.494939"><scalar dataType="xsd:integer" dictRef="compchem:atomicNumber">6</scalar></atom><atom id="a17" elementType="H" x3="0.0" y3="4.622582" z3="1.219525"><scalar dataType="xsd:integer" dictRef="compchem:atomicNumber">1</scalar></atom><atom id="a18" elementType="H" x3="0.0" y3="3.587321" z3="-0.02326"><scalar dataType="xsd:integer" dictRef="compchem:atomicNumber">1</scalar></atom><atom id="a19" elementType="H" x3="0.0" y3="2.890166" z3="1.184761"><scalar dataType="xsd:integer" dictRef="compchem:atomicNumber">1</scalar></atom><atom id="a20" elementType="H" x3="0.0" y3="-0.584941" z3="-1.284071"><scalar dataType="xsd:integer" dictRef="compchem:atomicNumber">1</scalar></atom><atom id="a21" elementType="H" x3="0.0" y3="-1.138644" z3="0.387417"><scalar dataType="xsd:integer" dictRef="compchem:atomicNumber">1</scalar></atom><atom id="a22" elementType="H" x3="0.0" y3="0.524698" z3="0.037181"><scalar dataType="xsd:integer" dictRef="compchem:atomicNumber">1</scalar></atom><atom id="a23" elementType="H" x3="0.0" y3="-1.132395" z3="0.480341"><scalar dataType="xsd:integer" dictRef="compchem:atomicNumber">1</scalar></atom><atom id="a24" elementType="H" x3="0.0" y3="-0.205408" z3="-1.012489"><scalar dataType="xsd:integer" dictRef="compchem:atomicNumber">1</scalar></atom><atom id="a25" elementType="H" x3="0.0" y3="0.576297" z3="0.574679"><scalar dataType="xsd:integer" dictRef="compchem:atomicNumber">1</scalar></atom><atom id="a26" elementType="H" x3="0.0" y3="2.583346" z3="-2.716648"><scalar dataType="xsd:integer" dictRef="compchem:atomicNumber">1</scalar></atom><atom id="a27" elementType="H" x3="0.0" y3="2.688555" z3="-0.96112"><scalar dataType="xsd:integer" dictRef="compchem:atomicNumber">1</scalar></atom><atom id="a28" elementType="H" x3="0.0" y3="4.98354" z3="-1.970968"><scalar dataType="xsd:integer" dictRef="compchem:atomicNumber">1</scalar></atom><atom id="a29" elementType="H" x3="0.0" y3="4.822027" z3="-0.915511"><scalar dataType="xsd:integer" dictRef="compchem:atomicNumber">1</scalar></atom><atom id="a30" elementType="H" x3="0.0" y3="4.750977" z3="-2.683338"><scalar dataType="xsd:integer" dictRef="compchem:atomicNumber">1</scalar></atom><atom id="a31" elementType="H" x3="0.0" y3="1.700183" z3="-2.331161"><scalar dataType="xsd:integer" dictRef="compchem:atomicNumber">1</scalar></atom><atom id="a32" elementType="H" x3="0.0" y3="2.992045" z3="-3.220848"><scalar dataType="xsd:integer" dictRef="compchem:atomicNumber">1</scalar></atom><atom id="a33" elementType="H" x3="0.0" y3="0.84186" z3="-4.547095"><scalar dataType="xsd:integer" dictRef="compchem:atomicNumber">1</scalar></atom><atom id="a34" elementType="H" x3="0.0" y3="1.253083" z3="-4.160472"><scalar dataType="xsd:integer" dictRef="compchem:atomicNumber">1</scalar></atom><atom id="a35" elementType="H" x3="0.0" y3="-0.018171" z3="-3.242336"><scalar dataType="xsd:integer" dictRef="compchem:atomicNumber">1</scalar></atom><atom id="a36" elementType="H" x3="0.0" y3="3.404347" z3="3.016664"><scalar dataType="xsd:integer" dictRef="compchem:atomicNumber">1</scalar></atom><atom id="a37" elementType="H" x3="0.0" y3="4.095688" z3="1.835496"><scalar dataType="xsd:integer" dictRef="compchem:atomicNumber">1</scalar></atom><atom id="a38" elementType="H" x3="0.0" y3="1.374938" z3="3.716613"><scalar dataType="xsd:integer" dictRef="compchem:atomicNumber">1</scalar></atom><atom id="a39" elementType="H" x3="0.0" y3="0.2714" z3="2.697668"><scalar dataType="xsd:integer" dictRef="compchem:atomicNumber">1</scalar></atom><atom id="a40" elementType="H" x3="0.0" y3="1.375761" z3="4.375247"><scalar dataType="xsd:integer" dictRef="compchem:atomicNumber">1</scalar></atom><atom id="a41" elementType="H" x3="0.0" y3="1.87932" z3="2.739601"><scalar dataType="xsd:integer" dictRef="compchem:atomicNumber">1</scalar></atom><atom id="a42" elementType="H" x3="0.0" y3="2.986815" z3="3.794389"><scalar dataType="xsd:integer" dictRef="compchem:atomicNumber">1</scalar></atom></atomArray><formula formalCharge="0" concise="C 10 H 26 Br 2 Mg 2 O 2" dictRef="cc:formula.calc"/><bondArray><bond atomRefs2="a1 a2" id="a1_a2" order="S"/><bond atomRefs2="a1 a3" id="a1_a3" order="S"/><bond atomRefs2="a1 a5" id="a1_a5" order="S"/><bond atomRefs2="a1 a6" id="a1_a6" order="S"/><bond atomRefs2="a1 a10" id="a1_a10" order="S"/><bond atomRefs2="a1 a22" id="a1_a22" order="S"/><bond atomRefs2="a1 a24" id="a1_a24" order="S"/><bond atomRefs2="a1 a25" id="a1_a25" order="S"/><bond atomRefs2="a2 a3" id="a2_a3" order="S"/><bond atomRefs2="a2 a6" id="a2_a6" order="S"/><bond atomRefs2="a2 a20" id="a2_a20" order="S"/><bond atomRefs2="a2 a21" id="a2_a21" order="S"/><bond atomRefs2="a2 a22" id="a2_a22" order="S"/><bond atomRefs2="a2 a23" id="a2_a23" order="S"/><bond atomRefs2="a2 a24" id="a2_a24" order="S"/><bond atomRefs2="a2 a25" id="a2_a25" order="S"/><bond atomRefs2="a3 a6" id="a3_a6" order="S"/><bond atomRefs2="a3 a21" id="a3_a21" order="S"/><bond atomRefs2="a3 a22" id="a3_a22" order="S"/><bond atomRefs2="a3 a23" id="a3_a23" order="S"/><bond atomRefs2="a3 a24" id="a3_a24" order="S"/><bond atomRefs2="a3 a25" id="a3_a25" order="S"/><bond atomRefs2="a4 a14" id="a4_a14" order="S"/><bond atomRefs2="a4 a17" id="a4_a17" order="S"/><bond atomRefs2="a4 a18" id="a4_a18" order="S"/><bond atomRefs2="a4 a19" id="a4_a19" order="S"/><bond atomRefs2="a4 a37" id="a4_a37" order="S"/><bond atomRefs2="a5 a9" id="a5_a9" order="S"/><bond atomRefs2="a5 a12" id="a5_a12" order="S"/><bond atomRefs2="a5 a26" id="a5_a26" order="S"/><bond atomRefs2="a5 a27" id="a5_a27" order="S"/><bond atomRefs2="a5 a31" id="a5_a31" order="S"/><bond atomRefs2="a6 a7" id="a6_a7" order="S"/><bond atomRefs2="a6 a8" id="a6_a8" order="S"/><bond atomRefs2="a6 a20" id="a6_a20" order="S"/><bond atomRefs2="a6 a21" id="a6_a21" order="S"/><bond atomRefs2="a6 a23" id="a6_a23" order="S"/><bond atomRefs2="a6 a24" id="a6_a24" order="S"/><bond atomRefs2="a9 a11" id="a9_a11" order="S"/><bond atomRefs2="a9 a12" id="a9_a12" order="S"/><bond atomRefs2="a9 a26" id="a9_a26" order="S"/><bond atomRefs2="a9 a27" id="a9_a27" order="S"/><bond atomRefs2="a10 a14" id="a10_a14" order="S"/><bond atomRefs2="a10 a15" id="a10_a15" order="S"/><bond atomRefs2="a10 a19" id="a10_a19" order="S"/><bond atomRefs2="a10 a41" id="a10_a41" order="S"/><bond atomRefs2="a11 a28" id="a11_a28" order="S"/><bond atomRefs2="a11 a29" id="a11_a29" order="S"/><bond atomRefs2="a11 a30" id="a11_a30" order="S"/><bond atomRefs2="a12 a13" id="a12_a13" order="S"/><bond atomRefs2="a12 a26" id="a12_a26" order="S"/><bond atomRefs2="a12 a31" id="a12_a31" order="S"/><bond atomRefs2="a12 a32" id="a12_a32" order="S"/><bond atomRefs2="a13 a33" id="a13_a33" order="S"/><bond atomRefs2="a13 a34" id="a13_a34" order="S"/><bond atomRefs2="a13 a35" id="a13_a35" order="S"/><bond atomRefs2="a14 a19" id="a14_a19" order="S"/><bond atomRefs2="a14 a36" id="a14_a36" order="S"/><bond atomRefs2="a14 a37" id="a14_a37" order="S"/><bond atomRefs2="a15 a16" id="a15_a16" order="S"/><bond atomRefs2="a15 a38" id="a15_a38" order="S"/><bond atomRefs2="a15 a39" id="a15_a39" order="S"/><bond atomRefs2="a15 a41" id="a15_a41" order="S"/><bond atomRefs2="a16 a38" id="a16_a38" order="S"/><bond atomRefs2="a16 a40" id="a16_a40" order="S"/><bond atomRefs2="a16 a41" id="a16_a41" order="S"/><bond atomRefs2="a16 a42" id="a16_a42" order="S"/><bond atomRefs2="a17 a37" id="a17_a37" order="S"/><bond atomRefs2="a20 a24" id="a20_a24" order="S"/><bond atomRefs2="a21 a23" id="a21_a23" order="S"/><bond atomRefs2="a22 a25" id="a22_a25" order="S"/><bond atomRefs2="a26 a32" id="a26_a32" order="S"/><bond atomRefs2="a28 a30" id="a28_a30" order="S"/><bond atomRefs2="a33 a34" id="a33_a34" order="S"/><bond atomRefs2="a38 a40" id="a38_a40" order="S"/></bondArray><property dictRef="cml:molmass"><scalar dataType="xsd:double" units="unit:dalton" xmlns:unit="http://www.xml-cml.org/unit/si/">408.90492</scalar></property><formula concise="C 10 H 26 Br 2 Mg 2 O 2" dictRef="cc:formula.user"/></molecule><list type="molecule"><scalar dataType="xsd:string">0.125351</scalar></list><list type="molecule"><scalar dataType="xsd:string">1.889278</scalar></list><list type="molecule"><scalar dataType="xsd:string">-1.735167</scalar></list><list type="molecule"><scalar dataType="xsd:string">1.938416</scalar></list><list type="molecule"><scalar dataType="xsd:string">-0.048722</scalar></list><list type="molecule"><scalar dataType="xsd:string">0.02961</scalar></list><list type="molecule"><scalar dataType="xsd:string">0.122469</scalar></list><list type="molecule"><scalar dataType="xsd:string">-0.141362</scalar></list><list type="molecule"><scalar dataType="xsd:string">-1.30218</scalar></list><list type="molecule"><scalar dataType="xsd:string">0.207641</scalar></list><list type="molecule"><scalar dataType="xsd:string">-1.059107</scalar></list><list type="molecule"><scalar dataType="xsd:string">0.833605</scalar></list><list type="molecule"><scalar dataType="xsd:string">0.293181</scalar></list><list type="molecule"><scalar dataType="xsd:string">0.767541</scalar></list><list type="molecule"><scalar dataType="xsd:string">-0.291553</scalar></list><list type="molecule"><scalar dataType="xsd:string">-1.588839</scalar></list><list type="molecule"><scalar dataType="xsd:string">2.348425</scalar></list><list type="molecule"><scalar dataType="xsd:string">1.624607</scalar></list><list type="molecule"><scalar dataType="xsd:string">2.737173</scalar></list><list type="molecule"><scalar dataType="xsd:string">2.162963</scalar></list><list type="molecule"><scalar dataType="xsd:string">2.305591</scalar></list><list type="molecule"><scalar dataType="xsd:string">2.534059</scalar></list><list type="molecule"><scalar dataType="xsd:string">-2.167692</scalar></list><list type="molecule"><scalar dataType="xsd:string">-2.142395</scalar></list><list type="molecule"><scalar dataType="xsd:string">-2.25293</scalar></list><list type="molecule"><scalar dataType="xsd:string">-1.756869</scalar></list><list type="molecule"><scalar dataType="xsd:string">-1.962596</scalar></list><list type="molecule"><scalar dataType="xsd:string">-2.018594</scalar></list><list type="molecule"><scalar dataType="xsd:string">-0.598722</scalar></list><list type="molecule"><scalar dataType="xsd:string">-0.414933</scalar></list><list type="molecule"><scalar dataType="xsd:string">1.795041</scalar></list><list type="molecule"><scalar dataType="xsd:string">0.954051</scalar></list><list type="molecule"><scalar dataType="xsd:string">1.008217</scalar></list><list type="molecule"><scalar dataType="xsd:string">-0.667881</scalar></list><list type="molecule"><scalar dataType="xsd:string">0.176776</scalar></list><list type="molecule"><scalar dataType="xsd:string">1.103049</scalar></list><list type="molecule"><scalar dataType="xsd:string">-0.038171</scalar></list><list type="molecule"><scalar dataType="xsd:string">0.517982</scalar></list><list type="molecule"><scalar dataType="xsd:string">-0.423166</scalar></list><list type="molecule"><scalar dataType="xsd:string">-1.923</scalar></list><list type="molecule"><scalar dataType="xsd:string">-2.380566</scalar></list><list type="molecule"><scalar dataType="xsd:string">-1.461108</scalar></list><scalar dataType="xsd:string" dictRef="cc:version">EM64L-G09RevA.02</scalar><scalar dataType="xsd:string" dictRef="cc:electronicstate">1-A</scalar><scalar dataType="xsd:double" dictRef="cc:hfenergy" units="nonsi:hartree">-575.3230877</scalar><scalar dataType="xsd:double" dictRef="cc:rmsd" units="nonsi:unknown">9.498E-9</scalar><array dataType="xsd:double" size="3" dictRef="cc:dipole" units="nonsi:debye">7.4894736 -0.1037178 9.694E-4</array><scalar dataType="xsd:string" dictRef="x:Quadrupole">-3.7162269,2.1260161,1.5902109,-1.0259992,-0.2174676,-0.9942506</scalar><scalar dataType="xsd:string" dictRef="cc:pointgroup">C01 [X(C10H26Br2Mg2O2)]</scalar><scalar dataType="xsd:string" dictRef="g:archive">@</scalar></module> IF YOU BELIEVE CERTAIN WORDS, YOU BELIEVE THEIR HIDDEN ARGUMENTS. WHEN YOU BELIEVE SOMETHING IS RIGHT OR WRONG, TRUE OR FALSE,  YOU BELIEVE THE ASSUMPTIONS IN THE WORDS WHICH EXPRESS THE ARGUMENTS. SUCH ASSUMPTIONS ARE OFTEN FULL OF HOLES, BUT REMAIN MOST PRECIOUS  TO THE CONVINCED.                 -- THE OPEN-ENDED PROOF FROM THE PANOPLIA PROPHETICA                    CHILDREN OF DUNE BY FRANK HERBERT<module cmlx:lineCount="3" cmlx:templateRef="jobcpu"><scalar dictRef="cc:jobtime" dataType="xsd:string">PT310.400S</scalar><scalar dataType="xsd:date" dictRef="cc:jobdatetime.end">2010-03-15T16:21:48Z</scalar><scalar dataType="xsd:string" dictRef="cc:program">Gaussian 09</scalar></module></module>
