 Entering Gaussian System, Link 0=g03
 Initial command:
 /apps/gaussian/g09/g09/l1.exe /home/scan-user-1/run/26145/Gau-32062.inp -scrdir=/home/scan-user-1/run/26145/
 Entering Link 1 = /apps/gaussian/g09/g09/l1.exe PID=     32063.
  
 Copyright (c) 1988,1990,1992,1993,1995,1998,2003,2009, Gaussian, Inc.
                  All Rights Reserved.
  
 This is part of the Gaussian(R) 09 program.  It is based on
 the Gaussian(R) 03 system (copyright 2003, Gaussian, Inc.),
 the Gaussian(R) 98 system (copyright 1998, Gaussian, Inc.),
 the Gaussian(R) 94 system (copyright 1995, Gaussian, Inc.),
 the Gaussian 92(TM) system (copyright 1992, Gaussian, Inc.),
 the Gaussian 90(TM) system (copyright 1990, Gaussian, Inc.),
 the Gaussian 88(TM) system (copyright 1988, Gaussian, Inc.),
 the Gaussian 86(TM) system (copyright 1986, Carnegie Mellon
 University), and the Gaussian 82(TM) system (copyright 1983,
 Carnegie Mellon University). Gaussian is a federally registered
 trademark of Gaussian, Inc.
  
 This software contains proprietary and confidential information,
 including trade secrets, belonging to Gaussian, Inc.
  
 This software is provided under written license and may be
 used, copied, transmitted, or stored only in accord with that
 written license.
  
 The following legend is applicable only to US Government
 contracts under FAR:
  
                    RESTRICTED RIGHTS LEGEND
  
 Use, reproduction and disclosure by the US Government is
 subject to restrictions as set forth in subparagraphs (a)
 and (c) of the Commercial Computer Software - Restricted
 Rights clause in FAR 52.227-19.
  
 Gaussian, Inc.
 340 Quinnipiac St., Bldg. 40, Wallingford CT 06492
  
  
 ---------------------------------------------------------------
 Warning -- This program may not be used in any manner that
 competes with the business of Gaussian, Inc. or will provide
 assistance to any competitor of Gaussian, Inc.  The licensee
 of this program is prohibited from giving any competitor of
 Gaussian, Inc. access to this program.  By using this program,
 the user acknowledges that Gaussian, Inc. is engaged in the
 business of creating and licensing software in the field of
 computational chemistry and represents and warrants to the
 licensee that it is not a competitor of Gaussian, Inc. and that
 it will not use this program in any manner prohibited above.
 ---------------------------------------------------------------
  

 Cite this work as:
 Gaussian 09, Revision A.02,
 M. J. Frisch, G. W. Trucks, H. B. Schlegel, G. E. Scuseria, 
 M. A. Robb, J. R. Cheeseman, G. Scalmani, V. Barone, B. Mennucci, 
 G. A. Petersson, H. Nakatsuji, M. Caricato, X. Li, H. P. Hratchian, 
 A. F. Izmaylov, J. Bloino, G. Zheng, J. L. Sonnenberg, M. Hada, 
 M. Ehara, K. Toyota, R. Fukuda, J. Hasegawa, M. Ishida, T. Nakajima, 
 Y. Honda, O. Kitao, H. Nakai, T. Vreven, J. A. Montgomery, Jr., 
 J. E. Peralta, F. Ogliaro, M. Bearpark, J. J. Heyd, E. Brothers, 
 K. N. Kudin, V. N. Staroverov, R. Kobayashi, J. Normand, 
 K. Raghavachari, A. Rendell, J. C. Burant, S. S. Iyengar, J. Tomasi, 
 M. Cossi, N. Rega, J. M. Millam, M. Klene, J. E. Knox, J. B. Cross, 
 V. Bakken, C. Adamo, J. Jaramillo, R. Gomperts, R. E. Stratmann, 
 O. Yazyev, A. J. Austin, R. Cammi, C. Pomelli, J. W. Ochterski, 
 R. L. Martin, K. Morokuma, V. G. Zakrzewski, G. A. Voth, 
 P. Salvador, J. J. Dannenberg, S. Dapprich, A. D. Daniels, 
 O. Farkas, J. B. Foresman, J. V. Ortiz, J. Cioslowski, 
 and D. J. Fox, Gaussian, Inc., Wallingford CT, 2009.
 
 ******************************************
 Gaussian 09:  EM64L-G09RevA.02 11-Jun-2009
                15-Mar-2010 
 ******************************************
 %nprocshared=4
 Will use up to    4 processors via shared memory.
 %mem=7000MB
 %NoSave
 %Chk=chk.chk
 %rwf=/tmp/pbs.3645588.cx1/rwf
 -------------------------------------------------
 # rb3lyp/lanl2dz pop=(nbo,full) geom=connectivity
 -------------------------------------------------
 1/38=1,57=2/1;
 2/12=2,17=6,18=5,40=1/2;
 3/5=6,6=3,11=2,16=1,25=1,30=1,74=-5,116=1/1,2,3;
 4//1;
 5/5=2,38=5/2;
 6/7=3,28=1/1,7;
 99/5=1,9=1/99;
 ----------------------------------
 IF5a Molecular orbital Calculation
 ----------------------------------
 Symbolic Z-matrix:
 Charge =  0 Multiplicity = 1
 I                     0.        0.        0. 
 F                     0.        0.        2.12109 
 F                     2.11903   0.        0.09331 
 F                    -1.94045  -0.85144   0.09331 
 F                     0.4266   -2.03393   0.4458 
 F                     0.17858  -0.85144  -1.93447 
 
                          Input orientation:                          
 ---------------------------------------------------------------------
 Center     Atomic      Atomic             Coordinates (Angstroms)
 Number     Number       Type             X           Y           Z
 ---------------------------------------------------------------------
      1         53           0        0.000000    0.000000    0.000000
      2          9           0        0.000000    0.000000    2.121085
      3          9           0        2.119032    0.000000    0.093310
      4          9           0       -1.940449   -0.851443    0.093310
      5          9           0        0.426601   -2.033932    0.445799
      6          9           0        0.178583   -0.851443   -1.934465
 ---------------------------------------------------------------------
                    Distance matrix (angstroms):
                    1          2          3          4          5
     1  I    0.000000
     2  F    2.121085   0.000000
     3  F    2.121085   2.932945   0.000000
     4  F    2.121085   2.932945   4.147811   0.000000
     5  F    2.125466   2.669354   2.669354   2.669354   0.000000
     6  F    2.121085   4.147811   2.932945   2.932945   2.669354
                    6
     6  F    0.000000
 Stoichiometry    F5I
 Framework group  C4V[C4(FI),2SGV(F2)]
 Deg. of freedom     3
 Full point group                 C4V     NOp   8
 Largest Abelian subgroup         C2V     NOp   4
 Largest concise Abelian subgroup C2V     NOp   4
                         Standard orientation:                         
 ---------------------------------------------------------------------
 Center     Atomic      Atomic             Coordinates (Angstroms)
 Number     Number       Type             X           Y           Z
 ---------------------------------------------------------------------
      1         53           0        0.000000    0.000000    0.358621
      2          9           0        0.000000    2.073905   -0.086259
      3          9           0       -2.073905    0.000000   -0.086259
      4          9           0        2.073905    0.000000   -0.086259
      5          9           0        0.000000    0.000000   -1.766845
      6          9           0        0.000000   -2.073905   -0.086259
 ---------------------------------------------------------------------
 Rotational constants (GHZ):      2.1102233      2.1102233      1.5461876
 Standard basis: LANL2DZ (5D, 7F)
 There are    23 symmetry adapted basis functions of A1  symmetry.
 There are     4 symmetry adapted basis functions of A2  symmetry.
 There are    13 symmetry adapted basis functions of B1  symmetry.
 There are    13 symmetry adapted basis functions of B2  symmetry.
 Integral buffers will be    131072 words long.
 Raffenetti 2 integral format.
 Two-electron integral symmetry is turned on.
    53 basis functions,   137 primitive gaussians,    53 cartesian basis functions
    26 alpha electrons       26 beta electrons
       nuclear repulsion energy       221.9111206894 Hartrees.



 Warning!  I  atom    1 may be hypervalent but has no d functions.



 NAtoms=    6 NActive=    6 NUniq=    3 SFac= 3.00D+00 NAtFMM=   80 NAOKFM=F Big=F
 One-electron integrals computed using PRISM.
   8 Symmetry operations used in ECPInt.
 ECPInt:  NShTT=     435 NPrTT=    3463 LenC2=     422 LenP2D=    2217.
 LDataN:  DoStor=T MaxTD1= 4 Len=   56
 NBasis=    53 RedAO= T  NBF=    23     4    13    13
 NBsUse=    53 1.00D-06 NBFU=    23     4    13    13
 Defaulting to unpruned grid for atomic number  53.
 Harris functional with IExCor=  402 diagonalized for initial guess.
 ExpMin= 1.05D-01 ExpMax= 1.00D+04 ExpMxC= 3.50D+02 IAcc=1 IRadAn=         1 AccDes= 0.00D+00
 HarFok:  IExCor=  402 AccDes= 0.00D+00 IRadAn=         1 IDoV= 1
 ScaDFX=  1.000000  1.000000  1.000000  1.000000
 Defaulting to unpruned grid for atomic number  53.
 Defaulting to unpruned grid for atomic number  53.
 Defaulting to unpruned grid for atomic number  53.
 Defaulting to unpruned grid for atomic number  53.
 FoFCou: FMM=F IPFlag=           0 FMFlag=      100000 FMFlg1=           0
         NFxFlg=           0 DoJE=T BraDBF=F KetDBF=T FulRan=T
         Omega=  0.000000  0.000000  1.000000  0.000000  0.000000 ICntrl=     500 IOpCl=  0
         NMat0=    1 NMatS0=    1 NMatT0=    0 NMatD0=    1 NMtDS0=    0 NMtDT0=    0
         I1Cent=           4 NGrid=           0.
 Petite list used in FoFCou.
 Initial guess orbital symmetries:
       Occupied  (E) (E) (A1) (B2) (A1) (A1) (E) (E) (B2) (A1)
                 (A1) (E) (E) (A1) (E) (E) (B2) (B1) (E) (E) (B2)
                 (A1) (A2) (E) (E) (A1)
       Virtual   (A1) (E) (E) (E) (E) (A1) (B1) (E) (E) (A1) (B2)
                 (E) (E) (A1) (B2) (E) (E) (A2) (A1) (E) (E) (B2)
                 (A1) (A1) (E) (E) (A1)
 The electronic state of the initial guess is 1-A1.
 Requested convergence on RMS density matrix=1.00D-08 within 128 cycles.
 Requested convergence on MAX density matrix=1.00D-06.
 Requested convergence on             energy=1.00D-06.
 No special actions if energy rises.
 Keep R1 ints in memory in canonical form, NReq=1984765.
 Integral accuracy reduced to 1.0D-05 until final iterations.
 Defaulting to unpruned grid for atomic number  53.
 Defaulting to unpruned grid for atomic number  53.
 Defaulting to unpruned grid for atomic number  53.
 Defaulting to unpruned grid for atomic number  53.
 EnCoef did   100 forward-backward iterations
 EnCoef did   100 forward-backward iterations
 EnCoef did     8 forward-backward iterations
 Initial convergence to 1.0D-05 achieved.  Increase integral accuracy.
 SCF Done:  E(RB3LYP) =  -510.399351472     A.U. after   19 cycles
             Convg  =    0.3267D-08             -V/T =  2.0219

 **********************************************************************

            Population analysis using the SCF density.

 **********************************************************************

 Orbital symmetries:
       Occupied  (A1) (E) (E) (B2) (A1) (A1) (E) (E) (B2) (A1)
                 (A1) (E) (E) (A1) (E) (E) (B1) (B2) (E) (E) (B2)
                 (A1) (A2) (E) (E) (A1)
       Virtual   (A1) (E) (E) (A1) (E) (E) (B1) (E) (E) (A1) (B2)
                 (E) (E) (A1) (B2) (E) (E) (A2) (A1) (E) (E) (B2)
                 (A1) (A1) (E) (E) (A1)
 The electronic state is 1-A1.
 Alpha  occ. eigenvalues --  -24.75213 -24.74759 -24.74759 -24.74759 -24.74759
 Alpha  occ. eigenvalues --   -1.22342  -1.19252  -1.19252  -1.18121  -1.18074
 Alpha  occ. eigenvalues --   -0.87581  -0.57820  -0.57820  -0.56295  -0.45968
 Alpha  occ. eigenvalues --   -0.45968  -0.45741  -0.45555  -0.44042  -0.44042
 Alpha  occ. eigenvalues --   -0.43914  -0.43861  -0.42846  -0.42274  -0.42274
 Alpha  occ. eigenvalues --   -0.42004
 Alpha virt. eigenvalues --   -0.24158  -0.21522  -0.21522   0.26258   0.28947
 Alpha virt. eigenvalues --    0.28947   0.61785   0.62370   0.62370   0.75448
 Alpha virt. eigenvalues --    0.77600   0.81774   0.81774   0.83143   0.83205
 Alpha virt. eigenvalues --    0.90507   0.90507   0.92194   0.93472   1.04799
 Alpha virt. eigenvalues --    1.04799   1.26043   1.34630   1.40443   1.60756
 Alpha virt. eigenvalues --    1.60756  11.55579
     Molecular Orbital Coefficients:
                           1         2         3         4         5
                        (A1)--O   (E)--O    (E)--O    (B2)--O   (A1)--O
     Eigenvalues --   -24.75213 -24.74759 -24.74759 -24.74759 -24.74759
   1 1   I  1S         -0.00006   0.00000   0.00000   0.00000  -0.00006
   2        2S          0.00041   0.00000   0.00000   0.00000   0.00063
   3        3PX         0.00000  -0.00001   0.00000   0.00000   0.00000
   4        3PY         0.00000   0.00000   0.00001   0.00000   0.00000
   5        3PZ        -0.00005   0.00000   0.00000   0.00000   0.00001
   6        4PX         0.00000  -0.00080   0.00000   0.00000   0.00000
   7        4PY         0.00000   0.00000   0.00080   0.00000   0.00000
   8        4PZ        -0.00040   0.00000   0.00000   0.00000  -0.00031
   9 2   F  1S         -0.00025   0.00000   0.70647   0.49955   0.49955
  10        2S          0.00003   0.00000   0.00310   0.00205   0.00212
  11        3S         -0.00010   0.00000  -0.00142  -0.00068  -0.00083
  12        4PX         0.00000  -0.00002   0.00000   0.00000   0.00000
  13        4PY         0.00001   0.00000  -0.00047  -0.00031  -0.00032
  14        4PZ         0.00001   0.00000   0.00016   0.00009   0.00009
  15        5PX         0.00000   0.00010   0.00000   0.00000   0.00000
  16        5PY         0.00005   0.00000   0.00041   0.00016   0.00025
  17        5PZ        -0.00001   0.00000  -0.00015  -0.00004  -0.00002
  18 3   F  1S         -0.00025   0.70647   0.00000  -0.49955   0.49955
  19        2S          0.00003   0.00310   0.00000  -0.00205   0.00212
  20        3S         -0.00010  -0.00142   0.00000   0.00068  -0.00083
  21        4PX        -0.00001   0.00047   0.00000  -0.00031   0.00032
  22        4PY         0.00000   0.00000   0.00002   0.00000   0.00000
  23        4PZ         0.00001   0.00016   0.00000  -0.00009   0.00009
  24        5PX        -0.00005  -0.00041   0.00000   0.00016  -0.00025
  25        5PY         0.00000   0.00000  -0.00010   0.00000   0.00000
  26        5PZ        -0.00001  -0.00015   0.00000   0.00004  -0.00002
  27 4   F  1S         -0.00025  -0.70647   0.00000  -0.49955   0.49955
  28        2S          0.00003  -0.00310   0.00000  -0.00205   0.00212
  29        3S         -0.00010   0.00142   0.00000   0.00068  -0.00083
  30        4PX         0.00001   0.00047   0.00000   0.00031  -0.00032
  31        4PY         0.00000   0.00000   0.00002   0.00000   0.00000
  32        4PZ         0.00001  -0.00016   0.00000  -0.00009   0.00009
  33        5PX         0.00005  -0.00041   0.00000  -0.00016   0.00025
  34        5PY         0.00000   0.00000  -0.00010   0.00000   0.00000
  35        5PZ        -0.00001   0.00015   0.00000   0.00004  -0.00002
  36 5   F  1S          0.99910   0.00000   0.00000   0.00000   0.00050
  37        2S          0.00424   0.00000   0.00000   0.00000   0.00008
  38        3S         -0.00167   0.00000   0.00000   0.00000  -0.00022
  39        4PX         0.00000   0.00001   0.00000   0.00000   0.00000
  40        4PY         0.00000   0.00000  -0.00001   0.00000   0.00000
  41        4PZ         0.00065   0.00000   0.00000   0.00000  -0.00001
  42        5PX         0.00000   0.00003   0.00000   0.00000   0.00000
  43        5PY         0.00000   0.00000  -0.00003   0.00000   0.00000
  44        5PZ        -0.00047   0.00000   0.00000   0.00000  -0.00008
  45 6   F  1S         -0.00025   0.00000  -0.70647   0.49955   0.49955
  46        2S          0.00003   0.00000  -0.00310   0.00205   0.00212
  47        3S         -0.00010   0.00000   0.00142  -0.00068  -0.00083
  48        4PX         0.00000  -0.00002   0.00000   0.00000   0.00000
  49        4PY        -0.00001   0.00000  -0.00047   0.00031   0.00032
  50        4PZ         0.00001   0.00000  -0.00016   0.00009   0.00009
  51        5PX         0.00000   0.00010   0.00000   0.00000   0.00000
  52        5PY        -0.00005   0.00000   0.00041  -0.00016  -0.00025
  53        5PZ        -0.00001   0.00000   0.00015  -0.00004  -0.00002
                           6         7         8         9        10
                        (A1)--O   (E)--O    (E)--O    (B2)--O   (A1)--O
     Eigenvalues --    -1.22342  -1.19252  -1.19252  -1.18121  -1.18074
   1 1   I  1S          0.11519   0.00000   0.00000   0.00000  -0.01491
   2        2S          0.17307   0.00000   0.00000   0.00000  -0.02158
   3        3PX         0.00000   0.00000  -0.07903   0.00000   0.00000
   4        3PY         0.00000   0.07903   0.00000   0.00000   0.00000
   5        3PZ        -0.04641   0.00000   0.00000   0.00000  -0.03807
   6        4PX         0.00000   0.00000  -0.02161   0.00000   0.00000
   7        4PY         0.00000   0.02161   0.00000   0.00000   0.00000
   8        4PZ        -0.02200   0.00000   0.00000   0.00000  -0.00253
   9 2   F  1S         -0.09664  -0.17593   0.00000  -0.12705   0.06805
  10        2S          0.21151   0.38219   0.00000   0.27329  -0.14700
  11        3S          0.18810   0.36203   0.00000   0.27052  -0.14308
  12        4PX         0.00000   0.00000  -0.00248   0.00000   0.00000
  13        4PY        -0.03806  -0.05226   0.00000  -0.03253   0.01737
  14        4PZ         0.00828   0.01568   0.00000   0.01003  -0.00746
  15        5PX         0.00000   0.00000  -0.00039   0.00000   0.00000
  16        5PY        -0.01093  -0.02539   0.00000  -0.02386   0.01165
  17        5PZ         0.00465   0.00759   0.00000   0.00784  -0.00661
  18 3   F  1S         -0.09664   0.00000  -0.17593   0.12705   0.06805
  19        2S          0.21151   0.00000   0.38219  -0.27329  -0.14700
  20        3S          0.18810   0.00000   0.36203  -0.27052  -0.14308
  21        4PX         0.03806   0.00000   0.05226  -0.03253  -0.01737
  22        4PY         0.00000   0.00248   0.00000   0.00000   0.00000
  23        4PZ         0.00828   0.00000   0.01568  -0.01003  -0.00746
  24        5PX         0.01093   0.00000   0.02539  -0.02386  -0.01165
  25        5PY         0.00000   0.00039   0.00000   0.00000   0.00000
  26        5PZ         0.00465   0.00000   0.00759  -0.00784  -0.00661
  27 4   F  1S         -0.09664   0.00000   0.17593   0.12705   0.06805
  28        2S          0.21151   0.00000  -0.38219  -0.27329  -0.14700
  29        3S          0.18810   0.00000  -0.36203  -0.27052  -0.14308
  30        4PX        -0.03806   0.00000   0.05226   0.03253   0.01737
  31        4PY         0.00000   0.00248   0.00000   0.00000   0.00000
  32        4PZ         0.00828   0.00000  -0.01568  -0.01003  -0.00746
  33        5PX        -0.01093   0.00000   0.02539   0.02386   0.01165
  34        5PY         0.00000   0.00039   0.00000   0.00000   0.00000
  35        5PZ         0.00465   0.00000  -0.00759  -0.00784  -0.00661
  36 5   F  1S         -0.12547   0.00000   0.00000   0.00000  -0.21413
  37        2S          0.27698   0.00000   0.00000   0.00000   0.46423
  38        3S          0.23957   0.00000   0.00000   0.00000   0.45011
  39        4PX         0.00000   0.00000  -0.00403   0.00000   0.00000
  40        4PY         0.00000   0.00403   0.00000   0.00000   0.00000
  41        4PZ         0.04949   0.00000   0.00000   0.00000   0.05627
  42        5PX         0.00000   0.00000  -0.00304   0.00000   0.00000
  43        5PY         0.00000   0.00304   0.00000   0.00000   0.00000
  44        5PZ         0.01244   0.00000   0.00000   0.00000   0.03764
  45 6   F  1S         -0.09664   0.17593   0.00000  -0.12705   0.06805
  46        2S          0.21151  -0.38219   0.00000   0.27329  -0.14700
  47        3S          0.18810  -0.36203   0.00000   0.27052  -0.14308
  48        4PX         0.00000   0.00000  -0.00248   0.00000   0.00000
  49        4PY         0.03806  -0.05226   0.00000   0.03253  -0.01737
  50        4PZ         0.00828  -0.01568   0.00000   0.01003  -0.00746
  51        5PX         0.00000   0.00000  -0.00039   0.00000   0.00000
  52        5PY         0.01093  -0.02539   0.00000   0.02386  -0.01165
  53        5PZ         0.00465  -0.00759   0.00000   0.00784  -0.00661
                          11        12        13        14        15
                        (A1)--O   (E)--O    (E)--O    (A1)--O   (E)--O
     Eigenvalues --    -0.87581  -0.57820  -0.57820  -0.56295  -0.45968
   1 1   I  1S          0.38274   0.00000   0.00000   0.04470   0.00000
   2        2S          0.61977   0.00000   0.00000   0.09822   0.00000
   3        3PX         0.00000   0.00000   0.47781   0.00000   0.00000
   4        3PY         0.00000   0.47781   0.00000   0.00000  -0.03469
   5        3PZ         0.01989   0.00000   0.00000   0.49871   0.00000
   6        4PX         0.00000   0.00000   0.13607   0.00000   0.00000
   7        4PY         0.00000   0.13607   0.00000   0.00000  -0.02751
   8        4PZ        -0.01075   0.00000   0.00000   0.20630   0.00000
   9 2   F  1S          0.05023   0.04502   0.00000  -0.00519  -0.00243
  10        2S         -0.10395  -0.10901   0.00000   0.00993   0.00271
  11        3S         -0.15188  -0.12009   0.00000   0.01964   0.01470
  12        4PX         0.00000   0.00000   0.09782   0.00000   0.00000
  13        4PY        -0.06648  -0.32768   0.00000   0.07110  -0.02815
  14        4PZ         0.01376   0.07922   0.00000   0.11120  -0.39457
  15        5PX         0.00000   0.00000   0.04480   0.00000   0.00000
  16        5PY        -0.00202  -0.15020   0.00000   0.02678  -0.02395
  17        5PZ         0.00416   0.03501   0.00000   0.04701  -0.20647
  18 3   F  1S          0.05023   0.00000  -0.04502  -0.00519   0.00000
  19        2S         -0.10395   0.00000   0.10901   0.00993   0.00000
  20        3S         -0.15188   0.00000   0.12009   0.01964   0.00000
  21        4PX         0.06648   0.00000  -0.32768  -0.07110   0.00000
  22        4PY         0.00000   0.09782   0.00000   0.00000   0.04376
  23        4PZ         0.01376   0.00000  -0.07922   0.11120   0.00000
  24        5PX         0.00202   0.00000  -0.15020  -0.02678   0.00000
  25        5PY         0.00000   0.04480   0.00000   0.00000   0.02857
  26        5PZ         0.00416   0.00000  -0.03501   0.04701   0.00000
  27 4   F  1S          0.05023   0.00000   0.04502  -0.00519   0.00000
  28        2S         -0.10395   0.00000  -0.10901   0.00993   0.00000
  29        3S         -0.15188   0.00000  -0.12009   0.01964   0.00000
  30        4PX        -0.06648   0.00000  -0.32768   0.07110   0.00000
  31        4PY         0.00000   0.09782   0.00000   0.00000   0.04376
  32        4PZ         0.01376   0.00000   0.07922   0.11120   0.00000
  33        5PX        -0.00202   0.00000  -0.15020   0.02678   0.00000
  34        5PY         0.00000   0.04480   0.00000   0.00000   0.02857
  35        5PZ         0.00416   0.00000   0.03501   0.04701   0.00000
  36 5   F  1S          0.04682   0.00000   0.00000  -0.04822   0.00000
  37        2S         -0.09452   0.00000   0.00000   0.11492   0.00000
  38        3S         -0.14859   0.00000   0.00000   0.13849   0.00000
  39        4PX         0.00000   0.00000   0.09935   0.00000   0.00000
  40        4PY         0.00000   0.09935   0.00000   0.00000   0.46912
  41        4PZ         0.06666   0.00000   0.00000  -0.39066   0.00000
  42        5PX         0.00000   0.00000   0.04096   0.00000   0.00000
  43        5PY         0.00000   0.04096   0.00000   0.00000   0.24645
  44        5PZ         0.00024   0.00000   0.00000  -0.17674   0.00000
  45 6   F  1S          0.05023  -0.04502   0.00000  -0.00519   0.00243
  46        2S         -0.10395   0.10901   0.00000   0.00993  -0.00271
  47        3S         -0.15188   0.12009   0.00000   0.01964  -0.01470
  48        4PX         0.00000   0.00000   0.09782   0.00000   0.00000
  49        4PY         0.06648  -0.32768   0.00000  -0.07110  -0.02815
  50        4PZ         0.01376  -0.07922   0.00000   0.11120   0.39457
  51        5PX         0.00000   0.00000   0.04480   0.00000   0.00000
  52        5PY         0.00202  -0.15020   0.00000  -0.02678  -0.02395
  53        5PZ         0.00416  -0.03501   0.00000   0.04701   0.20647
                          16        17        18        19        20
                        (E)--O    (B1)--O   (B2)--O   (E)--O    (E)--O
     Eigenvalues --    -0.45968  -0.45741  -0.45555  -0.44042  -0.44042
   1 1   I  1S          0.00000   0.00000   0.00000   0.00000   0.00000
   2        2S          0.00000   0.00000   0.00000   0.00000   0.00000
   3        3PX        -0.03469   0.00000   0.00000  -0.04046   0.00000
   4        3PY         0.00000   0.00000   0.00000   0.00000  -0.04046
   5        3PZ         0.00000   0.00000   0.00000   0.00000   0.00000
   6        4PX        -0.02751   0.00000   0.00000   0.08955   0.00000
   7        4PY         0.00000   0.00000   0.00000   0.00000   0.08955
   8        4PZ         0.00000   0.00000   0.00000   0.00000   0.00000
   9 2   F  1S          0.00000   0.00000  -0.01341   0.00000  -0.00154
  10        2S          0.00000   0.00000   0.04389   0.00000   0.01142
  11        3S          0.00000   0.00000   0.00632   0.00000  -0.02524
  12        4PX         0.04376   0.36521   0.00000   0.51225   0.00000
  13        4PY         0.00000   0.00000   0.35123   0.00000   0.15833
  14        4PZ         0.00000   0.00000  -0.11234   0.00000   0.01562
  15        5PX         0.02857   0.19770   0.00000   0.24543   0.00000
  16        5PY         0.00000   0.00000   0.19642   0.00000   0.09043
  17        5PZ         0.00000   0.00000  -0.06240   0.00000   0.00259
  18 3   F  1S          0.00243   0.00000   0.01341   0.00154   0.00000
  19        2S         -0.00271   0.00000  -0.04389  -0.01142   0.00000
  20        3S         -0.01470   0.00000  -0.00632   0.02524   0.00000
  21        4PX        -0.02815   0.00000   0.35123   0.15833   0.00000
  22        4PY         0.00000  -0.36521   0.00000   0.00000   0.51225
  23        4PZ         0.39457   0.00000   0.11234  -0.01562   0.00000
  24        5PX        -0.02395   0.00000   0.19642   0.09043   0.00000
  25        5PY         0.00000  -0.19770   0.00000   0.00000   0.24543
  26        5PZ         0.20647   0.00000   0.06240  -0.00259   0.00000
  27 4   F  1S         -0.00243   0.00000   0.01341  -0.00154   0.00000
  28        2S          0.00271   0.00000  -0.04389   0.01142   0.00000
  29        3S          0.01470   0.00000  -0.00632  -0.02524   0.00000
  30        4PX        -0.02815   0.00000  -0.35123   0.15833   0.00000
  31        4PY         0.00000   0.36521   0.00000   0.00000   0.51225
  32        4PZ        -0.39457   0.00000   0.11234   0.01562   0.00000
  33        5PX        -0.02395   0.00000  -0.19642   0.09043   0.00000
  34        5PY         0.00000   0.19770   0.00000   0.00000   0.24543
  35        5PZ        -0.20647   0.00000   0.06240   0.00259   0.00000
  36 5   F  1S          0.00000   0.00000   0.00000   0.00000   0.00000
  37        2S          0.00000   0.00000   0.00000   0.00000   0.00000
  38        3S          0.00000   0.00000   0.00000   0.00000   0.00000
  39        4PX         0.46912   0.00000   0.00000  -0.05058   0.00000
  40        4PY         0.00000   0.00000   0.00000   0.00000  -0.05058
  41        4PZ         0.00000   0.00000   0.00000   0.00000   0.00000
  42        5PX         0.24645   0.00000   0.00000  -0.03140   0.00000
  43        5PY         0.00000   0.00000   0.00000   0.00000  -0.03140
  44        5PZ         0.00000   0.00000   0.00000   0.00000   0.00000
  45 6   F  1S          0.00000   0.00000  -0.01341   0.00000   0.00154
  46        2S          0.00000   0.00000   0.04389   0.00000  -0.01142
  47        3S          0.00000   0.00000   0.00632   0.00000   0.02524
  48        4PX         0.04376  -0.36521   0.00000   0.51225   0.00000
  49        4PY         0.00000   0.00000  -0.35123   0.00000   0.15833
  50        4PZ         0.00000   0.00000  -0.11234   0.00000  -0.01562
  51        5PX         0.02857  -0.19770   0.00000   0.24543   0.00000
  52        5PY         0.00000   0.00000  -0.19642   0.00000   0.09043
  53        5PZ         0.00000   0.00000  -0.06240   0.00000  -0.00259
                          21        22        23        24        25
                        (B2)--O   (A1)--O   (A2)--O   (E)--O    (E)--O
     Eigenvalues --    -0.43914  -0.43861  -0.42846  -0.42274  -0.42274
   1 1   I  1S          0.00000   0.01678   0.00000   0.00000   0.00000
   2        2S          0.00000   0.03694   0.00000   0.00000   0.00000
   3        3PX         0.00000   0.00000   0.00000   0.00000  -0.02685
   4        3PY         0.00000   0.00000   0.00000  -0.02685   0.00000
   5        3PZ         0.00000  -0.02183   0.00000   0.00000   0.00000
   6        4PX         0.00000   0.00000   0.00000   0.00000   0.06539
   7        4PY         0.00000   0.00000   0.00000   0.06539   0.00000
   8        4PZ         0.00000   0.09115   0.00000   0.00000   0.00000
   9 2   F  1S          0.00042  -0.00337   0.00000   0.00200   0.00000
  10        2S         -0.00183   0.01070   0.00000  -0.00126   0.00000
  11        3S          0.00041   0.00315   0.00000  -0.02163   0.00000
  12        4PX         0.00000   0.00000   0.38884   0.00000  -0.03230
  13        4PY         0.11798   0.21032   0.00000   0.16504   0.00000
  14        4PZ         0.36224   0.22333   0.00000   0.32841   0.00000
  15        5PX         0.00000   0.00000   0.18354   0.00000  -0.02224
  16        5PY         0.05819   0.10940   0.00000   0.08784   0.00000
  17        5PZ         0.17925   0.10239   0.00000   0.15184   0.00000
  18 3   F  1S         -0.00042  -0.00337   0.00000   0.00000  -0.00200
  19        2S          0.00183   0.01070   0.00000   0.00000   0.00126
  20        3S         -0.00041   0.00315   0.00000   0.00000   0.02163
  21        4PX         0.11798  -0.21032   0.00000   0.00000   0.16504
  22        4PY         0.00000   0.00000   0.38884  -0.03230   0.00000
  23        4PZ        -0.36224   0.22333   0.00000   0.00000  -0.32841
  24        5PX         0.05819  -0.10940   0.00000   0.00000   0.08784
  25        5PY         0.00000   0.00000   0.18354  -0.02224   0.00000
  26        5PZ        -0.17925   0.10239   0.00000   0.00000  -0.15184
  27 4   F  1S         -0.00042  -0.00337   0.00000   0.00000   0.00200
  28        2S          0.00183   0.01070   0.00000   0.00000  -0.00126
  29        3S         -0.00041   0.00315   0.00000   0.00000  -0.02163
  30        4PX        -0.11798   0.21032   0.00000   0.00000   0.16504
  31        4PY         0.00000   0.00000  -0.38884  -0.03230   0.00000
  32        4PZ        -0.36224   0.22333   0.00000   0.00000   0.32841
  33        5PX        -0.05819   0.10940   0.00000   0.00000   0.08784
  34        5PY         0.00000   0.00000  -0.18354  -0.02224   0.00000
  35        5PZ        -0.17925   0.10239   0.00000   0.00000   0.15184
  36 5   F  1S          0.00000   0.00704   0.00000   0.00000   0.00000
  37        2S          0.00000  -0.03033   0.00000   0.00000   0.00000
  38        3S          0.00000   0.02510   0.00000   0.00000   0.00000
  39        4PX         0.00000   0.00000   0.00000   0.00000   0.58644
  40        4PY         0.00000   0.00000   0.00000   0.58644   0.00000
  41        4PZ         0.00000   0.44978   0.00000   0.00000   0.00000
  42        5PX         0.00000   0.00000   0.00000   0.00000   0.26443
  43        5PY         0.00000   0.00000   0.00000   0.26443   0.00000
  44        5PZ         0.00000   0.24694   0.00000   0.00000   0.00000
  45 6   F  1S          0.00042  -0.00337   0.00000  -0.00200   0.00000
  46        2S         -0.00183   0.01070   0.00000   0.00126   0.00000
  47        3S          0.00041   0.00315   0.00000   0.02163   0.00000
  48        4PX         0.00000   0.00000  -0.38884   0.00000  -0.03230
  49        4PY        -0.11798  -0.21032   0.00000   0.16504   0.00000
  50        4PZ         0.36224   0.22333   0.00000  -0.32841   0.00000
  51        5PX         0.00000   0.00000  -0.18354   0.00000  -0.02224
  52        5PY        -0.05819  -0.10940   0.00000   0.08784   0.00000
  53        5PZ         0.17925   0.10239   0.00000  -0.15184   0.00000
                          26        27        28        29        30
                        (A1)--O   (A1)--V   (E)--V    (E)--V    (A1)--V
     Eigenvalues --    -0.42004  -0.24158  -0.21522  -0.21522   0.26258
   1 1   I  1S         -0.11294  -0.15412   0.00000   0.00000  -0.08267
   2        2S         -0.24275  -0.32204   0.00000   0.00000  -0.17629
   3        3PX         0.00000   0.00000   0.61765   0.00000   0.00000
   4        3PY         0.00000   0.00000   0.00000   0.61765   0.00000
   5        3PZ        -0.19942   0.51127   0.00000   0.00000  -1.24514
   6        4PX         0.00000   0.00000   0.45903   0.00000   0.00000
   7        4PY         0.00000   0.00000   0.00000   0.45903   0.00000
   8        4PZ        -0.07133   0.41565   0.00000   0.00000   1.72549
   9 2   F  1S          0.00511  -0.01024   0.00000   0.02920  -0.00735
  10        2S         -0.02117   0.01757   0.00000  -0.05376   0.00296
  11        3S          0.01424   0.06740   0.00000  -0.18344   0.10891
  12        4PX         0.00000   0.00000  -0.13004   0.00000   0.00000
  13        4PY        -0.23142  -0.20272   0.00000   0.37018   0.00525
  14        4PZ         0.27923  -0.06320   0.00000  -0.13871  -0.07283
  15        5PX         0.00000   0.00000  -0.07935   0.00000   0.00000
  16        5PY        -0.13177  -0.12590   0.00000   0.23818  -0.07711
  17        5PZ         0.14597  -0.04579   0.00000  -0.06941  -0.07093
  18 3   F  1S          0.00511  -0.01024  -0.02920   0.00000  -0.00735
  19        2S         -0.02117   0.01757   0.05376   0.00000   0.00296
  20        3S          0.01424   0.06740   0.18344   0.00000   0.10891
  21        4PX         0.23142   0.20272   0.37018   0.00000  -0.00525
  22        4PY         0.00000   0.00000   0.00000  -0.13004   0.00000
  23        4PZ         0.27923  -0.06320   0.13871   0.00000  -0.07283
  24        5PX         0.13177   0.12590   0.23818   0.00000   0.07711
  25        5PY         0.00000   0.00000   0.00000  -0.07935   0.00000
  26        5PZ         0.14597  -0.04579   0.06941   0.00000  -0.07093
  27 4   F  1S          0.00511  -0.01024   0.02920   0.00000  -0.00735
  28        2S         -0.02117   0.01757  -0.05376   0.00000   0.00296
  29        3S          0.01424   0.06740  -0.18344   0.00000   0.10891
  30        4PX        -0.23142  -0.20272   0.37018   0.00000   0.00525
  31        4PY         0.00000   0.00000   0.00000  -0.13004   0.00000
  32        4PZ         0.27923  -0.06320  -0.13871   0.00000  -0.07283
  33        5PX        -0.13177  -0.12590   0.23818   0.00000  -0.07711
  34        5PY         0.00000   0.00000   0.00000  -0.07935   0.00000
  35        5PZ         0.14597  -0.04579  -0.06941   0.00000  -0.07093
  36 5   F  1S         -0.00212  -0.02716   0.00000   0.00000  -0.02527
  37        2S          0.01523   0.03862   0.00000   0.00000  -0.01202
  38        3S         -0.01748   0.20240   0.00000   0.00000   0.46759
  39        4PX         0.00000   0.00000  -0.09330   0.00000   0.00000
  40        4PY         0.00000   0.00000   0.00000  -0.09330   0.00000
  41        4PZ        -0.08878   0.46355   0.00000   0.00000  -0.17681
  42        5PX         0.00000   0.00000  -0.06982   0.00000   0.00000
  43        5PY         0.00000   0.00000   0.00000  -0.06982   0.00000
  44        5PZ        -0.06430   0.29889   0.00000   0.00000   0.26616
  45 6   F  1S          0.00511  -0.01024   0.00000  -0.02920  -0.00735
  46        2S         -0.02117   0.01757   0.00000   0.05376   0.00296
  47        3S          0.01424   0.06740   0.00000   0.18344   0.10891
  48        4PX         0.00000   0.00000  -0.13004   0.00000   0.00000
  49        4PY         0.23142   0.20272   0.00000   0.37018  -0.00525
  50        4PZ         0.27923  -0.06320   0.00000   0.13871  -0.07283
  51        5PX         0.00000   0.00000  -0.07935   0.00000   0.00000
  52        5PY         0.13177   0.12590   0.00000   0.23818   0.07711
  53        5PZ         0.14597  -0.04579   0.00000   0.06941  -0.07093
                          31        32        33        34        35
                        (E)--V    (E)--V    (B1)--V   (E)--V    (E)--V
     Eigenvalues --     0.28947   0.28947   0.61785   0.62370   0.62370
   1 1   I  1S          0.00000   0.00000   0.00000   0.00000   0.00000
   2        2S          0.00000   0.00000   0.00000   0.00000   0.00000
   3        3PX         0.00000  -1.21292   0.00000   0.00000  -0.10680
   4        3PY        -1.21292   0.00000   0.00000  -0.10680   0.00000
   5        3PZ         0.00000   0.00000   0.00000   0.00000   0.00000
   6        4PX         0.00000   1.86965   0.00000   0.00000  -0.09377
   7        4PY         1.86965   0.00000   0.00000  -0.09377   0.00000
   8        4PZ         0.00000   0.00000   0.00000   0.00000   0.00000
   9 2   F  1S          0.03410   0.00000   0.00000   0.00548   0.00000
  10        2S         -0.04133   0.00000   0.00000  -0.06027   0.00000
  11        3S         -0.44811   0.00000   0.00000   0.08123   0.00000
  12        4PX         0.00000  -0.10734  -0.43477   0.00000  -0.14133
  13        4PY        -0.15484   0.00000   0.00000   0.17758   0.00000
  14        4PZ        -0.05176   0.00000   0.00000   0.40421   0.00000
  15        5PX         0.00000  -0.07476   0.49724   0.00000   0.17185
  16        5PY         0.25341   0.00000   0.00000  -0.22507   0.00000
  17        5PZ        -0.02095   0.00000   0.00000  -0.44281   0.00000
  18 3   F  1S          0.00000  -0.03410   0.00000   0.00000  -0.00548
  19        2S          0.00000   0.04133   0.00000   0.00000   0.06027
  20        3S          0.00000   0.44811   0.00000   0.00000  -0.08123
  21        4PX         0.00000  -0.15484   0.00000   0.00000   0.17758
  22        4PY        -0.10734   0.00000   0.43477  -0.14133   0.00000
  23        4PZ         0.00000   0.05176   0.00000   0.00000  -0.40421
  24        5PX         0.00000   0.25341   0.00000   0.00000  -0.22507
  25        5PY        -0.07476   0.00000  -0.49724   0.17185   0.00000
  26        5PZ         0.00000   0.02095   0.00000   0.00000   0.44281
  27 4   F  1S          0.00000   0.03410   0.00000   0.00000   0.00548
  28        2S          0.00000  -0.04133   0.00000   0.00000  -0.06027
  29        3S          0.00000  -0.44811   0.00000   0.00000   0.08123
  30        4PX         0.00000  -0.15484   0.00000   0.00000   0.17758
  31        4PY        -0.10734   0.00000  -0.43477  -0.14133   0.00000
  32        4PZ         0.00000  -0.05176   0.00000   0.00000   0.40421
  33        5PX         0.00000   0.25341   0.00000   0.00000  -0.22507
  34        5PY        -0.07476   0.00000   0.49724   0.17185   0.00000
  35        5PZ         0.00000  -0.02095   0.00000   0.00000  -0.44281
  36 5   F  1S          0.00000   0.00000   0.00000   0.00000   0.00000
  37        2S          0.00000   0.00000   0.00000   0.00000   0.00000
  38        3S          0.00000   0.00000   0.00000   0.00000   0.00000
  39        4PX         0.00000  -0.04667   0.00000   0.00000  -0.56394
  40        4PY        -0.04667   0.00000   0.00000  -0.56394   0.00000
  41        4PZ         0.00000   0.00000   0.00000   0.00000   0.00000
  42        5PX         0.00000  -0.11285   0.00000   0.00000   0.63284
  43        5PY        -0.11285   0.00000   0.00000   0.63284   0.00000
  44        5PZ         0.00000   0.00000   0.00000   0.00000   0.00000
  45 6   F  1S         -0.03410   0.00000   0.00000  -0.00548   0.00000
  46        2S          0.04133   0.00000   0.00000   0.06027   0.00000
  47        3S          0.44811   0.00000   0.00000  -0.08123   0.00000
  48        4PX         0.00000  -0.10734   0.43477   0.00000  -0.14133
  49        4PY        -0.15484   0.00000   0.00000   0.17758   0.00000
  50        4PZ         0.05176   0.00000   0.00000  -0.40421   0.00000
  51        5PX         0.00000  -0.07476  -0.49724   0.00000   0.17185
  52        5PY         0.25341   0.00000   0.00000  -0.22507   0.00000
  53        5PZ         0.02095   0.00000   0.00000   0.44281   0.00000
                          36        37        38        39        40
                        (A1)--V   (B2)--V   (E)--V    (E)--V    (A1)--V
     Eigenvalues --     0.75448   0.77600   0.81774   0.81774   0.83143
   1 1   I  1S         -0.05024   0.00000   0.00000   0.00000   0.17580
   2        2S         -0.11487   0.00000   0.00000   0.00000   0.54135
   3        3PX         0.00000   0.00000  -0.09147   0.00000   0.00000
   4        3PY         0.00000   0.00000   0.00000  -0.09147   0.00000
   5        3PZ         0.09601   0.00000   0.00000   0.00000  -0.19670
   6        4PX         0.00000   0.00000  -0.39936   0.00000   0.00000
   7        4PY         0.00000   0.00000   0.00000  -0.39936   0.00000
   8        4PZ         0.44674   0.00000   0.00000   0.00000  -0.09809
   9 2   F  1S         -0.00540   0.00492   0.00000  -0.02463   0.01148
  10        2S          0.03079  -0.05215   0.00000   0.13517  -0.04536
  11        3S          0.00595   0.05399   0.00000   0.00824  -0.03034
  12        4PX         0.00000   0.00000  -0.52002   0.00000   0.00000
  13        4PY         0.00449   0.17807   0.00000   0.22793  -0.42970
  14        4PZ         0.35342  -0.40249   0.00000  -0.10252   0.04382
  15        5PX         0.00000   0.00000   0.70959   0.00000   0.00000
  16        5PY        -0.03776  -0.22731   0.00000  -0.38509   0.63741
  17        5PZ        -0.46681   0.51013   0.00000   0.15344  -0.06391
  18 3   F  1S         -0.00540  -0.00492   0.02463   0.00000   0.01148
  19        2S          0.03079   0.05215  -0.13517   0.00000  -0.04536
  20        3S          0.00595  -0.05399  -0.00824   0.00000  -0.03034
  21        4PX        -0.00449   0.17807   0.22793   0.00000   0.42970
  22        4PY         0.00000   0.00000   0.00000  -0.52002   0.00000
  23        4PZ         0.35342   0.40249   0.10252   0.00000   0.04382
  24        5PX         0.03776  -0.22731  -0.38509   0.00000  -0.63741
  25        5PY         0.00000   0.00000   0.00000   0.70959   0.00000
  26        5PZ        -0.46681  -0.51013  -0.15344   0.00000  -0.06391
  27 4   F  1S         -0.00540  -0.00492  -0.02463   0.00000   0.01148
  28        2S          0.03079   0.05215   0.13517   0.00000  -0.04536
  29        3S          0.00595  -0.05399   0.00824   0.00000  -0.03034
  30        4PX         0.00449  -0.17807   0.22793   0.00000  -0.42970
  31        4PY         0.00000   0.00000   0.00000  -0.52002   0.00000
  32        4PZ         0.35342   0.40249  -0.10252   0.00000   0.04382
  33        5PX        -0.03776   0.22731  -0.38509   0.00000   0.63741
  34        5PY         0.00000   0.00000   0.00000   0.70959   0.00000
  35        5PZ        -0.46681  -0.51013   0.15344   0.00000  -0.06391
  36 5   F  1S          0.00517   0.00000   0.00000   0.00000   0.00361
  37        2S         -0.12703   0.00000   0.00000   0.00000   0.01227
  38        3S          0.25897   0.00000   0.00000   0.00000  -0.08736
  39        4PX         0.00000   0.00000   0.24490   0.00000   0.00000
  40        4PY         0.00000   0.00000   0.00000   0.24490   0.00000
  41        4PZ        -0.50570   0.00000   0.00000   0.00000   0.04896
  42        5PX         0.00000   0.00000  -0.29321   0.00000   0.00000
  43        5PY         0.00000   0.00000   0.00000  -0.29321   0.00000
  44        5PZ         0.72710   0.00000   0.00000   0.00000  -0.14564
  45 6   F  1S         -0.00540   0.00492   0.00000   0.02463   0.01148
  46        2S          0.03079  -0.05215   0.00000  -0.13517  -0.04536
  47        3S          0.00595   0.05399   0.00000  -0.00824  -0.03034
  48        4PX         0.00000   0.00000  -0.52002   0.00000   0.00000
  49        4PY        -0.00449  -0.17807   0.00000   0.22793   0.42970
  50        4PZ         0.35342  -0.40249   0.00000   0.10252   0.04382
  51        5PX         0.00000   0.00000   0.70959   0.00000   0.00000
  52        5PY         0.03776   0.22731   0.00000  -0.38509  -0.63741
  53        5PZ        -0.46681   0.51013   0.00000  -0.15344  -0.06391
                          41        42        43        44        45
                        (B2)--V   (E)--V    (E)--V    (A2)--V   (A1)--V
     Eigenvalues --     0.83205   0.90507   0.90507   0.92194   0.93472
   1 1   I  1S          0.00000   0.00000   0.00000   0.00000  -0.04489
   2        2S          0.00000   0.00000   0.00000   0.00000  -0.18051
   3        3PX         0.00000   0.49854   0.00000   0.00000   0.00000
   4        3PY         0.00000   0.00000   0.49854   0.00000   0.00000
   5        3PZ         0.00000   0.00000   0.00000   0.00000   0.54634
   6        4PX         0.00000  -0.08338   0.00000   0.00000   0.00000
   7        4PY         0.00000   0.00000  -0.08338   0.00000   0.00000
   8        4PZ         0.00000   0.00000   0.00000   0.00000  -0.55607
   9 2   F  1S          0.00272   0.00000   0.01278   0.00000   0.00817
  10        2S         -0.01071   0.00000  -0.07684   0.00000  -0.06823
  11        3S         -0.00021   0.00000   0.04886   0.00000   0.04822
  12        4PX         0.00000  -0.18694   0.00000  -0.43757   0.00000
  13        4PY        -0.41496   0.00000  -0.40442   0.00000  -0.05587
  14        4PZ        -0.16454   0.00000   0.34532   0.00000  -0.23395
  15        5PX         0.00000   0.25587   0.00000   0.59880   0.00000
  16        5PY         0.54504   0.00000   0.60800   0.00000   0.08180
  17        5PZ         0.21485   0.00000  -0.49035   0.00000   0.37719
  18 3   F  1S         -0.00272  -0.01278   0.00000   0.00000   0.00817
  19        2S          0.01071   0.07684   0.00000   0.00000  -0.06823
  20        3S          0.00021  -0.04886   0.00000   0.00000   0.04822
  21        4PX        -0.41496  -0.40442   0.00000   0.00000   0.05587
  22        4PY         0.00000   0.00000  -0.18694  -0.43757   0.00000
  23        4PZ         0.16454  -0.34532   0.00000   0.00000  -0.23395
  24        5PX         0.54504   0.60800   0.00000   0.00000  -0.08180
  25        5PY         0.00000   0.00000   0.25587   0.59880   0.00000
  26        5PZ        -0.21485   0.49035   0.00000   0.00000   0.37719
  27 4   F  1S         -0.00272   0.01278   0.00000   0.00000   0.00817
  28        2S          0.01071  -0.07684   0.00000   0.00000  -0.06823
  29        3S          0.00021   0.04886   0.00000   0.00000   0.04822
  30        4PX         0.41496  -0.40442   0.00000   0.00000  -0.05587
  31        4PY         0.00000   0.00000  -0.18694   0.43757   0.00000
  32        4PZ         0.16454   0.34532   0.00000   0.00000  -0.23395
  33        5PX        -0.54504   0.60800   0.00000   0.00000   0.08180
  34        5PY         0.00000   0.00000   0.25587  -0.59880   0.00000
  35        5PZ        -0.21485  -0.49035   0.00000   0.00000   0.37719
  36 5   F  1S          0.00000   0.00000   0.00000   0.00000  -0.03194
  37        2S          0.00000   0.00000   0.00000   0.00000   0.28319
  38        3S          0.00000   0.00000   0.00000   0.00000  -0.33412
  39        4PX         0.00000   0.32099   0.00000   0.00000   0.00000
  40        4PY         0.00000   0.00000   0.32099   0.00000   0.00000
  41        4PZ         0.00000   0.00000   0.00000   0.00000  -0.69154
  42        5PX         0.00000  -0.42889   0.00000   0.00000   0.00000
  43        5PY         0.00000   0.00000  -0.42889   0.00000   0.00000
  44        5PZ         0.00000   0.00000   0.00000   0.00000   0.98336
  45 6   F  1S          0.00272   0.00000  -0.01278   0.00000   0.00817
  46        2S         -0.01071   0.00000   0.07684   0.00000  -0.06823
  47        3S         -0.00021   0.00000  -0.04886   0.00000   0.04822
  48        4PX         0.00000  -0.18694   0.00000   0.43757   0.00000
  49        4PY         0.41496   0.00000  -0.40442   0.00000   0.05587
  50        4PZ        -0.16454   0.00000  -0.34532   0.00000  -0.23395
  51        5PX         0.00000   0.25587   0.00000  -0.59880   0.00000
  52        5PY        -0.54504   0.00000   0.60800   0.00000  -0.08180
  53        5PZ         0.21485   0.00000   0.49035   0.00000   0.37719
                          46        47        48        49        50
                        (E)--V    (E)--V    (B2)--V   (A1)--V   (A1)--V
     Eigenvalues --     1.04799   1.04799   1.26043   1.34630   1.40443
   1 1   I  1S          0.00000   0.00000   0.00000  -0.16428  -0.18118
   2        2S          0.00000   0.00000   0.00000  -0.22306  -0.24562
   3        3PX         0.00000   0.55038   0.00000   0.00000   0.00000
   4        3PY         0.55038   0.00000   0.00000   0.00000   0.00000
   5        3PZ         0.00000   0.00000   0.00000  -0.07780   0.08206
   6        4PX         0.00000  -0.75794   0.00000   0.00000   0.00000
   7        4PY        -0.75794   0.00000   0.00000   0.00000   0.00000
   8        4PZ         0.00000   0.00000   0.00000   0.25538   0.35084
   9 2   F  1S         -0.00463   0.00000  -0.07936   0.07319   0.01830
  10        2S         -0.01444   0.00000   0.79066  -0.77590  -0.22345
  11        3S          0.17327   0.00000  -0.77648   0.81127   0.27086
  12        4PX         0.00000  -0.21036   0.00000   0.00000   0.00000
  13        4PY        -0.33392   0.00000  -0.01749   0.06191  -0.00273
  14        4PZ        -0.28473   0.00000  -0.02517   0.05057  -0.06257
  15        5PX         0.00000   0.35987   0.00000   0.00000   0.00000
  16        5PY         0.45233   0.00000   0.02308  -0.14225  -0.05168
  17        5PZ         0.44361   0.00000   0.03773  -0.09063   0.08073
  18 3   F  1S          0.00000   0.00463   0.07936   0.07319   0.01830
  19        2S          0.00000   0.01444  -0.79066  -0.77590  -0.22345
  20        3S          0.00000  -0.17327   0.77648   0.81127   0.27086
  21        4PX         0.00000  -0.33392  -0.01749  -0.06191   0.00273
  22        4PY        -0.21036   0.00000   0.00000   0.00000   0.00000
  23        4PZ         0.00000   0.28473   0.02517   0.05057  -0.06257
  24        5PX         0.00000   0.45233   0.02308   0.14225   0.05168
  25        5PY         0.35987   0.00000   0.00000   0.00000   0.00000
  26        5PZ         0.00000  -0.44361  -0.03773  -0.09063   0.08073
  27 4   F  1S          0.00000  -0.00463   0.07936   0.07319   0.01830
  28        2S          0.00000  -0.01444  -0.79066  -0.77590  -0.22345
  29        3S          0.00000   0.17327   0.77648   0.81127   0.27086
  30        4PX         0.00000  -0.33392   0.01749   0.06191  -0.00273
  31        4PY        -0.21036   0.00000   0.00000   0.00000   0.00000
  32        4PZ         0.00000  -0.28473   0.02517   0.05057  -0.06257
  33        5PX         0.00000   0.45233  -0.02308  -0.14225  -0.05168
  34        5PY         0.35987   0.00000   0.00000   0.00000   0.00000
  35        5PZ         0.00000   0.44361  -0.03773  -0.09063   0.08073
  36 5   F  1S          0.00000   0.00000   0.00000  -0.04099   0.14254
  37        2S          0.00000   0.00000   0.00000   0.37368  -1.56981
  38        3S          0.00000   0.00000   0.00000  -0.29012   1.71034
  39        4PX         0.00000  -0.52642   0.00000   0.00000   0.00000
  40        4PY        -0.52642   0.00000   0.00000   0.00000   0.00000
  41        4PZ         0.00000   0.00000   0.00000   0.08395  -0.12339
  42        5PX         0.00000   0.84583   0.00000   0.00000   0.00000
  43        5PY         0.84583   0.00000   0.00000   0.00000   0.00000
  44        5PZ         0.00000   0.00000   0.00000  -0.07230   0.31019
  45 6   F  1S          0.00463   0.00000  -0.07936   0.07319   0.01830
  46        2S          0.01444   0.00000   0.79066  -0.77590  -0.22345
  47        3S         -0.17327   0.00000  -0.77648   0.81127   0.27086
  48        4PX         0.00000  -0.21036   0.00000   0.00000   0.00000
  49        4PY        -0.33392   0.00000   0.01749  -0.06191   0.00273
  50        4PZ         0.28473   0.00000  -0.02517   0.05057  -0.06257
  51        5PX         0.00000   0.35987   0.00000   0.00000   0.00000
  52        5PY         0.45233   0.00000  -0.02308   0.14225   0.05168
  53        5PZ        -0.44361   0.00000   0.03773  -0.09063   0.08073
                          51        52        53
                        (E)--V    (E)--V    (A1)--V
     Eigenvalues --     1.60756   1.60756  11.55579
   1 1   I  1S          0.00000   0.00000  -1.74937
   2        2S          0.00000   0.00000   2.26891
   3        3PX        -0.05815   0.00000   0.00000
   4        3PY         0.00000   0.05815   0.00000
   5        3PZ         0.00000   0.00000   0.11289
   6        4PX         0.98356   0.00000   0.00000
   7        4PY         0.00000  -0.98356   0.00000
   8        4PZ         0.00000   0.00000  -0.61991
   9 2   F  1S          0.00000   0.09735  -0.00136
  10        2S          0.00000  -1.21847   0.19710
  11        3S          0.00000   1.52136  -0.44576
  12        4PX         0.05909   0.00000   0.00000
  13        4PY         0.00000   0.09752  -0.01298
  14        4PZ         0.00000  -0.07554  -0.01409
  15        5PX        -0.18357   0.00000   0.00000
  16        5PY         0.00000  -0.31967   0.20627
  17        5PZ         0.00000   0.17527   0.03511
  18 3   F  1S          0.09735   0.00000  -0.00136
  19        2S         -1.21847   0.00000   0.19710
  20        3S          1.52136   0.00000  -0.44576
  21        4PX        -0.09752   0.00000   0.01298
  22        4PY         0.00000  -0.05909   0.00000
  23        4PZ        -0.07554   0.00000  -0.01409
  24        5PX         0.31967   0.00000  -0.20627
  25        5PY         0.00000   0.18357   0.00000
  26        5PZ         0.17527   0.00000   0.03511
  27 4   F  1S         -0.09735   0.00000  -0.00136
  28        2S          1.21847   0.00000   0.19710
  29        3S         -1.52136   0.00000  -0.44576
  30        4PX        -0.09752   0.00000  -0.01298
  31        4PY         0.00000  -0.05909   0.00000
  32        4PZ         0.07554   0.00000  -0.01409
  33        5PX         0.31967   0.00000   0.20627
  34        5PY         0.00000   0.18357   0.00000
  35        5PZ        -0.17527   0.00000   0.03511
  36 5   F  1S          0.00000   0.00000  -0.00176
  37        2S          0.00000   0.00000   0.28965
  38        3S          0.00000   0.00000  -0.67548
  39        4PX        -0.04267   0.00000   0.00000
  40        4PY         0.00000   0.04267   0.00000
  41        4PZ         0.00000   0.00000   0.00779
  42        5PX        -0.01070   0.00000   0.00000
  43        5PY         0.00000   0.01070   0.00000
  44        5PZ         0.00000   0.00000  -0.25526
  45 6   F  1S          0.00000  -0.09735  -0.00136
  46        2S          0.00000   1.21847   0.19710
  47        3S          0.00000  -1.52136  -0.44576
  48        4PX         0.05909   0.00000   0.00000
  49        4PY         0.00000   0.09752   0.01298
  50        4PZ         0.00000   0.07554  -0.01409
  51        5PX        -0.18357   0.00000   0.00000
  52        5PY         0.00000  -0.31967  -0.20627
  53        5PZ         0.00000  -0.17527   0.03511
     Density Matrix:
                           1         2         3         4         5
   1 1   I  1S          0.35003
   2        2S          0.57979   0.96896
   3        3PX         0.00000   0.00000   0.47622
   4        3PY         0.00000   0.00000   0.00000   0.47622
   5        3PZ         0.09457   0.20340   0.00000   0.00000   0.58591
   6        4PX         0.00000   0.00000   0.12460   0.00000   0.00000
   7        4PY         0.00000   0.00000   0.00000   0.12460   0.00000
   8        4PZ         0.02440   0.06106   0.00000   0.00000   0.23204
   9 2   F  1S          0.01237   0.02275   0.00000   0.01542  -0.00127
  10        2S         -0.02043  -0.03627   0.00000  -0.04482   0.00531
  11        3S         -0.07001  -0.11980   0.00000  -0.05536   0.00117
  12        4PX         0.00000   0.00000   0.05112   0.00000   0.00000
  13        4PY         0.00551   0.04553   0.00000  -0.34112   0.15360
  14        4PZ        -0.03297  -0.07697   0.00000   0.08665  -0.00985
  15        5PX         0.00000   0.00000   0.02223   0.00000   0.00000
  16        5PY         0.03141   0.07052   0.00000  -0.15792   0.07453
  17        5PZ        -0.02088  -0.04702   0.00000   0.04062  -0.01557
  18 3   F  1S          0.01237   0.02275  -0.01542   0.00000  -0.00127
  19        2S         -0.02043  -0.03627   0.04482   0.00000   0.00531
  20        3S         -0.07001  -0.11980   0.05536   0.00000   0.00117
  21        4PX        -0.00551  -0.04553  -0.34112   0.00000  -0.15360
  22        4PY         0.00000   0.00000   0.00000   0.05112   0.00000
  23        4PZ        -0.03297  -0.07697  -0.08665   0.00000  -0.00985
  24        5PX        -0.03141  -0.07052  -0.15792   0.00000  -0.07453
  25        5PY         0.00000   0.00000   0.00000   0.02223   0.00000
  26        5PZ        -0.02088  -0.04702  -0.04062   0.00000  -0.01557
  27 4   F  1S          0.01237   0.02275   0.01542   0.00000  -0.00127
  28        2S         -0.02043  -0.03627  -0.04482   0.00000   0.00531
  29        3S         -0.07001  -0.11980  -0.05536   0.00000   0.00117
  30        4PX         0.00551   0.04553  -0.34112   0.00000   0.15360
  31        4PY         0.00000   0.00000   0.00000   0.05112   0.00000
  32        4PZ        -0.03297  -0.07697   0.08665   0.00000  -0.00985
  33        5PX         0.03141   0.07052  -0.15792   0.00000   0.07453
  34        5PY         0.00000   0.00000   0.00000   0.02223   0.00000
  35        5PZ        -0.02088  -0.04702   0.04062   0.00000  -0.01557
  36 5   F  1S          0.00961   0.01676   0.00000   0.00000  -0.01784
  37        2S         -0.01657  -0.02838   0.00000   0.00000   0.04506
  38        3S         -0.05480  -0.08314   0.00000   0.00000   0.08158
  39        4PX         0.00000   0.00000   0.03563   0.00000   0.00000
  40        4PY         0.00000   0.00000   0.00000   0.03563   0.00000
  41        4PZ         0.06097   0.09693   0.00000   0.00000  -0.38010
  42        5PX         0.00000   0.00000   0.01087   0.00000   0.00000
  43        5PY         0.00000   0.00000   0.00000   0.01087   0.00000
  44        5PZ         0.00894   0.01772   0.00000   0.00000  -0.16543
  45 6   F  1S          0.01237   0.02275   0.00000  -0.01542  -0.00127
  46        2S         -0.02043  -0.03627   0.00000   0.04482   0.00531
  47        3S         -0.07001  -0.11980   0.00000   0.05536   0.00117
  48        4PX         0.00000   0.00000   0.05112   0.00000   0.00000
  49        4PY        -0.00551  -0.04553   0.00000  -0.34112  -0.15360
  50        4PZ        -0.03297  -0.07697   0.00000  -0.08665  -0.00985
  51        5PX         0.00000   0.00000   0.02223   0.00000   0.00000
  52        5PY        -0.03141  -0.07052   0.00000  -0.15792  -0.07453
  53        5PZ        -0.02088  -0.04702   0.00000  -0.04062  -0.01557
                           6         7         8         9        10
   6        4PX         0.06407
   7        4PY         0.00000   0.06407
   8        4PZ         0.00000   0.00000   0.11312
   9 2   F  1S          0.00000   0.00589  -0.00097   2.12813
  10        2S          0.00000  -0.01141   0.00274  -0.27814   0.62508
  11        3S          0.00000  -0.02519   0.00236  -0.28185   0.60393
  12        4PX         0.11184   0.00000   0.00000   0.00000   0.00000
  13        4PY         0.00000  -0.03995   0.10371  -0.01463   0.05548
  14        4PZ         0.00000   0.08969   0.04614   0.00493  -0.01560
  15        5PX         0.05168   0.00000   0.00000   0.00000   0.00000
  16        5PY         0.00000  -0.01297   0.05025  -0.00144   0.01987
  17        5PZ         0.00000   0.04154   0.01698   0.00057  -0.00514
  18 3   F  1S         -0.00589   0.00000  -0.00097   0.00047  -0.00103
  19        2S          0.01141   0.00000   0.00274  -0.00103   0.00239
  20        3S          0.02519   0.00000   0.00236  -0.00241   0.00465
  21        4PX        -0.03995   0.00000  -0.10371   0.00043   0.00429
  22        4PY         0.00000   0.11184   0.00000   0.00604  -0.00742
  23        4PZ        -0.08969   0.00000   0.04614  -0.00182   0.00370
  24        5PX        -0.01297   0.00000  -0.05025  -0.00039   0.00316
  25        5PY         0.00000   0.05168   0.00000   0.00277  -0.00366
  26        5PZ        -0.04154   0.00000   0.01698  -0.00089   0.00184
  27 4   F  1S          0.00589   0.00000  -0.00097   0.00047  -0.00103
  28        2S         -0.01141   0.00000   0.00274  -0.00103   0.00239
  29        3S         -0.02519   0.00000   0.00236  -0.00241   0.00465
  30        4PX        -0.03995   0.00000   0.10371  -0.00043  -0.00429
  31        4PY         0.00000   0.11184   0.00000   0.00604  -0.00742
  32        4PZ         0.08969   0.00000   0.04614  -0.00182   0.00370
  33        5PX        -0.01297   0.00000   0.05025   0.00039  -0.00316
  34        5PY         0.00000   0.05168   0.00000   0.00277  -0.00366
  35        5PZ         0.04154   0.00000   0.01698  -0.00089   0.00184
  36 5   F  1S          0.00000   0.00000  -0.01351   0.00025  -0.00050
  37        2S          0.00000   0.00000   0.02721  -0.00061   0.00133
  38        3S          0.00000   0.00000   0.05459  -0.00198   0.00393
  39        4PX         0.06904   0.00000   0.00000   0.00000   0.00000
  40        4PY         0.00000   0.06904   0.00000   0.00773  -0.01868
  41        4PZ         0.00000   0.00000  -0.07041   0.00490  -0.00384
  42        5PX         0.02668   0.00000   0.00000   0.00000   0.00000
  43        5PY         0.00000   0.02668   0.00000   0.00254  -0.00666
  44        5PZ         0.00000   0.00000  -0.01947   0.00217  -0.00136
  45 6   F  1S          0.00000  -0.00589  -0.00097  -0.00022   0.00178
  46        2S          0.00000   0.01141   0.00274   0.00178  -0.00732
  47        3S          0.00000   0.02519   0.00236  -0.00130  -0.00099
  48        4PX         0.11184   0.00000   0.00000   0.00000   0.00000
  49        4PY         0.00000  -0.03995  -0.10371  -0.00830   0.01360
  50        4PZ         0.00000  -0.08969   0.04614  -0.00511   0.00019
  51        5PX         0.05168   0.00000   0.00000   0.00000   0.00000
  52        5PY         0.00000  -0.01297  -0.05025  -0.00620   0.01024
  53        5PZ         0.00000  -0.04154   0.01698  -0.00315   0.00141
                          11        12        13        14        15
  11        3S          0.59909
  12        4PX         0.00000   1.11902
  13        4PY         0.01028   0.00000   0.82112
  14        4PZ        -0.01517   0.00000   0.06571   1.10953
  15        5PX         0.00000   0.55128   0.00000   0.00000   0.27265
  16        5PY        -0.01059   0.00000   0.42564   0.03320   0.00000
  17        5PZ        -0.00306   0.00000   0.01783   0.55057   0.00000
  18 3   F  1S         -0.00241  -0.00604  -0.00043  -0.00182  -0.00277
  19        2S          0.00465   0.00742  -0.00429   0.00370   0.00366
  20        3S          0.01260   0.04487   0.01150   0.01049   0.02106
  21        4PX        -0.01150   0.08472   0.05866   0.02811   0.03937
  22        4PY        -0.04487   0.03564   0.08472  -0.02416  -0.00167
  23        4PZ         0.01049   0.02416  -0.02811  -0.00683   0.02237
  24        5PX        -0.00154   0.05536   0.04095   0.01672   0.02563
  25        5PY        -0.02106  -0.00167   0.03937  -0.02237  -0.01080
  26        5PZ         0.00543   0.01833  -0.01689  -0.00604   0.01413
  27 4   F  1S         -0.00241   0.00604  -0.00043  -0.00182   0.00277
  28        2S          0.00465  -0.00742  -0.00429   0.00370  -0.00366
  29        3S          0.01260  -0.04487   0.01150   0.01049  -0.02106
  30        4PX         0.01150   0.08472  -0.05866  -0.02811   0.03937
  31        4PY        -0.04487  -0.03564   0.08472  -0.02416   0.00167
  32        4PZ         0.01049  -0.02416  -0.02811  -0.00683  -0.02237
  33        5PX         0.00154   0.05536  -0.04095  -0.01672   0.02563
  34        5PY        -0.02106   0.00167   0.03937  -0.02237   0.01080
  35        5PZ         0.00543  -0.01833  -0.01689  -0.00604  -0.01413
  36 5   F  1S         -0.00225   0.00000  -0.00702  -0.00633   0.00000
  37        2S          0.00482   0.00000   0.00415   0.01557   0.00000
  38        3S          0.01156   0.00000   0.05550   0.02541   0.00000
  39        4PX         0.00000  -0.02918   0.00000   0.00000  -0.01521
  40        4PY        -0.02997   0.00000   0.08561   0.02928   0.00000
  41        4PZ        -0.03276   0.00000   0.16405   0.06625   0.00000
  42        5PX         0.00000  -0.01965   0.00000   0.00000  -0.00942
  43        5PY        -0.01025   0.00000   0.03630  -0.01519   0.00000
  44        5PZ        -0.01338   0.00000   0.10883   0.03473   0.00000
  45 6   F  1S         -0.00130   0.00000   0.00830  -0.00511   0.00000
  46        2S         -0.00099   0.00000  -0.01360   0.00019   0.00000
  47        3S          0.01186   0.00000  -0.03953   0.05337   0.00000
  48        4PX         0.00000  -0.01929   0.00000   0.00000  -0.02300
  49        4PY         0.03953   0.00000  -0.16829   0.09831   0.00000
  50        4PZ         0.05337   0.00000  -0.09831   0.02832   0.00000
  51        5PX         0.00000  -0.02300   0.00000   0.00000  -0.01844
  52        5PY         0.02784   0.00000  -0.10551   0.07646   0.00000
  53        5PZ         0.02830   0.00000  -0.05982   0.01351   0.00000
                          16        17        18        19        20
  16        5PY         0.22503
  17        5PZ         0.00828   0.27429
  18 3   F  1S          0.00039  -0.00089   2.12813
  19        2S         -0.00316   0.00184  -0.27814   0.62508
  20        3S          0.00154   0.00543  -0.28185   0.60393   0.59909
  21        4PX         0.04095   0.01689   0.01463  -0.05548  -0.01028
  22        4PY         0.05536  -0.01833   0.00000   0.00000   0.00000
  23        4PZ        -0.01672  -0.00604   0.00493  -0.01560  -0.01517
  24        5PX         0.02446   0.00979   0.00144  -0.01987   0.01059
  25        5PY         0.02563  -0.01413   0.00000   0.00000   0.00000
  26        5PZ        -0.00979  -0.00400   0.00057  -0.00514  -0.00306
  27 4   F  1S          0.00039  -0.00089  -0.00022   0.00178  -0.00130
  28        2S         -0.00316   0.00184   0.00178  -0.00732  -0.00099
  29        3S          0.00154   0.00543  -0.00130  -0.00099   0.01186
  30        4PX        -0.04095  -0.01689   0.00830  -0.01360  -0.03953
  31        4PY         0.05536  -0.01833   0.00000   0.00000   0.00000
  32        4PZ        -0.01672  -0.00604  -0.00511   0.00019   0.05337
  33        5PX        -0.02446  -0.00979   0.00620  -0.01024  -0.02784
  34        5PY         0.02563  -0.01413   0.00000   0.00000   0.00000
  35        5PZ        -0.00979  -0.00400  -0.00315   0.00141   0.02830
  36 5   F  1S         -0.00283  -0.00168   0.00025  -0.00050  -0.00225
  37        2S          0.00065   0.00470  -0.00061   0.00133   0.00482
  38        3S          0.02337   0.00810  -0.00198   0.00393   0.01156
  39        4PX         0.00000   0.00000  -0.00773   0.01868   0.02997
  40        4PY         0.04136  -0.00887   0.00000   0.00000   0.00000
  41        4PZ         0.10084   0.02973   0.00490  -0.00384  -0.03276
  42        5PX         0.00000   0.00000  -0.00254   0.00666   0.01025
  43        5PY         0.01651  -0.01871   0.00000   0.00000   0.00000
  44        5PZ         0.06211   0.01480   0.00217  -0.00136  -0.01338
  45 6   F  1S          0.00620  -0.00315   0.00047  -0.00103  -0.00241
  46        2S         -0.01024   0.00141  -0.00103   0.00239   0.00465
  47        3S         -0.02784   0.02830  -0.00241   0.00465   0.01260
  48        4PX         0.00000   0.00000  -0.00604   0.00742   0.04487
  49        4PY        -0.10551   0.05982   0.00043   0.00429  -0.01150
  50        4PZ        -0.07646   0.01351  -0.00182   0.00370   0.01049
  51        5PX         0.00000   0.00000  -0.00277   0.00366   0.02106
  52        5PY        -0.06635   0.04398  -0.00039   0.00316  -0.00154
  53        5PZ        -0.04398   0.00639  -0.00089   0.00184   0.00543
                          21        22        23        24        25
  21        4PX         0.82112
  22        4PY         0.00000   1.11902
  23        4PZ        -0.06571   0.00000   1.10953
  24        5PX         0.42564   0.00000  -0.03320   0.22503
  25        5PY         0.00000   0.55128   0.00000   0.00000   0.27265
  26        5PZ        -0.01783   0.00000   0.55057  -0.00828   0.00000
  27 4   F  1S         -0.00830   0.00000  -0.00511  -0.00620   0.00000
  28        2S          0.01360   0.00000   0.00019   0.01024   0.00000
  29        3S          0.03953   0.00000   0.05337   0.02784   0.00000
  30        4PX        -0.16829   0.00000  -0.09831  -0.10551   0.00000
  31        4PY         0.00000  -0.01929   0.00000   0.00000  -0.02300
  32        4PZ         0.09831   0.00000   0.02832   0.07646   0.00000
  33        5PX        -0.10551   0.00000  -0.07646  -0.06635   0.00000
  34        5PY         0.00000  -0.02300   0.00000   0.00000  -0.01844
  35        5PZ         0.05982   0.00000   0.01351   0.04398   0.00000
  36 5   F  1S          0.00702   0.00000  -0.00633   0.00283   0.00000
  37        2S         -0.00415   0.00000   0.01557  -0.00065   0.00000
  38        3S         -0.05550   0.00000   0.02541  -0.02337   0.00000
  39        4PX         0.08561   0.00000  -0.02928   0.04136   0.00000
  40        4PY         0.00000  -0.02918   0.00000   0.00000  -0.01521
  41        4PZ        -0.16405   0.00000   0.06625  -0.10084   0.00000
  42        5PX         0.03630   0.00000   0.01519   0.01651   0.00000
  43        5PY         0.00000  -0.01965   0.00000   0.00000  -0.00942
  44        5PZ        -0.10883   0.00000   0.03473  -0.06211   0.00000
  45 6   F  1S          0.00043  -0.00604  -0.00182  -0.00039  -0.00277
  46        2S          0.00429   0.00742   0.00370   0.00316   0.00366
  47        3S         -0.01150   0.04487   0.01049  -0.00154   0.02106
  48        4PX         0.08472  -0.03564   0.02416   0.05536   0.00167
  49        4PY        -0.05866   0.08472   0.02811  -0.04095   0.03937
  50        4PZ         0.02811   0.02416  -0.00683   0.01672   0.02237
  51        5PX         0.03937   0.00167   0.02237   0.02563   0.01080
  52        5PY        -0.04095   0.05536   0.01672  -0.02446   0.02563
  53        5PZ         0.01689   0.01833  -0.00604   0.00979   0.01413
                          26        27        28        29        30
  26        5PZ         0.27429
  27 4   F  1S         -0.00315   2.12813
  28        2S          0.00141  -0.27814   0.62508
  29        3S          0.02830  -0.28185   0.60393   0.59909
  30        4PX        -0.05982  -0.01463   0.05548   0.01028   0.82112
  31        4PY         0.00000   0.00000   0.00000   0.00000   0.00000
  32        4PZ         0.01351   0.00493  -0.01560  -0.01517   0.06571
  33        5PX        -0.04398  -0.00144   0.01987  -0.01059   0.42564
  34        5PY         0.00000   0.00000   0.00000   0.00000   0.00000
  35        5PZ         0.00639   0.00057  -0.00514  -0.00306   0.01783
  36 5   F  1S         -0.00168   0.00025  -0.00050  -0.00225  -0.00702
  37        2S          0.00470  -0.00061   0.00133   0.00482   0.00415
  38        3S          0.00810  -0.00198   0.00393   0.01156   0.05550
  39        4PX         0.00887   0.00773  -0.01868  -0.02997   0.08561
  40        4PY         0.00000   0.00000   0.00000   0.00000   0.00000
  41        4PZ         0.02973   0.00490  -0.00384  -0.03276   0.16405
  42        5PX         0.01871   0.00254  -0.00666  -0.01025   0.03630
  43        5PY         0.00000   0.00000   0.00000   0.00000   0.00000
  44        5PZ         0.01480   0.00217  -0.00136  -0.01338   0.10883
  45 6   F  1S         -0.00089   0.00047  -0.00103  -0.00241  -0.00043
  46        2S          0.00184  -0.00103   0.00239   0.00465  -0.00429
  47        3S          0.00543  -0.00241   0.00465   0.01260   0.01150
  48        4PX         0.01833   0.00604  -0.00742  -0.04487   0.08472
  49        4PY         0.01689   0.00043   0.00429  -0.01150   0.05866
  50        4PZ        -0.00604  -0.00182   0.00370   0.01049  -0.02811
  51        5PX         0.01413   0.00277  -0.00366  -0.02106   0.03937
  52        5PY         0.00979  -0.00039   0.00316  -0.00154   0.04095
  53        5PZ        -0.00400  -0.00089   0.00184   0.00543  -0.01689
                          31        32        33        34        35
  31        4PY         1.11902
  32        4PZ         0.00000   1.10953
  33        5PX         0.00000   0.03320   0.22503
  34        5PY         0.55128   0.00000   0.00000   0.27265
  35        5PZ         0.00000   0.55057   0.00828   0.00000   0.27429
  36 5   F  1S          0.00000  -0.00633  -0.00283   0.00000  -0.00168
  37        2S          0.00000   0.01557   0.00065   0.00000   0.00470
  38        3S          0.00000   0.02541   0.02337   0.00000   0.00810
  39        4PX         0.00000   0.02928   0.04136   0.00000  -0.00887
  40        4PY        -0.02918   0.00000   0.00000  -0.01521   0.00000
  41        4PZ         0.00000   0.06625   0.10084   0.00000   0.02973
  42        5PX         0.00000  -0.01519   0.01651   0.00000  -0.01871
  43        5PY        -0.01965   0.00000   0.00000  -0.00942   0.00000
  44        5PZ         0.00000   0.03473   0.06211   0.00000   0.01480
  45 6   F  1S         -0.00604  -0.00182   0.00039  -0.00277  -0.00089
  46        2S          0.00742   0.00370  -0.00316   0.00366   0.00184
  47        3S          0.04487   0.01049   0.00154   0.02106   0.00543
  48        4PX         0.03564  -0.02416   0.05536  -0.00167  -0.01833
  49        4PY         0.08472   0.02811   0.04095   0.03937   0.01689
  50        4PZ         0.02416  -0.00683  -0.01672   0.02237  -0.00604
  51        5PX        -0.00167  -0.02237   0.02563  -0.01080  -0.01413
  52        5PY         0.05536   0.01672   0.02446   0.02563   0.00979
  53        5PZ         0.01833  -0.00604  -0.00979   0.01413  -0.00400
                          36        37        38        39        40
  36 5   F  1S          2.12873
  37        2S         -0.28026   0.63107
  38        3S         -0.28306   0.60847   0.60438
  39        4PX         0.00000   0.00000   0.00000   1.15285
  40        4PY         0.00000   0.00000   0.00000   0.00000   1.15285
  41        4PZ         0.01540  -0.05271  -0.02797   0.00000   0.00000
  42        5PX         0.00000   0.00000   0.00000   0.55271   0.00000
  43        5PY         0.00000   0.00000   0.00000   0.00000   0.55271
  44        5PZ         0.00064  -0.01578   0.00546   0.00000   0.00000
  45 6   F  1S          0.00025  -0.00061  -0.00198   0.00000  -0.00773
  46        2S         -0.00050   0.00133   0.00393   0.00000   0.01868
  47        3S         -0.00225   0.00482   0.01156   0.00000   0.02997
  48        4PX         0.00000   0.00000   0.00000  -0.02918   0.00000
  49        4PY         0.00702  -0.00415  -0.05550   0.00000   0.08561
  50        4PZ        -0.00633   0.01557   0.02541   0.00000  -0.02928
  51        5PX         0.00000   0.00000   0.00000  -0.01521   0.00000
  52        5PY         0.00283  -0.00065  -0.02337   0.00000   0.04136
  53        5PZ        -0.00168   0.00470   0.00810   0.00000   0.00887
                          41        42        43        44        45
  41        4PZ         0.74570
  42        5PX         0.00000   0.26667
  43        5PY         0.00000   0.00000   0.26667
  44        5PZ         0.37714   0.00000   0.00000   0.19584
  45 6   F  1S          0.00490   0.00000  -0.00254   0.00217   2.12813
  46        2S         -0.00384   0.00000   0.00666  -0.00136  -0.27814
  47        3S         -0.03276   0.00000   0.01025  -0.01338  -0.28185
  48        4PX         0.00000  -0.01965   0.00000   0.00000   0.00000
  49        4PY        -0.16405   0.00000   0.03630  -0.10883   0.01463
  50        4PZ         0.06625   0.00000   0.01519   0.03473   0.00493
  51        5PX         0.00000  -0.00942   0.00000   0.00000   0.00000
  52        5PY        -0.10084   0.00000   0.01651  -0.06211   0.00144
  53        5PZ         0.02973   0.00000   0.01871   0.01480   0.00057
                          46        47        48        49        50
  46        2S          0.62508
  47        3S          0.60393   0.59909
  48        4PX         0.00000   0.00000   1.11902
  49        4PY        -0.05548  -0.01028   0.00000   0.82112
  50        4PZ        -0.01560  -0.01517   0.00000  -0.06571   1.10953
  51        5PX         0.00000   0.00000   0.55128   0.00000   0.00000
  52        5PY        -0.01987   0.01059   0.00000   0.42564  -0.03320
  53        5PZ        -0.00514  -0.00306   0.00000  -0.01783   0.55057
                          51        52        53
  51        5PX         0.27265
  52        5PY         0.00000   0.22503
  53        5PZ         0.00000  -0.00828   0.27429
    Full Mulliken population analysis:
                           1         2         3         4         5
   1 1   I  1S          0.35003
   2        2S          0.46951   0.96896
   3        3PX         0.00000   0.00000   0.47622
   4        3PY         0.00000   0.00000   0.00000   0.47622
   5        3PZ         0.00000   0.00000   0.00000   0.00000   0.58591
   6        4PX         0.00000   0.00000   0.09028   0.00000   0.00000
   7        4PY         0.00000   0.00000   0.00000   0.09028   0.00000
   8        4PZ         0.00000   0.00000   0.00000   0.00000   0.16813
   9 2   F  1S          0.00001   0.00025   0.00000   0.00009   0.00000
  10        2S         -0.00024  -0.00251   0.00000  -0.00230  -0.00006
  11        3S         -0.00518  -0.02082   0.00000  -0.00923  -0.00004
  12        4PX         0.00000   0.00000   0.00060   0.00000   0.00000
  13        4PY        -0.00015  -0.00256   0.00000   0.02600   0.00290
  14        4PZ        -0.00019  -0.00093   0.00000   0.00164  -0.00008
  15        5PX         0.00000   0.00000   0.00223   0.00000   0.00000
  16        5PY        -0.00720  -0.02043   0.00000   0.05471   0.00715
  17        5PZ        -0.00103  -0.00292   0.00000   0.00389  -0.00124
  18 3   F  1S          0.00001   0.00025   0.00009   0.00000   0.00000
  19        2S         -0.00024  -0.00251  -0.00230   0.00000  -0.00006
  20        3S         -0.00518  -0.02082  -0.00923   0.00000  -0.00004
  21        4PX        -0.00015  -0.00256   0.02600   0.00000   0.00290
  22        4PY         0.00000   0.00000   0.00000   0.00060   0.00000
  23        4PZ        -0.00019  -0.00093   0.00164   0.00000  -0.00008
  24        5PX        -0.00720  -0.02043   0.05471   0.00000   0.00715
  25        5PY         0.00000   0.00000   0.00000   0.00223   0.00000
  26        5PZ        -0.00103  -0.00292   0.00389   0.00000  -0.00124
  27 4   F  1S          0.00001   0.00025   0.00009   0.00000   0.00000
  28        2S         -0.00024  -0.00251  -0.00230   0.00000  -0.00006
  29        3S         -0.00518  -0.02082  -0.00923   0.00000  -0.00004
  30        4PX        -0.00015  -0.00256   0.02600   0.00000   0.00290
  31        4PY         0.00000   0.00000   0.00000   0.00060   0.00000
  32        4PZ        -0.00019  -0.00093   0.00164   0.00000  -0.00008
  33        5PX        -0.00720  -0.02043   0.05471   0.00000   0.00715
  34        5PY         0.00000   0.00000   0.00000   0.00223   0.00000
  35        5PZ        -0.00103  -0.00292   0.00389   0.00000  -0.00124
  36 5   F  1S          0.00001   0.00018   0.00000   0.00000   0.00010
  37        2S         -0.00019  -0.00195   0.00000   0.00000  -0.00233
  38        3S         -0.00401  -0.01436   0.00000   0.00000  -0.01379
  39        4PX         0.00000   0.00000   0.00041   0.00000   0.00000
  40        4PY         0.00000   0.00000   0.00000   0.00041   0.00000
  41        4PZ         0.00167   0.00555   0.00000   0.00000   0.03016
  42        5PX         0.00000   0.00000   0.00108   0.00000   0.00000
[...]
                NBO               Theta   Phi    Theta   Phi    Dev    Theta   Phi    Dev
 ========================================================================================
     1. BD (   1) I   1 - F   2   102.1   90.0   101.3   88.4   1.8      --     --    --
     2. BD (   1) I   1 - F   3   102.1  180.0   101.3  181.6   1.8      --     --    --
     3. BD (   1) I   1 - F   5   180.0    0.0   159.8  315.0  20.2      --     --    --
    11. LP (   2) F   2             --     --     12.9   90.0   --       --     --    --
    12. LP (   3) F   2             --     --     90.0    0.0   --       --     --    --
    14. LP (   2) F   3             --     --     12.9  180.0   --       --     --    --
    15. LP (   3) F   3             --     --     90.0   90.0   --       --     --    --
    17. LP (   2) F   4             --     --     12.9    0.0   --       --     --    --
    18. LP (   3) F   4             --     --     90.0   90.0   --       --     --    --
    19. LP (   4) F   4             --     --     78.1  180.0   --       --     --    --
    21. LP (   2) F   5             --     --     90.0    0.0   --       --     --    --
    22. LP (   3) F   5             --     --     90.0   90.0   --       --     --    --
    24. LP (   2) F   6             --     --     12.9  270.0   --       --     --    --
    25. LP (   3) F   6             --     --     90.0    0.0   --       --     --    --
    26. LP (   4) F   6             --     --     78.1   90.0   --       --     --    --
    51. BD*(   1) I   1 - F   2   102.1   90.0   101.3   88.4   1.8      --     --    --
    52. BD*(   1) I   1 - F   3   102.1  180.0   101.3  181.6   1.8      --     --    --
    53. BD*(   1) I   1 - F   5   180.0    0.0   159.8  315.0  20.2      --     --    --


 Second Order Perturbation Theory Analysis of Fock Matrix in NBO Basis

     Threshold for printing:   0.50 kcal/mol
    (Intermolecular threshold: 0.05 kcal/mol)
                                                                              E(2)  E(j)-E(i) F(i,j)
         Donor NBO (i)                     Acceptor NBO (j)                 kcal/mol   a.u.    a.u. 
 ===================================================================================================

 within unit  1
   1. BD (   1) I   1 - F   2        / 51. BD*(   1) I   1 - F   2            3.35    0.34    0.034
   1. BD (   1) I   1 - F   2        / 53. BD*(   1) I   1 - F   5            0.68    0.32    0.015
   2. BD (   1) I   1 - F   3        / 52. BD*(   1) I   1 - F   3            3.35    0.34    0.034
   2. BD (   1) I   1 - F   3        / 53. BD*(   1) I   1 - F   5            0.68    0.32    0.015
   3. BD (   1) I   1 - F   5        / 51. BD*(   1) I   1 - F   2            2.37    0.35    0.028
   3. BD (   1) I   1 - F   5        / 52. BD*(   1) I   1 - F   3            2.37    0.35    0.028
   3. BD (   1) I   1 - F   5        / 53. BD*(   1) I   1 - F   5            4.94    0.33    0.040
   9. LP (   1) I   1                / 30. RY*(   4) I   1                    0.63   11.17    0.075
   9. LP (   1) I   1                / 31. RY*(   1) F   2                    1.25    2.11    0.046
   9. LP (   1) I   1                / 35. RY*(   1) F   3                    1.25    2.11    0.046
   9. LP (   1) I   1                / 43. RY*(   1) F   5                    0.66    2.15    0.034
   9. LP (   1) I   1                / 51. BD*(   1) I   1 - F   2            0.75    0.55    0.020
   9. LP (   1) I   1                / 52. BD*(   1) I   1 - F   3            0.75    0.55    0.020
   9. LP (   1) I   1                / 53. BD*(   1) I   1 - F   5            5.90    0.53    0.057
  11. LP (   2) F   2                / 53. BD*(   1) I   1 - F   5            3.59    0.15    0.024
  12. LP (   3) F   2                / 52. BD*(   1) I   1 - F   3            6.27    0.16    0.032
  14. LP (   2) F   3                / 53. BD*(   1) I   1 - F   5            3.59    0.15    0.024
  15. LP (   3) F   3                / 51. BD*(   1) I   1 - F   2            6.27    0.16    0.032
  20. LP (   1) F   5                / 51. BD*(   1) I   1 - F   2            0.79    1.07    0.029
  20. LP (   1) F   5                / 52. BD*(   1) I   1 - F   3            0.79    1.07    0.029
  21. LP (   2) F   5                / 52. BD*(   1) I   1 - F   3            4.07    0.16    0.025
  22. LP (   3) F   5                / 51. BD*(   1) I   1 - F   2            4.07    0.16    0.025
  51. BD*(   1) I   1 - F   2        / 27. RY*(   1) I   1                    0.94    0.99    0.060
  51. BD*(   1) I   1 - F   2        / 30. RY*(   4) I   1                    1.05   10.62    0.208
  51. BD*(   1) I   1 - F   2        / 31. RY*(   1) F   2                    0.82    1.56    0.070
  52. BD*(   1) I   1 - F   3        / 27. RY*(   1) I   1                    0.94    0.99    0.060
  52. BD*(   1) I   1 - F   3        / 30. RY*(   4) I   1                    1.05   10.62    0.208
  52. BD*(   1) I   1 - F   3        / 35. RY*(   1) F   3                    0.82    1.56    0.070
  53. BD*(   1) I   1 - F   5        / 30. RY*(   4) I   1                    1.22   10.64    0.210
  53. BD*(   1) I   1 - F   5        / 43. RY*(   1) F   5                    1.79    1.62    0.099
  53. BD*(   1) I   1 - F   5        / 51. BD*(   1) I   1 - F   2           20.68    0.02    0.028
  53. BD*(   1) I   1 - F   5        / 52. BD*(   1) I   1 - F   3           20.68    0.02    0.028

 from unit  1 to unit  2
   1. BD (   1) I   1 - F   2        / 39. RY*(   1) F   4                    0.06    1.90    0.009
   2. BD (   1) I   1 - F   3        / 39. RY*(   1) F   4                    0.19    1.90    0.017
   3. BD (   1) I   1 - F   5        / 39. RY*(   1) F   4                    0.40    1.91    0.025
   9. LP (   1) I   1                / 39. RY*(   1) F   4                    1.27    2.11    0.046
   9. LP (   1) I   1                / 42. RY*(   4) F   4                    0.07    1.92    0.010
  12. LP (   3) F   2                / 40. RY*(   2) F   4                    0.07    1.25    0.008
  21. LP (   2) F   5                / 41. RY*(   3) F   4                    0.07    1.26    0.008
  51. BD*(   1) I   1 - F   2        / 39. RY*(   1) F   4                    0.07    1.56    0.021
  53. BD*(   1) I   1 - F   5        / 39. RY*(   1) F   4                    0.31    1.58    0.041
  53. BD*(   1) I   1 - F   5        / 42. RY*(   4) F   4                    0.07    1.39    0.018

 from unit  1 to unit  3
   1. BD (   1) I   1 - F   2        / 47. RY*(   1) F   6                    0.19    1.90    0.017
   2. BD (   1) I   1 - F   3        / 47. RY*(   1) F   6                    0.06    1.90    0.009
   3. BD (   1) I   1 - F   5        / 47. RY*(   1) F   6                    0.40    1.91    0.025
   9. LP (   1) I   1                / 47. RY*(   1) F   6                    1.27    2.11    0.046
   9. LP (   1) I   1                / 50. RY*(   4) F   6                    0.07    1.92    0.010
  15. LP (   3) F   3                / 48. RY*(   2) F   6                    0.07    1.25    0.008
  22. LP (   3) F   5                / 49. RY*(   3) F   6                    0.07    1.26    0.008
  52. BD*(   1) I   1 - F   3        / 47. RY*(   1) F   6                    0.07    1.56    0.021
  53. BD*(   1) I   1 - F   5        / 47. RY*(   1) F   6                    0.31    1.58    0.041
  53. BD*(   1) I   1 - F   5        / 50. RY*(   4) F   6                    0.07    1.39    0.018

 from unit  2 to unit  1
   6. CR (   1) F   4                / 27. RY*(   1) I   1                    0.07   25.26    0.036
   6. CR (   1) F   4                / 28. RY*(   2) I   1                    0.07   24.89    0.036
   6. CR (   1) F   4                / 52. BD*(   1) I   1 - F   3            1.24   24.27    0.174
   6. CR (   1) F   4                / 53. BD*(   1) I   1 - F   5            0.41   24.25    0.101
  16. LP (   1) F   4                / 27. RY*(   1) I   1                    0.33    2.01    0.023
  16. LP (   1) F   4                / 28. RY*(   2) I   1                    0.46    1.64    0.025
  16. LP (   1) F   4                / 29. RY*(   3) I   1                    0.09    1.85    0.012
  16. LP (   1) F   4                / 51. BD*(   1) I   1 - F   2            0.18    1.02    0.013
  16. LP (   1) F   4                / 52. BD*(   1) I   1 - F   3            8.39    1.02    0.092
  16. LP (   1) F   4                / 53. BD*(   1) I   1 - F   5            3.13    1.00    0.057
  17. LP (   2) F   4                / 28. RY*(   2) I   1                    0.09    0.80    0.008
  17. LP (   2) F   4                / 29. RY*(   3) I   1                    0.10    1.01    0.009
  17. LP (   2) F   4                / 44. RY*(   2) F   5                    0.10    1.29    0.010
  17. LP (   2) F   4                / 51. BD*(   1) I   1 - F   2            0.15    0.18    0.005
  17. LP (   2) F   4                / 52. BD*(   1) I   1 - F   3            4.88    0.18    0.029
  17. LP (   2) F   4                / 53. BD*(   1) I   1 - F   5            1.31    0.15    0.014
  18. LP (   3) F   4                / 32. RY*(   2) F   2                    0.07    1.25    0.008
  18. LP (   3) F   4                / 51. BD*(   1) I   1 - F   2            6.27    0.16    0.032
  18. LP (   3) F   4                / 53. BD*(   1) I   1 - F   5            0.33    0.14    0.007
  19. LP (   4) F   4                / 27. RY*(   1) I   1                    0.32    1.21    0.020
  19. LP (   4) F   4                / 28. RY*(   2) I   1                    0.06    0.84    0.007
  19. LP (   4) F   4                / 29. RY*(   3) I   1                    0.59    1.05    0.025
  19. LP (   4) F   4                / 30. RY*(   4) I   1                    1.09   10.83    0.110
  19. LP (   4) F   4                / 51. BD*(   1) I   1 - F   2            2.56    0.22    0.021
  19. LP (   4) F   4                / 52. BD*(   1) I   1 - F   3           78.39    0.22    0.118
  19. LP (   4) F   4                / 53. BD*(   1) I   1 - F   5           45.39    0.20    0.085

 within unit  2
       None above threshold

 from unit  2 to unit  3
  18. LP (   3) F   4                / 48. RY*(   2) F   6                    0.07    1.25    0.008

 from unit  3 to unit  1
   8. CR (   1) F   6                / 27. RY*(   1) I   1                    0.07   25.26    0.036
   8. CR (   1) F   6                / 28. RY*(   2) I   1                    0.07   24.89    0.036
   8. CR (   1) F   6                / 51. BD*(   1) I   1 - F   2            1.24   24.27    0.174
   8. CR (   1) F   6                / 53. BD*(   1) I   1 - F   5            0.41   24.25    0.101
  23. LP (   1) F   6                / 27. RY*(   1) I   1                    0.33    2.01    0.023
  23. LP (   1) F   6                / 28. RY*(   2) I   1                    0.46    1.64    0.025
  23. LP (   1) F   6                / 29. RY*(   3) I   1                    0.09    1.85    0.012
  23. LP (   1) F   6                / 51. BD*(   1) I   1 - F   2            8.39    1.02    0.092
  23. LP (   1) F   6                / 52. BD*(   1) I   1 - F   3            0.18    1.02    0.013
  23. LP (   1) F   6                / 53. BD*(   1) I   1 - F   5            3.13    1.00    0.057
  24. LP (   2) F   6                / 28. RY*(   2) I   1                    0.09    0.80    0.008
  24. LP (   2) F   6                / 29. RY*(   3) I   1                    0.10    1.01    0.009
  24. LP (   2) F   6                / 45. RY*(   3) F   5                    0.10    1.29    0.010
  24. LP (   2) F   6                / 51. BD*(   1) I   1 - F   2            4.88    0.18    0.029
  24. LP (   2) F   6                / 52. BD*(   1) I   1 - F   3            0.15    0.18    0.005
  24. LP (   2) F   6                / 53. BD*(   1) I   1 - F   5            1.31    0.15    0.014
  25. LP (   3) F   6                / 36. RY*(   2) F   3                    0.07    1.25    0.008
  25. LP (   3) F   6                / 52. BD*(   1) I   1 - F   3            6.27    0.16    0.032
  25. LP (   3) F   6                / 53. BD*(   1) I   1 - F   5            0.33    0.14    0.007
  26. LP (   4) F   6                / 27. RY*(   1) I   1                    0.32    1.21    0.020
  26. LP (   4) F   6                / 28. RY*(   2) I   1                    0.06    0.84    0.007
  26. LP (   4) F   6                / 29. RY*(   3) I   1                    0.59    1.05    0.025
  26. LP (   4) F   6                / 30. RY*(   4) I   1                    1.09   10.83    0.110
  26. LP (   4) F   6                / 51. BD*(   1) I   1 - F   2           78.39    0.22    0.118
  26. LP (   4) F   6                / 52. BD*(   1) I   1 - F   3            2.56    0.22    0.021
  26. LP (   4) F   6                / 53. BD*(   1) I   1 - F   5           45.39    0.20    0.085

 from unit  3 to unit  2
  25. LP (   3) F   6                / 40. RY*(   2) F   4                    0.07    1.25    0.008

 within unit  3
       None above threshold


 Natural Bond Orbitals (Summary):

                                                            Principal Delocalizations
           NBO                        Occupancy    Energy   (geminal,vicinal,remote)
 ====================================================================================
 Molecular unit  1  (F3I)
     1. BD (   1) I   1 - F   2          1.98166    -0.61817  51(g),53(g),47(r),39(r)
     2. BD (   1) I   1 - F   3          1.98166    -0.61817  52(g),53(g),39(r),47(r)
     3. BD (   1) I   1 - F   5          1.95419    -0.62672  53(g),51(g),52(g),39(r)
                                                    47(r)
     4. CR (   1) F   2                  2.00000   -24.54554   
     5. CR (   1) F   3                  2.00000   -24.54554   
     7. CR (   1) F   5                  2.00000   -24.52693   
     9. LP (   1) I   1                  1.99688    -0.82869  53(g),39(r),47(r),31(v)
                                                    35(v),51(g),52(g),43(v)
                                                    30(g),42(r),50(r)
    10. LP (   1) F   2                  1.99912    -1.29386   
    11. LP (   2) F   2                  1.96660    -0.45305  53(v)
    12. LP (   3) F   2                  1.96223    -0.44034  52(v),40(r)
    13. LP (   1) F   3                  1.99912    -1.29386   
    14. LP (   2) F   3                  1.96660    -0.45305  53(v)
    15. LP (   3) F   3                  1.96223    -0.44034  51(v),48(r)
    20. LP (   1) F   5                  1.99927    -1.34310  51(v),52(v)
    21. LP (   2) F   5                  1.97794    -0.43895  52(v),41(r)
    22. LP (   3) F   5                  1.97794    -0.43895  51(v),49(r)
    27. RY*(   1) I   1                  0.00407     0.71433   
    28. RY*(   2) I   1                  0.00367     0.34866   
    29. RY*(   3) I   1                  0.00331     0.55237   
    30. RY*(   4) I   1                  0.00036    10.33751   
    31. RY*(   1) F   2                  0.00154     1.28141   
    32. RY*(   2) F   2                  0.00026     0.81142   
    33. RY*(   3) F   2                  0.00014     0.81895   
    34. RY*(   4) F   2                  0.00001     1.08877   
    35. RY*(   1) F   3                  0.00154     1.28141   
    36. RY*(   2) F   3                  0.00026     0.81142   
    37. RY*(   3) F   3                  0.00014     0.81895   
    38. RY*(   4) F   3                  0.00001     1.08877   
    43. RY*(   1) F   5                  0.00229     1.32507   
    44. RY*(   2) F   5                  0.00036     0.83642   
    45. RY*(   3) F   5                  0.00036     0.83642   
    46. RY*(   4) F   5                  0.00000     1.07965   
    51. BD*(   1) I   1 - F   2          0.40970    -0.27776  52(g),53(g),30(g),27(g)
                                                    31(g),39(r)
    52. BD*(   1) I   1 - F   3          0.40970    -0.27776  51(g),53(g),30(g),27(g)
                                                    35(g),47(r)
    53. BD*(   1) I   1 - F   5          0.46884    -0.29885  51(g),52(g),43(g),30(g)
                                                    39(r),47(r),42(r),50(r)
       -------------------------------
              Total Lewis   77.72544  ( 98.3468%)
        Valence non-Lewis    1.28824  (  1.6300%)
        Rydberg non-Lewis    0.01835  (  0.0232%)
       -------------------------------
            Total unit  1   79.03203  (100.0000%)
           Charge unit  1    0.96797

 Molecular unit  2  (F)
     6. CR (   1) F   4                  2.00000   -24.54554  52(r),53(r),28(r),27(r)
    16. LP (   1) F   4                  1.99912    -1.29387  52(r),53(r),28(r),27(r)
                                                    51(r),29(r)
    17. LP (   2) F   4                  1.96660    -0.45305  52(r),53(r),51(r),44(r)
                                                    29(r),28(r)
    18. LP (   3) F   4                  1.96223    -0.44034  51(r),53(r),32(r),48(r)
    19. LP (   4) F   4                  1.55413    -0.49596  52(r),53(r),51(r),30(r)
                                                    29(r),27(r),28(r)
    39. RY*(   1) F   4                  0.00149     1.28334   
    40. RY*(   2) F   4                  0.00026     0.81142   
    41. RY*(   3) F   4                  0.00014     0.81905   
    42. RY*(   4) F   4                  0.00001     1.08707   
       -------------------------------
              Total Lewis    9.48208  ( 99.9800%)
        Valence non-Lewis    0.00000  (  0.0000%)
        Rydberg non-Lewis    0.00190  (  0.0200%)
       -------------------------------
            Total unit  2    9.48398  (100.0000%)
           Charge unit  2   -0.48398

 Molecular unit  3  (F)
     8. CR (   1) F   6                  2.00000   -24.54554  51(r),53(r),28(r),27(r)
    23. LP (   1) F   6                  1.99912    -1.29387  51(r),53(r),28(r),27(r)
                                                    52(r),29(r)
    24. LP (   2) F   6                  1.96660    -0.45305  51(r),53(r),52(r),45(r)
                                                    29(r),28(r)
    25. LP (   3) F   6                  1.96223    -0.44034  52(r),53(r),36(r),40(r)
    26. LP (   4) F   6                  1.55413    -0.49596  51(r),53(r),52(r),30(r)
                                                    29(r),27(r),28(r)
    47. RY*(   1) F   6                  0.00149     1.28334   
    48. RY*(   2) F   6                  0.00026     0.81142   
    49. RY*(   3) F   6                  0.00014     0.81905   
    50. RY*(   4) F   6                  0.00001     1.08707   
       -------------------------------
              Total Lewis    9.48208  ( 99.9800%)
        Valence non-Lewis    0.00000  (  0.0000%)
        Rydberg non-Lewis    0.00190  (  0.0200%)
       -------------------------------
            Total unit  3    9.48398  (100.0000%)
           Charge unit  3   -0.48398
 1\1\GINC-CX1-7-36-1\SP\RB3LYP\LANL2DZ\F5I1\SCAN-USER-1\15-Mar-2010\0\\
 # rb3lyp/lanl2dz pop=(nbo,full) geom=connectivity\\IF5a Molecular orbi
 tal Calculation\\0,1\I,0,0.,0.,0.\F,0,0.,0.,2.12108519\F,0,2.11903176,
 0.,0.09331005\F,0,-1.9404485,-0.85144304,0.09331005\F,0,0.42660082,-2.
 03393242,0.44579928\F,0,0.17858327,-0.85144304,-1.93446508\\Version=EM
 64L-G09RevA.02\State=1-A1\HF=-510.3993515\RMSD=3.267e-09\Dipole=-0.423
 3352,2.0183628,-0.4423867\Quadrupole=-2.409987,4.7894847,-2.3794977,-1
 .5795163,0.3461999,-1.6505998\PG=C04V [C4(F1I1),2SGV(F2)]\\@


 SCIENCE IS LONG AND LIFE IS SHORT.

                     DON MOSER IN THE FEBRUARY 1979 SMITHSONIAN
 Job cpu time:  0 days  0 hours  0 minutes 18.6 seconds.
 File lengths (MBytes):  RWF=      5 Int=      0 D2E=      0 Chk=      1 Scr=      1
 Normal termination of Gaussian 09 at Mon Mar 15 11:18:54 2010.
