 Entering Gaussian System, Link 0=g03
 Initial command:
 /apps/gaussian/g09/g09/l1.exe /home/scan-user-1/run/25628/Gau-507.inp -scrdir=/home/scan-user-1/run/25628/
 Entering Link 1 = /apps/gaussian/g09/g09/l1.exe PID=       508.
  
 Copyright (c) 1988,1990,1992,1993,1995,1998,2003,2009, Gaussian, Inc.
                  All Rights Reserved.
  
 This is part of the Gaussian(R) 09 program.  It is based on
 the Gaussian(R) 03 system (copyright 2003, Gaussian, Inc.),
 the Gaussian(R) 98 system (copyright 1998, Gaussian, Inc.),
 the Gaussian(R) 94 system (copyright 1995, Gaussian, Inc.),
 the Gaussian 92(TM) system (copyright 1992, Gaussian, Inc.),
 the Gaussian 90(TM) system (copyright 1990, Gaussian, Inc.),
 the Gaussian 88(TM) system (copyright 1988, Gaussian, Inc.),
 the Gaussian 86(TM) system (copyright 1986, Carnegie Mellon
 University), and the Gaussian 82(TM) system (copyright 1983,
 Carnegie Mellon University). Gaussian is a federally registered
 trademark of Gaussian, Inc.
  
 This software contains proprietary and confidential information,
 including trade secrets, belonging to Gaussian, Inc.
  
 This software is provided under written license and may be
 used, copied, transmitted, or stored only in accord with that
 written license.
  
 The following legend is applicable only to US Government
 contracts under FAR:
  
                    RESTRICTED RIGHTS LEGEND
  
 Use, reproduction and disclosure by the US Government is
 subject to restrictions as set forth in subparagraphs (a)
 and (c) of the Commercial Computer Software - Restricted
 Rights clause in FAR 52.227-19.
  
 Gaussian, Inc.
 340 Quinnipiac St., Bldg. 40, Wallingford CT 06492
  
  
 ---------------------------------------------------------------
 Warning -- This program may not be used in any manner that
 competes with the business of Gaussian, Inc. or will provide
 assistance to any competitor of Gaussian, Inc.  The licensee
 of this program is prohibited from giving any competitor of
 Gaussian, Inc. access to this program.  By using this program,
 the user acknowledges that Gaussian, Inc. is engaged in the
 business of creating and licensing software in the field of
 computational chemistry and represents and warrants to the
 licensee that it is not a competitor of Gaussian, Inc. and that
 it will not use this program in any manner prohibited above.
 ---------------------------------------------------------------
  

 Cite this work as:
 Gaussian 09, Revision A.02,
 M. J. Frisch, G. W. Trucks, H. B. Schlegel, G. E. Scuseria, 
 M. A. Robb, J. R. Cheeseman, G. Scalmani, V. Barone, B. Mennucci, 
 G. A. Petersson, H. Nakatsuji, M. Caricato, X. Li, H. P. Hratchian, 
 A. F. Izmaylov, J. Bloino, G. Zheng, J. L. Sonnenberg, M. Hada, 
 M. Ehara, K. Toyota, R. Fukuda, J. Hasegawa, M. Ishida, T. Nakajima, 
 Y. Honda, O. Kitao, H. Nakai, T. Vreven, J. A. Montgomery, Jr., 
 J. E. Peralta, F. Ogliaro, M. Bearpark, J. J. Heyd, E. Brothers, 
 K. N. Kudin, V. N. Staroverov, R. Kobayashi, J. Normand, 
 K. Raghavachari, A. Rendell, J. C. Burant, S. S. Iyengar, J. Tomasi, 
 M. Cossi, N. Rega, J. M. Millam, M. Klene, J. E. Knox, J. B. Cross, 
 V. Bakken, C. Adamo, J. Jaramillo, R. Gomperts, R. E. Stratmann, 
 O. Yazyev, A. J. Austin, R. Cammi, C. Pomelli, J. W. Ochterski, 
 R. L. Martin, K. Morokuma, V. G. Zakrzewski, G. A. Voth, 
 P. Salvador, J. J. Dannenberg, S. Dapprich, A. D. Daniels, 
 O. Farkas, J. B. Foresman, J. V. Ortiz, J. Cioslowski, 
 and D. J. Fox, Gaussian, Inc., Wallingford CT, 2009.
 
 ******************************************
 Gaussian 09:  EM64L-G09RevA.02 11-Jun-2009
                11-Mar-2010 
 ******************************************
 %nprocshared=4
 Will use up to    4 processors via shared memory.
 %mem=7000MB
 %NoSave
 %Chk=chk.chk
 %rwf=/tmp/pbs.3633633.cx1/rwf
 %nproc=1
 Will use up to    1 processors via shared memory.
 ----------------------------------------------------------------------
 # freq rb3lyp/lanl2dz pop=(nbo,full) geom=connectivity int=ultrafine s
 cf=conver=9
 ----------------------------------------------------------------------
 1/10=4,30=1,38=1,57=2/1,3;
 2/12=2,17=6,18=5,40=1/2;
 3/5=6,6=3,11=2,16=1,25=1,30=1,71=2,74=-5,75=-5,116=1/1,2,3;
 4//1;
 5/5=2,6=9,38=5,98=1/2;
 8/6=4,10=90,11=11/1;
 11/6=1,8=1,9=11,15=111,16=1/1,2,10;
 10/6=1/2;
 6/7=3,18=1,28=1/1,7;
 7/8=1,10=1,25=1/1,2,3,16;
 1/10=4,30=1/3;
 99//99;
 --------------
 IF5a Frequency
 --------------
 Symbolic Z-matrix:
 Charge =  0 Multiplicity = 1
 I
 F                    1    B1
 F                    1    B2       2    A1
 F                    1    B3       2    A2       3    D1       0
 F                    1    B4       2    A3       4    D2       0
 F                    1    B5       5    A4       3    D3       0
       Variables:
  B1                    1.98437                  
  B2                    1.98437                  
  B3                    1.98437                  
  B4                    1.94481                  
  B5                    1.98437                  
  A1                   88.90667                  
  A2                   88.90667                  
  A3                   82.06009                  
  A4                   82.06009                  
  D1                  164.2705                   
  D2                  -82.13525                  
  D3                   90.                       
 

 GradGradGradGradGradGradGradGradGradGradGradGradGradGradGradGradGradGrad
 Berny optimization.
 Initialization pass.
                       ----------------------------
                       !    Initial Parameters    !
                       ! (Angstroms and Degrees)  !
 ----------------------                            ----------------------
 !      Name          Value   Derivative information (Atomic Units)     !
 ------------------------------------------------------------------------
 !       B1          1.9844   calculate D2E/DX2 analytically            !
 !       B2          1.9844   calculate D2E/DX2 analytically            !
 !       B3          1.9844   calculate D2E/DX2 analytically            !
 !       B4          1.9448   calculate D2E/DX2 analytically            !
 !       B5          1.9844   calculate D2E/DX2 analytically            !
 !       A1         88.9067   calculate D2E/DX2 analytically            !
 !       A2         88.9067   calculate D2E/DX2 analytically            !
 !       A3         82.0601   calculate D2E/DX2 analytically            !
 !       A4         82.0601   calculate D2E/DX2 analytically            !
 !       D1        164.2705   calculate D2E/DX2 analytically            !
 !       D2        -82.1353   calculate D2E/DX2 analytically            !
 !       D3         90.0      calculate D2E/DX2 analytically            !
 ------------------------------------------------------------------------
 Trust Radius=3.00D-01 FncErr=1.00D-07 GrdErr=1.00D-07
 Number of steps in this run=   2 maximum allowed number of steps=   2.
 GradGradGradGradGradGradGradGradGradGradGradGradGradGradGradGradGradGrad

                          Input orientation:                          
 ---------------------------------------------------------------------
 Center     Atomic      Atomic             Coordinates (Angstroms)
 Number     Number       Type             X           Y           Z
 ---------------------------------------------------------------------
      1         53           0        0.000000    0.000000    0.000000
      2          9           0        0.000000    0.000000    1.984367
      3          9           0        1.984005    0.000000    0.037864
      4          9           0       -1.909709   -0.537856    0.037864
      5          9           0        0.263567   -1.908046    0.268645
      6          9           0        0.074296   -0.537856   -1.908639
 ---------------------------------------------------------------------
                    Distance matrix (angstroms):
                    1          2          3          4          5
     1  I    0.000000
     2  F    1.984367   0.000000
     3  F    1.984367   2.779415   0.000000
     4  F    1.984367   2.779415   3.930687   0.000000
     5  F    1.944807   2.579497   2.579497   2.579497   0.000000
     6  F    1.984367   3.930687   2.779415   2.779415   2.579497
                    6
     6  F    0.000000
 Stoichiometry    F5I
 Framework group  C4V[C4(FI),2SGV(F2)]
 Deg. of freedom     3
 Full point group                 C4V     NOp   8
 Largest Abelian subgroup         C2V     NOp   4
 Largest concise Abelian subgroup C2V     NOp   4
                         Standard orientation:                         
 ---------------------------------------------------------------------
 Center     Atomic      Atomic             Coordinates (Angstroms)
 Number     Number       Type             X           Y           Z
 ---------------------------------------------------------------------
      1         53           0        0.000000    0.000000    0.279298
      2          9           0        0.000000    1.965343    0.005189
      3          9           0       -1.965343    0.000000    0.005189
      4          9           0        1.965343    0.000000    0.005189
      5          9           0        0.000000    0.000000   -1.665509
      6          9           0        0.000000   -1.965343    0.005189
 ---------------------------------------------------------------------
 Rotational constants (GHZ):      2.4147600      2.4147600      1.7217228
 Standard basis: LANL2DZ (5D, 7F)
 There are    23 symmetry adapted basis functions of A1  symmetry.
 There are     4 symmetry adapted basis functions of A2  symmetry.
 There are    13 symmetry adapted basis functions of B1  symmetry.
 There are    13 symmetry adapted basis functions of B2  symmetry.
 Integral buffers will be    131072 words long.
 Raffenetti 2 integral format.
 Two-electron integral symmetry is turned on.
    53 basis functions,   137 primitive gaussians,    53 cartesian basis functions
    26 alpha electrons       26 beta electrons
       nuclear repulsion energy       234.3079972743 Hartrees.



 Warning!  I  atom    1 may be hypervalent but has no d functions.



 NAtoms=    6 NActive=    6 NUniq=    3 SFac= 3.00D+00 NAtFMM=   80 NAOKFM=F Big=F
 One-electron integrals computed using PRISM.
   8 Symmetry operations used in ECPInt.
 ECPInt:  NShTT=     435 NPrTT=    3463 LenC2=     430 LenP2D=    2253.
 LDataN:  DoStor=T MaxTD1= 4 Len=   56
 NBasis=    53 RedAO= T  NBF=    23     4    13    13
 NBsUse=    53 1.00D-06 NBFU=    23     4    13    13
 Defaulting to unpruned grid for atomic number  53.
 Harris functional with IExCor=  402 diagonalized for initial guess.
 ExpMin= 1.05D-01 ExpMax= 1.00D+04 ExpMxC= 3.50D+02 IAcc=3 IRadAn=         5 AccDes= 0.00D+00
 HarFok:  IExCor=  402 AccDes= 0.00D+00 IRadAn=         5 IDoV= 1
 ScaDFX=  1.000000  1.000000  1.000000  1.000000
 Defaulting to unpruned grid for atomic number  53.
 FoFCou: FMM=F IPFlag=           0 FMFlag=      100000 FMFlg1=           0
         NFxFlg=           0 DoJE=T BraDBF=F KetDBF=T FulRan=T
         Omega=  0.000000  0.000000  1.000000  0.000000  0.000000 ICntrl=     500 IOpCl=  0
         NMat0=    1 NMatS0=    1 NMatT0=    0 NMatD0=    1 NMtDS0=    0 NMtDT0=    0
         I1Cent=           4 NGrid=           0.
 Petite list used in FoFCou.
 Initial guess orbital symmetries:
       Occupied  (A1) (E) (E) (A1) (B2) (A1) (E) (E) (A1) (B2)
                 (A1) (E) (E) (A1) (E) (E) (B1) (B2) (A1) (E) (E)
                 (B2) (A2) (E) (E) (A1)
       Virtual   (A1) (E) (E) (E) (E) (A1) (B1) (E) (E) (A1) (B2)
                 (E) (E) (A1) (B2) (E) (E) (A1) (A2) (E) (E) (B2)
                 (A1) (A1) (E) (E) (A1)
 The electronic state of the initial guess is 1-A1.
 Requested convergence on RMS density matrix=1.00D-09 within 128 cycles.
 Requested convergence on MAX density matrix=1.00D-07.
 Requested convergence on             energy=1.00D-07.
 No special actions if energy rises.
 Keep R1 ints in memory in canonical form, NReq=2087911.
 Integral accuracy reduced to 1.0D-05 until final iterations.
 Defaulting to unpruned grid for atomic number  53.
 Initial convergence to 1.0D-05 achieved.  Increase integral accuracy.
 SCF Done:  E(RB3LYP) =  -510.433809797     A.U. after   16 cycles
             Convg  =    0.1387D-09             -V/T =  2.0206
 Range of M.O.s used for correlation:     1    53
 NBasis=    53 NAE=    26 NBE=    26 NFC=     0 NFV=     0
 NROrb=     53 NOA=    26 NOB=    26 NVA=    27 NVB=    27
   8 Symmetry operations used in ECPInt.
 ECPInt:  NShTT=     435 NPrTT=    3463 LenC2=     430 LenP2D=    2253.
 LDataN:  DoStor=T MaxTD1= 5 Len=  102
 Symmetrizing basis deriv contribution to polar:
 IMax=3 JMax=2 DiffMx= 0.00D+00
 G2DrvN: will do     7 centers at a time, making    1 passes doing MaxLOS=1.
 Calling FoFCou, ICntrl=  3107 FMM=F I1Cent=   0 AccDes= 0.00D+00.
 Defaulting to unpruned grid for atomic number  53.
 FoFDir/FoFCou used for L=0 through L=1.
 End of G2Drv Frequency-dependent properties file   721 does not exist.
 End of G2Drv Frequency-dependent properties file   722 does not exist.
          IDoAtm=111111
          Differentiating once with respect to electric field.
                with respect to dipole field.
          Differentiating once with respect to nuclear coordinates.
 Defaulting to unpruned grid for atomic number  53.
          Keep R1 ints in memory in canonical form, NReq=1827492.
 Defaulting to unpruned grid for atomic number  53.
          There are    12 degrees of freedom in the 1st order CPHF.  IDoFFX=4.
     12 vectors produced by pass  0 Test12= 5.85D-15 8.33D-09 XBig12= 7.97D+01 5.85D+00.
 AX will form    12 AO Fock derivatives at one time.
     12 vectors produced by pass  1 Test12= 5.85D-15 8.33D-09 XBig12= 2.30D+01 1.70D+00.
     12 vectors produced by pass  2 Test12= 5.85D-15 8.33D-09 XBig12= 1.99D-01 1.70D-01.
     12 vectors produced by pass  3 Test12= 5.85D-15 8.33D-09 XBig12= 6.99D-03 2.67D-02.
     12 vectors produced by pass  4 Test12= 5.85D-15 8.33D-09 XBig12= 1.93D-05 1.36D-03.
     12 vectors produced by pass  5 Test12= 5.85D-15 8.33D-09 XBig12= 5.52D-08 7.37D-05.
      7 vectors produced by pass  6 Test12= 5.85D-15 8.33D-09 XBig12= 9.83D-11 2.23D-06.
      3 vectors produced by pass  7 Test12= 5.85D-15 8.33D-09 XBig12= 1.23D-13 1.04D-07.
 Inverted reduced A of dimension    82 with in-core refinement.
 Isotropic polarizability for W=    0.000000       37.62 Bohr**3.
 End of Minotr Frequency-dependent properties file   721 does not exist.
 End of Minotr Frequency-dependent properties file   722 does not exist.

 **********************************************************************

            Population analysis using the SCF density.

 **********************************************************************

 Orbital symmetries:
       Occupied  (A1) (E) (E) (B2) (A1) (A1) (E) (E) (A1) (B2)
                 (A1) (E) (E) (A1) (E) (E) (B1) (B2) (A1) (E) (E)
                 (B2) (E) (E) (A2) (A1)
       Virtual   (A1) (E) (E) (A1) (E) (E) (B1) (E) (E) (A1) (B2)
                 (E) (E) (A1) (B2) (E) (E) (A1) (A2) (E) (E) (B2)
                 (A1) (A1) (E) (E) (A1)
 The electronic state is 1-A1.
 Alpha  occ. eigenvalues --  -24.77684 -24.75063 -24.75063 -24.75063 -24.75062
 Alpha  occ. eigenvalues --   -1.28634  -1.22505  -1.22505  -1.22394  -1.20485
 Alpha  occ. eigenvalues --   -0.86420  -0.60745  -0.60745  -0.59791  -0.49225
 Alpha  occ. eigenvalues --   -0.49225  -0.48130  -0.47563  -0.46630  -0.45731
 Alpha  occ. eigenvalues --   -0.45731  -0.45563  -0.44651  -0.44651  -0.44003
 Alpha  occ. eigenvalues --   -0.41027
 Alpha virt. eigenvalues --   -0.20015  -0.15795  -0.15795   0.26563   0.29125
 Alpha virt. eigenvalues --    0.29125   0.58403   0.60200   0.60200   0.76497
 Alpha virt. eigenvalues --    0.78422   0.80925   0.80925   0.82417   0.84156
 Alpha virt. eigenvalues --    0.90888   0.90888   0.93614   0.94993   1.06978
 Alpha virt. eigenvalues --    1.06978   1.26538   1.35488   1.46157   1.70897
 Alpha virt. eigenvalues --    1.70897  11.29095
     Molecular Orbital Coefficients:
                           1         2         3         4         5
                        (A1)--O   (E)--O    (E)--O    (B2)--O   (A1)--O
     Eigenvalues --   -24.77684 -24.75063 -24.75063 -24.75063 -24.75062
   1 1   I  1S         -0.00001   0.00000   0.00000   0.00000   0.00000
   2        2S          0.00060   0.00000   0.00000   0.00000   0.00083
   3        3PX         0.00000  -0.00016   0.00000   0.00000   0.00000
   4        3PY         0.00000   0.00000   0.00016   0.00000   0.00000
   5        3PZ        -0.00018   0.00000   0.00000   0.00000  -0.00003
   6        4PX         0.00000  -0.00094   0.00000   0.00000   0.00000
   7        4PY         0.00000   0.00000   0.00094   0.00000   0.00000
   8        4PZ        -0.00042   0.00000   0.00000   0.00000  -0.00031
   9 2   F  1S         -0.00004   0.00000   0.70646   0.49954   0.49954
  10        2S          0.00005   0.00000   0.00324   0.00211   0.00218
  11        3S         -0.00013   0.00000  -0.00163  -0.00071  -0.00091
  12        4PX         0.00000  -0.00002   0.00000   0.00000   0.00000
  13        4PY         0.00001   0.00000  -0.00060  -0.00041  -0.00041
  14        4PZ         0.00001   0.00000   0.00012   0.00007   0.00006
  15        5PX         0.00000   0.00013   0.00000   0.00000   0.00000
  16        5PY         0.00006   0.00000   0.00054   0.00022   0.00033
  17        5PZ        -0.00001   0.00000  -0.00014  -0.00003   0.00000
  18 3   F  1S         -0.00004   0.70646   0.00000  -0.49954   0.49954
  19        2S          0.00005   0.00324   0.00000  -0.00211   0.00218
  20        3S         -0.00013  -0.00163   0.00000   0.00071  -0.00091
  21        4PX        -0.00001   0.00060   0.00000  -0.00041   0.00041
  22        4PY         0.00000   0.00000   0.00002   0.00000   0.00000
  23        4PZ         0.00001   0.00012   0.00000  -0.00007   0.00006
  24        5PX        -0.00006  -0.00054   0.00000   0.00022  -0.00033
  25        5PY         0.00000   0.00000  -0.00013   0.00000   0.00000
  26        5PZ        -0.00001  -0.00014   0.00000   0.00003   0.00000
  27 4   F  1S         -0.00004  -0.70646   0.00000  -0.49954   0.49954
  28        2S          0.00005  -0.00324   0.00000  -0.00211   0.00218
  29        3S         -0.00013   0.00163   0.00000   0.00071  -0.00091
  30        4PX         0.00001   0.00060   0.00000   0.00041  -0.00041
  31        4PY         0.00000   0.00000   0.00002   0.00000   0.00000
  32        4PZ         0.00001  -0.00012   0.00000  -0.00007   0.00006
  33        5PX         0.00006  -0.00054   0.00000  -0.00022   0.00033
  34        5PY         0.00000   0.00000  -0.00013   0.00000   0.00000
  35        5PZ        -0.00001   0.00014   0.00000   0.00003   0.00000
  36 5   F  1S          0.99908   0.00000   0.00000   0.00000   0.00009
  37        2S          0.00442   0.00000   0.00000   0.00000   0.00010
  38        3S         -0.00189   0.00000   0.00000   0.00000  -0.00031
  39        4PX         0.00000   0.00001   0.00000   0.00000   0.00000
  40        4PY         0.00000   0.00000  -0.00001   0.00000   0.00000
  41        4PZ         0.00091   0.00000   0.00000   0.00000  -0.00001
  42        5PX         0.00000   0.00006   0.00000   0.00000   0.00000
  43        5PY         0.00000   0.00000  -0.00006   0.00000   0.00000
  44        5PZ        -0.00069   0.00000   0.00000   0.00000  -0.00011
  45 6   F  1S         -0.00004   0.00000  -0.70646   0.49954   0.49954
  46        2S          0.00005   0.00000  -0.00324   0.00211   0.00218
  47        3S         -0.00013   0.00000   0.00163  -0.00071  -0.00091
  48        4PX         0.00000  -0.00002   0.00000   0.00000   0.00000
  49        4PY        -0.00001   0.00000  -0.00060   0.00041   0.00041
  50        4PZ         0.00001   0.00000  -0.00012   0.00007   0.00006
  51        5PX         0.00000   0.00013   0.00000   0.00000   0.00000
  52        5PY        -0.00006   0.00000   0.00054  -0.00022  -0.00033
  53        5PZ        -0.00001   0.00000   0.00014  -0.00003   0.00000
                           6         7         8         9        10
                        (A1)--O   (E)--O    (E)--O    (A1)--O   (B2)--O
     Eigenvalues --    -1.28634  -1.22505  -1.22505  -1.22394  -1.20485
   1 1   I  1S          0.13364   0.00000   0.00000  -0.04822   0.00000
   2        2S          0.18850   0.00000   0.00000  -0.06933   0.00000
   3        3PX         0.00000  -0.10930   0.00000   0.00000   0.00000
   4        3PY         0.00000   0.00000   0.10930   0.00000   0.00000
   5        3PZ        -0.07497   0.00000   0.00000  -0.04336   0.00000
   6        4PX         0.00000  -0.01247   0.00000   0.00000   0.00000
   7        4PY         0.00000   0.00000   0.01247   0.00000   0.00000
   8        4PZ        -0.01744   0.00000   0.00000   0.00859   0.00000
   9 2   F  1S         -0.07357   0.00000  -0.17311   0.08728  -0.12662
  10        2S          0.16225   0.00000   0.37330  -0.18760   0.26983
  11        3S          0.13325   0.00000   0.35792  -0.18038   0.27335
  12        4PX         0.00000  -0.00421   0.00000   0.00000   0.00000
  13        4PY        -0.04315   0.00000  -0.07140   0.03508  -0.04372
  14        4PZ         0.00341   0.00000   0.01236  -0.00835   0.00774
  15        5PX         0.00000  -0.00106   0.00000   0.00000   0.00000
  16        5PY        -0.00834   0.00000  -0.03206   0.01902  -0.03118
  17        5PZ         0.00272   0.00000   0.00524  -0.00668   0.00583
  18 3   F  1S         -0.07357  -0.17311   0.00000   0.08728   0.12662
  19        2S          0.16225   0.37330   0.00000  -0.18760  -0.26983
  20        3S          0.13325   0.35792   0.00000  -0.18038  -0.27335
  21        4PX         0.04315   0.07140   0.00000  -0.03508  -0.04372
  22        4PY         0.00000   0.00000   0.00421   0.00000   0.00000
  23        4PZ         0.00341   0.01236   0.00000  -0.00835  -0.00774
  24        5PX         0.00834   0.03206   0.00000  -0.01902  -0.03118
  25        5PY         0.00000   0.00000   0.00106   0.00000   0.00000
  26        5PZ         0.00272   0.00524   0.00000  -0.00668  -0.00583
  27 4   F  1S         -0.07357   0.17311   0.00000   0.08728   0.12662
  28        2S          0.16225  -0.37330   0.00000  -0.18760  -0.26983
  29        3S          0.13325  -0.35792   0.00000  -0.18038  -0.27335
  30        4PX        -0.04315   0.07140   0.00000   0.03508   0.04372
  31        4PY         0.00000   0.00000   0.00421   0.00000   0.00000
  32        4PZ         0.00341  -0.01236   0.00000  -0.00835  -0.00774
  33        5PX        -0.00834   0.03206   0.00000   0.01902   0.03118
  34        5PY         0.00000   0.00000   0.00106   0.00000   0.00000
  35        5PZ         0.00272  -0.00524   0.00000  -0.00668  -0.00583
  36 5   F  1S         -0.16535   0.00000   0.00000  -0.17796   0.00000
  37        2S          0.36280   0.00000   0.00000   0.37953   0.00000
  38        3S          0.31438   0.00000   0.00000   0.38953   0.00000
  39        4PX         0.00000  -0.00659   0.00000   0.00000   0.00000
  40        4PY         0.00000   0.00000   0.00659   0.00000   0.00000
  41        4PZ         0.08938   0.00000   0.00000   0.06490   0.00000
  42        5PX         0.00000  -0.00349   0.00000   0.00000   0.00000
  43        5PY         0.00000   0.00000   0.00349   0.00000   0.00000
  44        5PZ         0.02747   0.00000   0.00000   0.04642   0.00000
  45 6   F  1S         -0.07357   0.00000   0.17311   0.08728  -0.12662
  46        2S          0.16225   0.00000  -0.37330  -0.18760   0.26983
  47        3S          0.13325   0.00000  -0.35792  -0.18038   0.27335
  48        4PX         0.00000  -0.00421   0.00000   0.00000   0.00000
  49        4PY         0.04315   0.00000  -0.07140  -0.03508   0.04372
  50        4PZ         0.00341   0.00000  -0.01236  -0.00835   0.00774
  51        5PX         0.00000  -0.00106   0.00000   0.00000   0.00000
  52        5PY         0.00834   0.00000  -0.03206  -0.01902   0.03118
  53        5PZ         0.00272   0.00000  -0.00524  -0.00668   0.00583
                          11        12        13        14        15
                        (A1)--O   (E)--O    (E)--O    (A1)--O   (E)--O
     Eigenvalues --    -0.86420  -0.60745  -0.60745  -0.59791  -0.49225
   1 1   I  1S          0.36929   0.00000   0.00000   0.05258   0.00000
   2        2S          0.59880   0.00000   0.00000   0.11765   0.00000
   3        3PX         0.00000   0.00000   0.46512   0.00000   0.00000
   4        3PY         0.00000   0.46512   0.00000   0.00000  -0.06040
   5        3PZ        -0.00213   0.00000   0.00000   0.46936   0.00000
   6        4PX         0.00000   0.00000   0.08028   0.00000   0.00000
   7        4PY         0.00000   0.08028   0.00000   0.00000  -0.00712
   8        4PZ        -0.00827   0.00000   0.00000   0.14889   0.00000
   9 2   F  1S          0.05981   0.05395   0.00000   0.00080  -0.00454
  10        2S         -0.12312  -0.12943   0.00000  -0.00509   0.00978
  11        3S         -0.18571  -0.14003   0.00000   0.00313   0.01323
  12        4PX         0.00000   0.00000   0.10753   0.00000   0.00000
  13        4PY        -0.08461  -0.33821   0.00000   0.01562   0.06226
  14        4PZ         0.01162   0.04438   0.00000   0.12471  -0.30290
  15        5PX         0.00000   0.00000   0.05065   0.00000   0.00000
  16        5PY        -0.00688  -0.14871   0.00000   0.00011   0.02304
  17        5PZ         0.00520   0.01552   0.00000   0.05319  -0.16737
  18 3   F  1S          0.05981   0.00000  -0.05395   0.00080   0.00000
  19        2S         -0.12312   0.00000   0.12943  -0.00509   0.00000
  20        3S         -0.18571   0.00000   0.14003   0.00313   0.00000
  21        4PX         0.08461   0.00000  -0.33821  -0.01562   0.00000
  22        4PY         0.00000   0.10753   0.00000   0.00000  -0.00202
  23        4PZ         0.01162   0.00000  -0.04438   0.12471   0.00000
  24        5PX         0.00688   0.00000  -0.14871  -0.00011   0.00000
  25        5PY         0.00000   0.05065   0.00000   0.00000   0.00309
  26        5PZ         0.00520   0.00000  -0.01552   0.05319   0.00000
  27 4   F  1S          0.05981   0.00000   0.05395   0.00080   0.00000
  28        2S         -0.12312   0.00000  -0.12943  -0.00509   0.00000
  29        3S         -0.18571   0.00000  -0.14003   0.00313   0.00000
  30        4PX        -0.08461   0.00000  -0.33821   0.01562   0.00000
  31        4PY         0.00000   0.10753   0.00000   0.00000  -0.00202
  32        4PZ         0.01162   0.00000   0.04438   0.12471   0.00000
  33        5PX        -0.00688   0.00000  -0.14871   0.00011   0.00000
  34        5PY         0.00000   0.05065   0.00000   0.00000   0.00309
  35        5PZ         0.00520   0.00000   0.01552   0.05319   0.00000
  36 5   F  1S          0.06053   0.00000   0.00000  -0.05955   0.00000
  37        2S         -0.12323   0.00000   0.00000   0.14342   0.00000
  38        3S         -0.19552   0.00000   0.00000   0.16158   0.00000
  39        4PX         0.00000   0.00000   0.14653   0.00000   0.00000
  40        4PY         0.00000   0.14653   0.00000   0.00000   0.58619
  41        4PZ         0.09912   0.00000   0.00000  -0.44294   0.00000
  42        5PX         0.00000   0.00000   0.06597   0.00000   0.00000
  43        5PY         0.00000   0.06597   0.00000   0.00000   0.30332
  44        5PZ         0.01074   0.00000   0.00000  -0.19939   0.00000
  45 6   F  1S          0.05981  -0.05395   0.00000   0.00080   0.00454
  46        2S         -0.12312   0.12943   0.00000  -0.00509  -0.00978
  47        3S         -0.18571   0.14003   0.00000   0.00313  -0.01323
  48        4PX         0.00000   0.00000   0.10753   0.00000   0.00000
  49        4PY         0.08461  -0.33821   0.00000  -0.01562   0.06226
  50        4PZ         0.01162  -0.04438   0.00000   0.12471   0.30290
  51        5PX         0.00000   0.00000   0.05065   0.00000   0.00000
  52        5PY         0.00688  -0.14871   0.00000  -0.00011   0.02304
  53        5PZ         0.00520  -0.01552   0.00000   0.05319   0.16737
                          16        17        18        19        20
                        (E)--O    (B1)--O   (B2)--O   (A1)--O   (E)--O
     Eigenvalues --    -0.49225  -0.48130  -0.47563  -0.46630  -0.45731
   1 1   I  1S          0.00000   0.00000   0.00000   0.01222   0.00000
   2        2S          0.00000   0.00000   0.00000   0.02786   0.00000
   3        3PX        -0.06040   0.00000   0.00000   0.00000   0.00000
   4        3PY         0.00000   0.00000   0.00000   0.00000  -0.04023
   5        3PZ         0.00000   0.00000   0.00000   0.02466   0.00000
   6        4PX        -0.00712   0.00000   0.00000   0.00000   0.00000
   7        4PY         0.00000   0.00000   0.00000   0.00000   0.10918
   8        4PZ         0.00000   0.00000   0.00000   0.14181   0.00000
   9 2   F  1S          0.00000   0.00000  -0.01654  -0.00539  -0.00196
  10        2S          0.00000   0.00000   0.05284   0.01616   0.01465
  11        3S          0.00000   0.00000   0.00933   0.00671  -0.03472
  12        4PX        -0.00202   0.35959   0.00000   0.00000   0.00000
  13        4PY         0.00000   0.00000   0.36302   0.18529   0.16648
  14        4PZ         0.00000   0.00000  -0.06720   0.25137  -0.00081
  15        5PX         0.00309   0.20061   0.00000   0.00000   0.00000
  16        5PY         0.00000   0.00000   0.20451   0.09811   0.09490
  17        5PZ         0.00000   0.00000  -0.03727   0.11494  -0.00427
  18 3   F  1S          0.00454   0.00000   0.01654  -0.00539   0.00000
  19        2S         -0.00978   0.00000  -0.05284   0.01616   0.00000
  20        3S         -0.01323   0.00000  -0.00933   0.00671   0.00000
  21        4PX         0.06226   0.00000   0.36302  -0.18529   0.00000
  22        4PY         0.00000  -0.35959   0.00000   0.00000   0.50908
  23        4PZ         0.30290   0.00000   0.06720   0.25137   0.00000
  24        5PX         0.02304   0.00000   0.20451  -0.09811   0.00000
  25        5PY         0.00000  -0.20061   0.00000   0.00000   0.24468
  26        5PZ         0.16737   0.00000   0.03727   0.11494   0.00000
  27 4   F  1S         -0.00454   0.00000   0.01654  -0.00539   0.00000
  28        2S          0.00978   0.00000  -0.05284   0.01616   0.00000
  29        3S          0.01323   0.00000  -0.00933   0.00671   0.00000
  30        4PX         0.06226   0.00000  -0.36302   0.18529   0.00000
  31        4PY         0.00000   0.35959   0.00000   0.00000   0.50908
  32        4PZ        -0.30290   0.00000   0.06720   0.25137   0.00000
  33        5PX         0.02304   0.00000  -0.20451   0.09811   0.00000
  34        5PY         0.00000   0.20061   0.00000   0.00000   0.24468
  35        5PZ        -0.16737   0.00000   0.03727   0.11494   0.00000
  36 5   F  1S          0.00000   0.00000   0.00000   0.00541   0.00000
  37        2S          0.00000   0.00000   0.00000  -0.03205   0.00000
  38        3S          0.00000   0.00000   0.00000   0.05550   0.00000
  39        4PX         0.58619   0.00000   0.00000   0.00000   0.00000
  40        4PY         0.00000   0.00000   0.00000   0.00000  -0.03301
  41        4PZ         0.00000   0.00000   0.00000   0.41985   0.00000
  42        5PX         0.30332   0.00000   0.00000   0.00000   0.00000
  43        5PY         0.00000   0.00000   0.00000   0.00000  -0.02566
  44        5PZ         0.00000   0.00000   0.00000   0.23483   0.00000
  45 6   F  1S          0.00000   0.00000  -0.01654  -0.00539   0.00196
  46        2S          0.00000   0.00000   0.05284   0.01616  -0.01465
  47        3S          0.00000   0.00000   0.00933   0.00671   0.03472
  48        4PX        -0.00202  -0.35959   0.00000   0.00000   0.00000
  49        4PY         0.00000   0.00000  -0.36302  -0.18529   0.16648
  50        4PZ         0.00000   0.00000  -0.06720   0.25137   0.00081
  51        5PX         0.00309  -0.20061   0.00000   0.00000   0.00000
  52        5PY         0.00000   0.00000  -0.20451  -0.09811   0.09490
  53        5PZ         0.00000   0.00000  -0.03727   0.11494   0.00427
                          21        22        23        24        25
                        (E)--O    (B2)--O   (E)--O    (E)--O    (A2)--O
     Eigenvalues --    -0.45731  -0.45563  -0.44651  -0.44651  -0.44003
   1 1   I  1S          0.00000   0.00000   0.00000   0.00000   0.00000
   2        2S          0.00000   0.00000   0.00000   0.00000   0.00000
   3        3PX        -0.04023   0.00000   0.00000  -0.02227   0.00000
   4        3PY         0.00000   0.00000  -0.02227   0.00000   0.00000
   5        3PZ         0.00000   0.00000   0.00000   0.00000   0.00000
   6        4PX         0.10918   0.00000   0.00000   0.07705   0.00000
   7        4PY         0.00000   0.00000   0.07705   0.00000   0.00000
   8        4PZ         0.00000   0.00000   0.00000   0.00000   0.00000
   9 2   F  1S          0.00000   0.00037   0.00112   0.00000   0.00000
  10        2S          0.00000  -0.00159   0.00358   0.00000   0.00000
  11        3S          0.00000   0.00029  -0.02864   0.00000   0.00000
  12        4PX         0.50908   0.00000   0.00000  -0.03202   0.39050
  13        4PY         0.00000   0.07078   0.14286   0.00000   0.00000
  14        4PZ         0.00000   0.37307   0.42550   0.00000   0.00000
  15        5PX         0.24468   0.00000   0.00000  -0.02540   0.18494
  16        5PY         0.00000   0.03533   0.08021   0.00000   0.00000
  17        5PZ         0.00000   0.18749   0.20720   0.00000   0.00000
  18 3   F  1S          0.00196  -0.00037   0.00000  -0.00112   0.00000
  19        2S         -0.01465   0.00159   0.00000  -0.00358   0.00000
  20        3S          0.03472  -0.00029   0.00000   0.02864   0.00000
  21        4PX         0.16648   0.07078   0.00000   0.14286   0.00000
  22        4PY         0.00000   0.00000  -0.03202   0.00000   0.39050
  23        4PZ         0.00081  -0.37307   0.00000  -0.42550   0.00000
  24        5PX         0.09490   0.03533   0.00000   0.08021   0.00000
  25        5PY         0.00000   0.00000  -0.02540   0.00000   0.18494
  26        5PZ         0.00427  -0.18749   0.00000  -0.20720   0.00000
  27 4   F  1S         -0.00196  -0.00037   0.00000   0.00112   0.00000
  28        2S          0.01465   0.00159   0.00000   0.00358   0.00000
  29        3S         -0.03472  -0.00029   0.00000  -0.02864   0.00000
  30        4PX         0.16648  -0.07078   0.00000   0.14286   0.00000
  31        4PY         0.00000   0.00000  -0.03202   0.00000  -0.39050
  32        4PZ        -0.00081  -0.37307   0.00000   0.42550   0.00000
  33        5PX         0.09490  -0.03533   0.00000   0.08021   0.00000
  34        5PY         0.00000   0.00000  -0.02540   0.00000  -0.18494
  35        5PZ        -0.00427  -0.18749   0.00000   0.20720   0.00000
  36 5   F  1S          0.00000   0.00000   0.00000   0.00000   0.00000
  37        2S          0.00000   0.00000   0.00000   0.00000   0.00000
  38        3S          0.00000   0.00000   0.00000   0.00000   0.00000
  39        4PX        -0.03301   0.00000   0.00000   0.45298   0.00000
  40        4PY         0.00000   0.00000   0.45298   0.00000   0.00000
  41        4PZ         0.00000   0.00000   0.00000   0.00000   0.00000
  42        5PX        -0.02566   0.00000   0.00000   0.19259   0.00000
  43        5PY         0.00000   0.00000   0.19259   0.00000   0.00000
  44        5PZ         0.00000   0.00000   0.00000   0.00000   0.00000
  45 6   F  1S          0.00000   0.00037  -0.00112   0.00000   0.00000
  46        2S          0.00000  -0.00159  -0.00358   0.00000   0.00000
  47        3S          0.00000   0.00029   0.02864   0.00000   0.00000
  48        4PX         0.50908   0.00000   0.00000  -0.03202  -0.39050
  49        4PY         0.00000  -0.07078   0.14286   0.00000   0.00000
  50        4PZ         0.00000   0.37307  -0.42550   0.00000   0.00000
  51        5PX         0.24468   0.00000   0.00000  -0.02540  -0.18494
  52        5PY         0.00000  -0.03533   0.08021   0.00000   0.00000
  53        5PZ         0.00000   0.18749  -0.20720   0.00000   0.00000
                          26        27        28        29        30
                        (A1)--O   (A1)--V   (E)--V    (E)--V    (A1)--V
     Eigenvalues --    -0.41027  -0.20015  -0.15795  -0.15795   0.26563
   1 1   I  1S          0.15120  -0.18404   0.00000   0.00000  -0.07036
   2        2S          0.35235  -0.42958   0.00000   0.00000  -0.17202
   3        3PX         0.00000   0.00000   0.00000   0.66760   0.00000
   4        3PY         0.00000   0.00000   0.66760   0.00000   0.00000
   5        3PZ         0.24625   0.54887   0.00000   0.00000  -1.22886
   6        4PX         0.00000   0.00000   0.00000   0.56014   0.00000
   7        4PY         0.00000   0.00000   0.56014   0.00000   0.00000
   8        4PZ         0.10938   0.48372   0.00000   0.00000   1.70994
   9 2   F  1S         -0.00187  -0.01312   0.03968   0.00000  -0.00568
  10        2S          0.01483   0.02486  -0.07450   0.00000   0.00443
  11        3S         -0.03411   0.08463  -0.26303   0.00000   0.08156
  12        4PX         0.00000   0.00000   0.00000  -0.14741   0.00000
  13        4PY         0.26809  -0.19287   0.36803   0.00000  -0.00047
  14        4PZ        -0.23939  -0.09915  -0.10318   0.00000  -0.07311
  15        5PX         0.00000   0.00000   0.00000  -0.09408   0.00000
  16        5PY         0.15498  -0.12297   0.25367   0.00000  -0.04765
  17        5PZ        -0.12900  -0.07132  -0.04746   0.00000  -0.09025
  18 3   F  1S         -0.00187  -0.01312   0.00000  -0.03968  -0.00568
  19        2S          0.01483   0.02486   0.00000   0.07450   0.00443
  20        3S         -0.03411   0.08463   0.00000   0.26303   0.08156
  21        4PX        -0.26809   0.19287   0.00000   0.36803   0.00047
  22        4PY         0.00000   0.00000  -0.14741   0.00000   0.00000
  23        4PZ        -0.23939  -0.09915   0.00000   0.10318  -0.07311
  24        5PX        -0.15498   0.12297   0.00000   0.25367   0.04765
  25        5PY         0.00000   0.00000  -0.09408   0.00000   0.00000
  26        5PZ        -0.12900  -0.07132   0.00000   0.04746  -0.09025
  27 4   F  1S         -0.00187  -0.01312   0.00000   0.03968  -0.00568
  28        2S          0.01483   0.02486   0.00000  -0.07450   0.00443
  29        3S         -0.03411   0.08463   0.00000  -0.26303   0.08156
  30        4PX         0.26809  -0.19287   0.00000   0.36803  -0.00047
  31        4PY         0.00000   0.00000  -0.14741   0.00000   0.00000
  32        4PZ        -0.23939  -0.09915   0.00000  -0.10318  -0.07311
  33        5PX         0.15498  -0.12297   0.00000   0.25367  -0.04765
  34        5PY         0.00000   0.00000  -0.09408   0.00000   0.00000
  35        5PZ        -0.12900  -0.07132   0.00000  -0.04746  -0.09025
  36 5   F  1S          0.00005  -0.04004   0.00000   0.00000  -0.02055
  37        2S         -0.01333   0.06322   0.00000   0.00000  -0.02357
  38        3S          0.03205   0.30257   0.00000   0.00000   0.48942
  39        4PX         0.00000   0.00000   0.00000  -0.11780   0.00000
  40        4PY         0.00000   0.00000  -0.11780   0.00000   0.00000
  41        4PZ         0.03125   0.45497   0.00000   0.00000  -0.23069
  42        5PX         0.00000   0.00000   0.00000  -0.09076   0.00000
  43        5PY         0.00000   0.00000  -0.09076   0.00000   0.00000
  44        5PZ         0.04108   0.31239   0.00000   0.00000   0.18542
  45 6   F  1S         -0.00187  -0.01312  -0.03968   0.00000  -0.00568
  46        2S          0.01483   0.02486   0.07450   0.00000   0.00443
  47        3S         -0.03411   0.08463   0.26303   0.00000   0.08156
  48        4PX         0.00000   0.00000   0.00000  -0.14741   0.00000
  49        4PY        -0.26809   0.19287   0.36803   0.00000   0.00047
  50        4PZ        -0.23939  -0.09915   0.10318   0.00000  -0.07311
  51        5PX         0.00000   0.00000   0.00000  -0.09408   0.00000
  52        5PY        -0.15498   0.12297   0.25367   0.00000   0.04765
  53        5PZ        -0.12900  -0.07132   0.04746   0.00000  -0.09025
                          31        32        33        34        35
                        (E)--V    (E)--V    (B1)--V   (E)--V    (E)--V
     Eigenvalues --     0.29125   0.29125   0.58403   0.60200   0.60200
   1 1   I  1S          0.00000   0.00000   0.00000   0.00000   0.00000
   2        2S          0.00000   0.00000   0.00000   0.00000   0.00000
   3        3PX        -1.18124   0.00000   0.00000   0.00000  -0.12363
   4        3PY         0.00000  -1.18124   0.00000  -0.12363   0.00000
   5        3PZ         0.00000   0.00000   0.00000   0.00000   0.00000
   6        4PX         1.90516   0.00000   0.00000   0.00000  -0.11954
   7        4PY         0.00000   1.90516   0.00000  -0.11954   0.00000
   8        4PZ         0.00000   0.00000   0.00000   0.00000   0.00000
   9 2   F  1S          0.00000   0.03262   0.00000   0.00404   0.00000
  10        2S          0.00000  -0.03384   0.00000  -0.05612   0.00000
  11        3S          0.00000  -0.49359   0.00000   0.09354   0.00000
  12        4PX        -0.10784   0.00000  -0.43774   0.00000  -0.10318
  13        4PY         0.00000  -0.19344   0.00000   0.12732   0.00000
  14        4PZ         0.00000  -0.05034   0.00000   0.42764   0.00000
  15        5PX        -0.09355   0.00000   0.48299   0.00000   0.13083
  16        5PY         0.00000   0.20760   0.00000  -0.17652   0.00000
  17        5PZ         0.00000   0.00562   0.00000  -0.45815   0.00000
  18 3   F  1S         -0.03262   0.00000   0.00000   0.00000  -0.00404
  19        2S          0.03384   0.00000   0.00000   0.00000   0.05612
  20        3S          0.49359   0.00000   0.00000   0.00000  -0.09354
  21        4PX        -0.19344   0.00000   0.00000   0.00000   0.12732
  22        4PY         0.00000  -0.10784   0.43774  -0.10318   0.00000
  23        4PZ         0.05034   0.00000   0.00000   0.00000  -0.42764
  24        5PX         0.20760   0.00000   0.00000   0.00000  -0.17652
  25        5PY         0.00000  -0.09355  -0.48299   0.13083   0.00000
  26        5PZ        -0.00562   0.00000   0.00000   0.00000   0.45815
  27 4   F  1S          0.03262   0.00000   0.00000   0.00000   0.00404
  28        2S         -0.03384   0.00000   0.00000   0.00000  -0.05612
  29        3S         -0.49359   0.00000   0.00000   0.00000   0.09354
  30        4PX        -0.19344   0.00000   0.00000   0.00000   0.12732
  31        4PY         0.00000  -0.10784  -0.43774  -0.10318   0.00000
  32        4PZ        -0.05034   0.00000   0.00000   0.00000   0.42764
  33        5PX         0.20760   0.00000   0.00000   0.00000  -0.17652
  34        5PY         0.00000  -0.09355   0.48299   0.13083   0.00000
  35        5PZ         0.00562   0.00000   0.00000   0.00000  -0.45815
  36 5   F  1S          0.00000   0.00000   0.00000   0.00000   0.00000
  37        2S          0.00000   0.00000   0.00000   0.00000   0.00000
  38        3S          0.00000   0.00000   0.00000   0.00000   0.00000
  39        4PX        -0.05059   0.00000   0.00000   0.00000  -0.58198
  40        4PY         0.00000  -0.05059   0.00000  -0.58198   0.00000
  41        4PZ         0.00000   0.00000   0.00000   0.00000   0.00000
  42        5PX        -0.13128   0.00000   0.00000   0.00000   0.65610
  43        5PY         0.00000  -0.13128   0.00000   0.65610   0.00000
  44        5PZ         0.00000   0.00000   0.00000   0.00000   0.00000
  45 6   F  1S          0.00000  -0.03262   0.00000  -0.00404   0.00000
  46        2S          0.00000   0.03384   0.00000   0.05612   0.00000
  47        3S          0.00000   0.49359   0.00000  -0.09354   0.00000
  48        4PX        -0.10784   0.00000   0.43774   0.00000  -0.10318
  49        4PY         0.00000  -0.19344   0.00000   0.12732   0.00000
  50        4PZ         0.00000   0.05034   0.00000  -0.42764   0.00000
  51        5PX        -0.09355   0.00000  -0.48299   0.00000   0.13083
  52        5PY         0.00000   0.20760   0.00000  -0.17652   0.00000
  53        5PZ         0.00000  -0.00562   0.00000   0.45815   0.00000
                          36        37        38        39        40
                        (A1)--V   (B2)--V   (E)--V    (E)--V    (A1)--V
     Eigenvalues --     0.76497   0.78422   0.80925   0.80925   0.82417
   1 1   I  1S         -0.05720   0.00000   0.00000   0.00000   0.17993
   2        2S         -0.18346   0.00000   0.00000   0.00000   0.74937
   3        3PX         0.00000   0.00000   0.00000  -0.21954   0.00000
   4        3PY         0.00000   0.00000  -0.21954   0.00000   0.00000
   5        3PZ         0.21740   0.00000   0.00000   0.00000  -0.23482
   6        4PX         0.00000   0.00000   0.00000  -0.39669   0.00000
   7        4PY         0.00000   0.00000  -0.39669   0.00000   0.00000
   8        4PZ         0.45336   0.00000   0.00000   0.00000  -0.06277
   9 2   F  1S         -0.00585   0.00318  -0.02636   0.00000   0.01617
  10        2S          0.03348  -0.03535   0.12791   0.00000  -0.06333
  11        3S          0.00700   0.03766   0.04901   0.00000  -0.05097
  12        4PX         0.00000   0.00000   0.00000  -0.51632   0.00000
  13        4PY        -0.02790   0.09233   0.26071   0.00000  -0.41805
  14        4PZ         0.34493  -0.42876  -0.06372   0.00000   0.03859
  15        5PX         0.00000   0.00000   0.00000   0.71275   0.00000
  16        5PY        -0.00069  -0.12096  -0.45947   0.00000   0.65701
  17        5PZ        -0.47046   0.54898   0.10044   0.00000  -0.05893
  18 3   F  1S         -0.00585  -0.00318   0.00000   0.02636   0.01617
  19        2S          0.03348   0.03535   0.00000  -0.12791  -0.06333
  20        3S          0.00700  -0.03766   0.00000  -0.04901  -0.05097
  21        4PX         0.02790   0.09233   0.00000   0.26071   0.41805
  22        4PY         0.00000   0.00000  -0.51632   0.00000   0.00000
  23        4PZ         0.34493   0.42876   0.00000   0.06372   0.03859
  24        5PX         0.00069  -0.12096   0.00000  -0.45947  -0.65701
  25        5PY         0.00000   0.00000   0.71275   0.00000   0.00000
  26        5PZ        -0.47046  -0.54898   0.00000  -0.10044  -0.05893
  27 4   F  1S         -0.00585  -0.00318   0.00000  -0.02636   0.01617
  28        2S          0.03348   0.03535   0.00000   0.12791  -0.06333
  29        3S          0.00700  -0.03766   0.00000   0.04901  -0.05097
  30        4PX        -0.02790  -0.09233   0.00000   0.26071  -0.41805
  31        4PY         0.00000   0.00000  -0.51632   0.00000   0.00000
  32        4PZ         0.34493   0.42876   0.00000  -0.06372   0.03859
  33        5PX        -0.00069   0.12096   0.00000  -0.45947   0.65701
  34        5PY         0.00000   0.00000   0.71275   0.00000   0.00000
  35        5PZ        -0.47046  -0.54898   0.00000   0.10044  -0.05893
  36 5   F  1S         -0.00435   0.00000   0.00000   0.00000   0.01541
  37        2S         -0.08488   0.00000   0.00000   0.00000  -0.05748
  38        3S          0.28329   0.00000   0.00000   0.00000  -0.07624
  39        4PX         0.00000   0.00000   0.00000   0.20459   0.00000
  40        4PY         0.00000   0.00000   0.20459   0.00000   0.00000
  41        4PZ        -0.52013   0.00000   0.00000   0.00000   0.11362
  42        5PX         0.00000   0.00000   0.00000  -0.23842   0.00000
  43        5PY         0.00000   0.00000  -0.23842   0.00000   0.00000
  44        5PZ         0.81116   0.00000   0.00000   0.00000  -0.29110
  45 6   F  1S         -0.00585   0.00318   0.02636   0.00000   0.01617
  46        2S          0.03348  -0.03535  -0.12791   0.00000  -0.06333
  47        3S          0.00700   0.03766  -0.04901   0.00000  -0.05097
  48        4PX         0.00000   0.00000   0.00000  -0.51632   0.00000
  49        4PY         0.02790  -0.09233   0.26071   0.00000   0.41805
  50        4PZ         0.34493  -0.42876   0.06372   0.00000   0.03859
  51        5PX         0.00000   0.00000   0.00000   0.71275   0.00000
  52        5PY         0.00069   0.12096  -0.45947   0.00000  -0.65701
  53        5PZ        -0.47046   0.54898  -0.10044   0.00000  -0.05893
                          41        42        43        44        45
                        (B2)--V   (E)--V    (E)--V    (A1)--V   (A2)--V
     Eigenvalues --     0.84156   0.90888   0.90888   0.93614   0.94993
   1 1   I  1S          0.00000   0.00000   0.00000  -0.01345   0.00000
   2        2S          0.00000   0.00000   0.00000  -0.17017   0.00000
   3        3PX         0.00000   0.00000   0.53887   0.00000   0.00000
   4        3PY         0.00000   0.53887   0.00000   0.00000   0.00000
   5        3PZ         0.00000   0.00000   0.00000   0.58093   0.00000
   6        4PX         0.00000   0.00000  -0.10000   0.00000   0.00000
   7        4PY         0.00000  -0.10000   0.00000   0.00000   0.00000
   8        4PZ         0.00000   0.00000   0.00000  -0.71980   0.00000
   9 2   F  1S          0.00504   0.01653   0.00000   0.00818   0.00000
  10        2S         -0.02085  -0.09291   0.00000  -0.06617   0.00000
  11        3S          0.00087   0.04655   0.00000   0.04716   0.00000
  12        4PX         0.00000   0.00000  -0.18511   0.00000  -0.44056
  13        4PY        -0.44440  -0.36315   0.00000  -0.08769   0.00000
  14        4PZ        -0.08362   0.34549   0.00000  -0.24844   0.00000
  15        5PX         0.00000   0.00000   0.25674   0.00000   0.62094
  16        5PY         0.59737   0.59667   0.00000   0.12575   0.00000
  17        5PZ         0.11035  -0.50226   0.00000   0.42229   0.00000
  18 3   F  1S         -0.00504   0.00000  -0.01653   0.00818   0.00000
  19        2S          0.02085   0.00000   0.09291  -0.06617   0.00000
  20        3S         -0.00087   0.00000  -0.04655   0.04716   0.00000
  21        4PX        -0.44440   0.00000  -0.36315   0.08769   0.00000
  22        4PY         0.00000  -0.18511   0.00000   0.00000  -0.44056
  23        4PZ         0.08362   0.00000  -0.34549  -0.24844   0.00000
  24        5PX         0.59737   0.00000   0.59667  -0.12575   0.00000
  25        5PY         0.00000   0.25674   0.00000   0.00000   0.62094
  26        5PZ        -0.11035   0.00000   0.50226   0.42229   0.00000
  27 4   F  1S         -0.00504   0.00000   0.01653   0.00818   0.00000
  28        2S          0.02085   0.00000  -0.09291  -0.06617   0.00000
  29        3S         -0.00087   0.00000   0.04655   0.04716   0.00000
  30        4PX         0.44440   0.00000  -0.36315  -0.08769   0.00000
  31        4PY         0.00000  -0.18511   0.00000   0.00000   0.44056
  32        4PZ         0.08362   0.00000   0.34549  -0.24844   0.00000
  33        5PX        -0.59737   0.00000   0.59667   0.12575   0.00000
  34        5PY         0.00000   0.25674   0.00000   0.00000  -0.62094
  35        5PZ        -0.11035   0.00000  -0.50226   0.42229   0.00000
  36 5   F  1S          0.00000   0.00000   0.00000  -0.03827   0.00000
  37        2S          0.00000   0.00000   0.00000   0.32998   0.00000
  38        3S          0.00000   0.00000   0.00000  -0.40356   0.00000
  39        4PX         0.00000   0.00000   0.39231   0.00000   0.00000
  40        4PY         0.00000   0.39231   0.00000   0.00000   0.00000
  41        4PZ         0.00000   0.00000   0.00000  -0.64295   0.00000
  42        5PX         0.00000   0.00000  -0.54453   0.00000   0.00000
  43        5PY         0.00000  -0.54453   0.00000   0.00000   0.00000
  44        5PZ         0.00000   0.00000   0.00000   0.98602   0.00000
  45 6   F  1S          0.00504  -0.01653   0.00000   0.00818   0.00000
  46        2S         -0.02085   0.09291   0.00000  -0.06617   0.00000
  47        3S          0.00087  -0.04655   0.00000   0.04716   0.00000
  48        4PX         0.00000   0.00000  -0.18511   0.00000   0.44056
  49        4PY         0.44440  -0.36315   0.00000   0.08769   0.00000
  50        4PZ        -0.08362  -0.34549   0.00000  -0.24844   0.00000
  51        5PX         0.00000   0.00000   0.25674   0.00000  -0.62094
  52        5PY        -0.59737   0.59667   0.00000  -0.12575   0.00000
  53        5PZ         0.11035   0.50226   0.00000   0.42229   0.00000
                          46        47        48        49        50
                        (E)--V    (E)--V    (B2)--V   (A1)--V   (A1)--V
     Eigenvalues --     1.06978   1.06978   1.26538   1.35488   1.46157
   1 1   I  1S          0.00000   0.00000   0.00000  -0.13739  -0.28491
   2        2S          0.00000   0.00000   0.00000  -0.23979  -0.54114
   3        3PX        -0.66014   0.00000   0.00000   0.00000   0.00000
   4        3PY         0.00000  -0.66014   0.00000   0.00000   0.00000
   5        3PZ         0.00000   0.00000   0.00000  -0.12469   0.21936
   6        4PX         0.92249   0.00000   0.00000   0.00000   0.00000
   7        4PY         0.00000   0.92249   0.00000   0.00000   0.00000
   8        4PZ         0.00000   0.00000   0.00000   0.17202   0.39712
   9 2   F  1S          0.00000   0.00460  -0.07957   0.06547   0.03380
  10        2S          0.00000   0.01026   0.79696  -0.70332  -0.42280
  11        3S          0.00000  -0.20711  -0.78537   0.74294   0.51710
  12        4PX         0.24787   0.00000   0.00000   0.00000   0.00000
  13        4PY         0.00000   0.35190  -0.04047   0.06820   0.02984
  14        4PZ         0.00000   0.26912  -0.01862   0.06648  -0.04789
  15        5PX        -0.44270   0.00000   0.00000   0.00000   0.00000
  16        5PY         0.00000  -0.52917   0.05931  -0.15582  -0.15628
  17        5PZ         0.00000  -0.42221   0.02811  -0.11435   0.05137
  18 3   F  1S         -0.00460   0.00000   0.07957   0.06547   0.03380
  19        2S         -0.01026   0.00000  -0.79696  -0.70332  -0.42280
  20        3S          0.20711   0.00000   0.78537   0.74294   0.51710
  21        4PX         0.35190   0.00000  -0.04047  -0.06820  -0.02984
  22        4PY         0.00000   0.24787   0.00000   0.00000   0.00000
  23        4PZ        -0.26912   0.00000   0.01862   0.06648  -0.04789
  24        5PX        -0.52917   0.00000   0.05931   0.15582   0.15628
  25        5PY         0.00000  -0.44270   0.00000   0.00000   0.00000
  26        5PZ         0.42221   0.00000  -0.02811  -0.11435   0.05137
  27 4   F  1S          0.00460   0.00000   0.07957   0.06547   0.03380
  28        2S          0.01026   0.00000  -0.79696  -0.70332  -0.42280
  29        3S         -0.20711   0.00000   0.78537   0.74294   0.51710
  30        4PX         0.35190   0.00000   0.04047   0.06820   0.02984
  31        4PY         0.00000   0.24787   0.00000   0.00000   0.00000
  32        4PZ         0.26912   0.00000   0.01862   0.06648  -0.04789
  33        5PX        -0.52917   0.00000  -0.05931  -0.15582  -0.15628
  34        5PY         0.00000  -0.44270   0.00000   0.00000   0.00000
  35        5PZ        -0.42221   0.00000  -0.02811  -0.11435   0.05137
  36 5   F  1S          0.00000   0.00000   0.00000  -0.07593   0.12198
  37        2S          0.00000   0.00000   0.00000   0.76061  -1.45958
  38        3S          0.00000   0.00000   0.00000  -0.70171   1.72005
  39        4PX         0.48174   0.00000   0.00000   0.00000   0.00000
  40        4PY         0.00000   0.48174   0.00000   0.00000   0.00000
  41        4PZ         0.00000   0.00000   0.00000   0.12330  -0.13912
  42        5PX        -0.83116   0.00000   0.00000   0.00000   0.00000
  43        5PY         0.00000  -0.83116   0.00000   0.00000   0.00000
  44        5PZ         0.00000   0.00000   0.00000  -0.16824   0.44643
  45 6   F  1S          0.00000  -0.00460  -0.07957   0.06547   0.03380
  46        2S          0.00000  -0.01026   0.79696  -0.70332  -0.42280
  47        3S          0.00000   0.20711  -0.78537   0.74294   0.51710
  48        4PX         0.24787   0.00000   0.00000   0.00000   0.00000
  49        4PY         0.00000   0.35190   0.04047  -0.06820  -0.02984
  50        4PZ         0.00000  -0.26912  -0.01862   0.06648  -0.04789
  51        5PX        -0.44270   0.00000   0.00000   0.00000   0.00000
  52        5PY         0.00000  -0.52917  -0.05931   0.15582   0.15628
  53        5PZ         0.00000   0.42221   0.02811  -0.11435   0.05137
                          51        52        53
                        (E)--V    (E)--V    (A1)--V
     Eigenvalues --     1.70897   1.70897  11.29095
   1 1   I  1S          0.00000   0.00000  -1.71041
   2        2S          0.00000   0.00000   2.33388
   3        3PX         0.00000   0.10727   0.00000
   4        3PY        -0.10727   0.00000   0.00000
   5        3PZ         0.00000   0.00000   0.04524
   6        4PX         0.00000   1.10984   0.00000
   7        4PY        -1.10984   0.00000   0.00000
   8        4PZ         0.00000   0.00000  -0.57531
   9 2   F  1S          0.09366   0.00000  -0.00139
  10        2S         -1.26033   0.00000   0.18925
  11        3S          1.67290   0.00000  -0.46355
  12        4PX         0.00000   0.05655   0.00000
  13        4PY         0.10919   0.00000  -0.00344
  14        4PZ        -0.07349   0.00000  -0.01857
  15        5PX         0.00000  -0.21254   0.00000
  16        5PY        -0.39788   0.00000   0.17230
  17        5PZ         0.17094   0.00000   0.06586
  18 3   F  1S          0.00000   0.09366  -0.00139
  19        2S          0.00000  -1.26033   0.18925
  20        3S          0.00000   1.67290  -0.46355
  21        4PX         0.00000  -0.10919   0.00344
  22        4PY        -0.05655   0.00000   0.00000
  23        4PZ         0.00000  -0.07349  -0.01857
  24        5PX         0.00000   0.39788  -0.17230
  25        5PY         0.21254   0.00000   0.00000
  26        5PZ         0.00000   0.17094   0.06586
  27 4   F  1S          0.00000  -0.09366  -0.00139
  28        2S          0.00000   1.26033   0.18925
  29        3S          0.00000  -1.67290  -0.46355
  30        4PX         0.00000  -0.10919  -0.00344
  31        4PY        -0.05655   0.00000   0.00000
  32        4PZ         0.00000   0.07349  -0.01857
  33        5PX         0.00000   0.39788   0.17230
  34        5PY         0.21254   0.00000   0.00000
  35        5PZ         0.00000  -0.17094   0.06586
  36 5   F  1S          0.00000   0.00000  -0.00211
  37        2S          0.00000   0.00000   0.29596
  38        3S          0.00000   0.00000  -0.74509
  39        4PX         0.00000  -0.01999   0.00000
  40        4PY         0.01999   0.00000   0.00000
  41        4PZ         0.00000   0.00000  -0.00421
  42        5PX         0.00000  -0.08096   0.00000
  43        5PY         0.08096   0.00000   0.00000
  44        5PZ         0.00000   0.00000  -0.20779
  45 6   F  1S         -0.09366   0.00000  -0.00139
  46        2S          1.26033   0.00000   0.18925
  47        3S         -1.67290   0.00000  -0.46355
  48        4PX         0.00000   0.05655   0.00000
  49        4PY         0.10919   0.00000   0.00344
  50        4PZ         0.07349   0.00000  -0.01857
  51        5PX         0.00000  -0.21254   0.00000
  52        5PY        -0.39788   0.00000  -0.17230
  53        5PZ        -0.17094   0.00000   0.06586
     Density Matrix:
                           1         2         3         4         5
   1 1   I  1S          0.36467
   2        2S          0.61893   1.07533
   3        3PX         0.00000   0.00000   0.46809
   4        3PY         0.00000   0.00000   0.00000   0.46809
   5        3PZ         0.10700   0.26054   0.00000   0.00000   0.57810
   6        4PX         0.00000   0.00000   0.06605   0.00000   0.00000
   7        4PY         0.00000   0.00000   0.00000   0.06605   0.00000
   8        4PZ         0.04061   0.10235   0.00000   0.00000   0.20253
   9 2   F  1S          0.01549   0.03119   0.00000   0.01322   0.00274
  10        2S         -0.02513  -0.05011   0.00000  -0.04131  -0.00422
  11        3S         -0.09397  -0.17008   0.00000  -0.04955  -0.01708
  12        4PX         0.00000   0.00000   0.06166   0.00000   0.00000
  13        4PY         0.00983   0.08046   0.00000  -0.35750   0.15962
  14        4PZ        -0.04283  -0.10898   0.00000   0.06169   0.01174
  15        5PX         0.00000   0.00000   0.02842   0.00000   0.00000
  16        5PY         0.04013   0.10069   0.00000  -0.15933   0.08090
  17        5PZ        -0.02540  -0.06381   0.00000   0.02692  -0.00778
  18 3   F  1S          0.01549   0.03119  -0.01322   0.00000   0.00274
  19        2S         -0.02513  -0.05011   0.04131   0.00000  -0.00422
  20        3S         -0.09397  -0.17008   0.04955   0.00000  -0.01708
  21        4PX        -0.00983  -0.08046  -0.35750   0.00000  -0.15962
  22        4PY         0.00000   0.00000   0.00000   0.06166   0.00000
  23        4PZ        -0.04283  -0.10898  -0.06169   0.00000   0.01174
  24        5PX        -0.04013  -0.10069  -0.15933   0.00000  -0.08090
  25        5PY         0.00000   0.00000   0.00000   0.02842   0.00000
  26        5PZ        -0.02540  -0.06381  -0.02692   0.00000  -0.00778
  27 4   F  1S          0.01549   0.03119   0.01322   0.00000   0.00274
  28        2S         -0.02513  -0.05011  -0.04131   0.00000  -0.00422
  29        3S         -0.09397  -0.17008  -0.04955   0.00000  -0.01708
  30        4PX         0.00983   0.08046  -0.35750   0.00000   0.15962
  31        4PY         0.00000   0.00000   0.00000   0.06166   0.00000
  32        4PZ        -0.04283  -0.10898   0.06169   0.00000   0.01174
  33        5PX         0.04013   0.10069  -0.15933   0.00000   0.08090
  34        5PY         0.00000   0.00000   0.00000   0.02842   0.00000
  35        5PZ        -0.02540  -0.06381   0.02692   0.00000  -0.00778
  36 5   F  1S          0.01153   0.02235   0.00000   0.00000  -0.01600
  37        2S         -0.02038  -0.04086   0.00000   0.00000   0.03970
  38        3S         -0.06990  -0.10595   0.00000   0.00000   0.09011
  39        4PX         0.00000   0.00000   0.04942   0.00000   0.00000
  40        4PY         0.00000   0.00000   0.00000   0.04942   0.00000
  41        4PZ         0.06397   0.08459   0.00000   0.00000  -0.39915
  42        5PX         0.00000   0.00000   0.01898   0.00000   0.00000
  43        5PY         0.00000   0.00000   0.00000   0.01898   0.00000
  44        5PZ         0.00799   0.01190   0.00000   0.00000  -0.16354
  45 6   F  1S          0.01549   0.03119   0.00000  -0.01322   0.00274
  46        2S         -0.02513  -0.05011   0.00000   0.04131  -0.00422
  47        3S         -0.09397  -0.17008   0.00000   0.04955  -0.01708
  48        4PX         0.00000   0.00000   0.06166   0.00000   0.00000
  49        4PY        -0.00983  -0.08046   0.00000  -0.35750  -0.15962
  50        4PZ        -0.04283  -0.10898   0.00000  -0.06169   0.01174
  51        5PX         0.00000   0.00000   0.02842   0.00000   0.00000
  52        5PY        -0.04013  -0.10069   0.00000  -0.15933  -0.08090
  53        5PZ        -0.02540  -0.06381   0.00000  -0.02692  -0.00778
                           6         7         8         9        10
   6        4PX         0.04902
   7        4PY         0.00000   0.04902
   8        4PZ         0.00000   0.00000   0.10938
   9 2   F  1S          0.00000   0.00549   0.00107   2.12802
  10        2S          0.00000  -0.00786  -0.00053  -0.27614   0.61846
  11        3S          0.00000  -0.02575  -0.00930  -0.28577   0.60681
  12        4PX         0.12363   0.00000   0.00000   0.00000   0.00000
  13        4PY         0.00000   0.00140   0.11936  -0.01583   0.06335
  14        4PZ         0.00000   0.07714   0.05561   0.00287  -0.00814
  15        5PX         0.05763   0.00000   0.00000   0.00000   0.00000
  16        5PY         0.00000   0.00808   0.06250  -0.00079   0.02267
  17        5PZ         0.00000   0.03600   0.01992  -0.00008  -0.00195
  18 3   F  1S         -0.00549   0.00000   0.00107   0.00067  -0.00143
  19        2S          0.00786   0.00000  -0.00053  -0.00143   0.00317
  20        3S          0.02575   0.00000  -0.00930  -0.00391   0.00732
  21        4PX         0.00140   0.00000  -0.11936  -0.00025   0.00709
  22        4PY         0.00000   0.12363   0.00000   0.00812  -0.01004
  23        4PZ        -0.07714   0.00000   0.05561  -0.00273   0.00524
  24        5PX         0.00808   0.00000  -0.06250  -0.00104   0.00506
  25        5PY         0.00000   0.05763   0.00000   0.00387  -0.00528
  26        5PZ        -0.03600   0.00000   0.01992  -0.00148   0.00284
  27 4   F  1S          0.00549   0.00000   0.00107   0.00067  -0.00143
  28        2S         -0.00786   0.00000  -0.00053  -0.00143   0.00317
  29        3S         -0.02575   0.00000  -0.00930  -0.00391   0.00732
  30        4PX         0.00140   0.00000   0.11936   0.00025  -0.00709
  31        4PY         0.00000   0.12363   0.00000   0.00812  -0.01004
  32        4PZ         0.07714   0.00000   0.05561  -0.00273   0.00524
  33        5PX         0.00808   0.00000   0.06250   0.00104  -0.00506
  34        5PY         0.00000   0.05763   0.00000   0.00387  -0.00528
  35        5PZ         0.03600   0.00000   0.01992  -0.00148   0.00284
  36 5   F  1S          0.00000   0.00000  -0.01532   0.00036  -0.00092
  37        2S          0.00000   0.00000   0.02660  -0.00115   0.00278
  38        3S          0.00000   0.00000   0.06983  -0.00241   0.00511
  39        4PX         0.07794   0.00000   0.00000   0.00000   0.00000
  40        4PY         0.00000   0.07794   0.00000   0.00933  -0.01927
  41        4PZ         0.00000   0.00000  -0.00962   0.00466  -0.00074
  42        5PX         0.03044   0.00000   0.00000   0.00000   0.00000
  43        5PY         0.00000   0.03044   0.00000   0.00361  -0.00791
  44        5PZ         0.00000   0.00000   0.01588   0.00223  -0.00031
  45 6   F  1S          0.00000  -0.00549   0.00107   0.00009   0.00139
  46        2S          0.00000   0.00786  -0.00053   0.00139  -0.00728
  47        3S          0.00000   0.02575  -0.00930  -0.00302   0.00183
  48        4PX         0.12363   0.00000   0.00000   0.00000   0.00000
  49        4PY         0.00000   0.00140  -0.11936  -0.01119   0.01936
  50        4PZ         0.00000  -0.07714   0.05561  -0.00591   0.00217
  51        5PX         0.05763   0.00000   0.00000   0.00000   0.00000
  52        5PY         0.00000   0.00808  -0.06250  -0.00837   0.01407
  53        5PZ         0.00000  -0.03600   0.01992  -0.00341   0.00208
                          11        12        13        14        15
  11        3S          0.62145
  12        4PX         0.00000   1.10713
  13        4PY         0.00000   0.00000   0.85378
  14        4PZ        -0.01264   0.00000   0.02099   1.10989
  15        5PX         0.00000   0.55035   0.00000   0.00000   0.27508
  16        5PY        -0.02087   0.00000   0.44144   0.01316   0.00000
  17        5PZ        -0.00212   0.00000  -0.00184   0.55730   0.00000
  18 3   F  1S         -0.00391  -0.00812   0.00025  -0.00273  -0.00387
  19        2S          0.00732   0.01004  -0.00709   0.00524   0.00528
  20        3S          0.02238   0.06067   0.00865   0.01689   0.02888
  21        4PX        -0.00865   0.08677   0.04400   0.03750   0.04019
  22        4PY        -0.06067   0.04636   0.08677  -0.01720   0.00016
  23        4PZ         0.01689   0.01720  -0.03750  -0.01498   0.01936
  24        5PX         0.00258   0.05915   0.03353   0.02377   0.02738
  25        5PY        -0.02888   0.00016   0.04019  -0.01936  -0.01209
  26        5PZ         0.00927   0.01356  -0.02547  -0.01193   0.01207
  27 4   F  1S         -0.00391   0.00812   0.00025  -0.00273   0.00387
  28        2S          0.00732  -0.01004  -0.00709   0.00524  -0.00528
  29        3S          0.02238  -0.06067   0.00865   0.01689  -0.02888
  30        4PX         0.00865   0.08677  -0.04400  -0.03750   0.04019
  31        4PY        -0.06067  -0.04636   0.08677  -0.01720  -0.00016
  32        4PZ         0.01689  -0.01720  -0.03750  -0.01498  -0.01936
  33        5PX        -0.00258   0.05915  -0.03353  -0.02377   0.02738
  34        5PY        -0.02888  -0.00016   0.04019  -0.01936   0.01209
  35        5PZ         0.00927  -0.01356  -0.02547  -0.01193  -0.01207
  36 5   F  1S         -0.00292   0.00000  -0.00828  -0.00888   0.00000
  37        2S          0.00691   0.00000   0.00163   0.01932   0.00000
  38        3S          0.01544   0.00000   0.07609   0.04395   0.00000
  39        4PX         0.00000  -0.03342   0.00000   0.00000  -0.02069
  40        4PY        -0.04446   0.00000   0.09137   0.04360   0.00000
  41        4PZ        -0.03568   0.00000   0.13857   0.08746   0.00000
  42        5PX         0.00000  -0.02547   0.00000   0.00000  -0.01378
  43        5PY        -0.01721   0.00000   0.03913  -0.01387   0.00000
  44        5PZ        -0.01432   0.00000   0.10189   0.04832   0.00000
  45 6   F  1S         -0.00302   0.00000   0.01119  -0.00591   0.00000
  46        2S          0.00183   0.00000  -0.01936   0.00217   0.00000
  47        3S          0.02179   0.00000  -0.05104   0.05919   0.00000
  48        4PX         0.00000  -0.02004   0.00000   0.00000  -0.02707
  49        4PY         0.05104   0.00000  -0.16784   0.08261   0.00000
  50        4PZ         0.05919   0.00000  -0.08261   0.01018   0.00000
  51        5PX         0.00000  -0.02707   0.00000   0.00000  -0.02272
  52        5PY         0.03712   0.00000  -0.11633   0.06714   0.00000
  53        5PZ         0.03107   0.00000  -0.05322  -0.00118   0.00000
                          16        17        18        19        20
  16        5PY         0.23456
  17        5PZ        -0.00039   0.28114
  18 3   F  1S          0.00104  -0.00148   2.12802
  19        2S         -0.00506   0.00284  -0.27614   0.61846
  20        3S         -0.00258   0.00927  -0.28577   0.60681   0.62145
  21        4PX         0.03353   0.02547   0.01583  -0.06335   0.00000
  22        4PY         0.05915  -0.01356   0.00000   0.00000   0.00000
  23        4PZ        -0.02377  -0.01193   0.00287  -0.00814  -0.01264
  24        5PX         0.01984   0.01543   0.00079  -0.02267   0.02087
  25        5PY         0.02738  -0.01207   0.00000   0.00000   0.00000
  26        5PZ        -0.01543  -0.00763  -0.00008  -0.00195  -0.00212
  27 4   F  1S          0.00104  -0.00148   0.00009   0.00139  -0.00302
  28        2S         -0.00506   0.00284   0.00139  -0.00728   0.00183
  29        3S         -0.00258   0.00927  -0.00302   0.00183   0.02179
  30        4PX        -0.03353  -0.02547   0.01119  -0.01936  -0.05104
  31        4PY         0.05915  -0.01356   0.00000   0.00000   0.00000
  32        4PZ        -0.02377  -0.01193  -0.00591   0.00217   0.05919
  33        5PX        -0.01984  -0.01543   0.00837  -0.01407  -0.03712
  34        5PY         0.02738  -0.01207   0.00000   0.00000   0.00000
  35        5PZ        -0.01543  -0.00763  -0.00341   0.00208   0.03107
  36 5   F  1S         -0.00365  -0.00302   0.00036  -0.00092  -0.00292
  37        2S         -0.00031   0.00695  -0.00115   0.00278   0.00691
  38        3S          0.03313   0.01615  -0.00241   0.00511   0.01544
  39        4PX         0.00000   0.00000  -0.00933   0.01927   0.04446
  40        4PY         0.04941  -0.00360   0.00000   0.00000   0.00000
  41        4PZ         0.09158   0.04198   0.00466  -0.00074  -0.03568
  42        5PX         0.00000   0.00000  -0.00361   0.00791   0.01721
  43        5PY         0.02016  -0.01942   0.00000   0.00000   0.00000
  44        5PZ         0.05993   0.02181   0.00223  -0.00031  -0.01432
  45 6   F  1S          0.00837  -0.00341   0.00067  -0.00143  -0.00391
  46        2S         -0.01407   0.00208  -0.00143   0.00317   0.00732
  47        3S         -0.03712   0.03107  -0.00391   0.00732   0.02238
  48        4PX         0.00000   0.00000  -0.00812   0.01004   0.06067
  49        4PY        -0.11633   0.05322  -0.00025   0.00709  -0.00865
  50        4PZ        -0.06714  -0.00118  -0.00273   0.00524   0.01689
  51        5PX         0.00000   0.00000  -0.00387   0.00528   0.02888
  52        5PY        -0.07811   0.03992  -0.00104   0.00506   0.00258
  53        5PZ        -0.03992  -0.00379  -0.00148   0.00284   0.00927
                          21        22        23        24        25
  21        4PX         0.85378
  22        4PY         0.00000   1.10713
  23        4PZ        -0.02099   0.00000   1.10989
  24        5PX         0.44144   0.00000  -0.01316   0.23456
  25        5PY         0.00000   0.55035   0.00000   0.00000   0.27508
  26        5PZ         0.00184   0.00000   0.55730   0.00039   0.00000
  27 4   F  1S         -0.01119   0.00000  -0.00591  -0.00837   0.00000
  28        2S          0.01936   0.00000   0.00217   0.01407   0.00000
  29        3S          0.05104   0.00000   0.05919   0.03712   0.00000
  30        4PX        -0.16784   0.00000  -0.08261  -0.11633   0.00000
  31        4PY         0.00000  -0.02004   0.00000   0.00000  -0.02707
  32        4PZ         0.08261   0.00000   0.01018   0.06714   0.00000
  33        5PX        -0.11633   0.00000  -0.06714  -0.07811   0.00000
  34        5PY         0.00000  -0.02707   0.00000   0.00000  -0.02272
  35        5PZ         0.05322   0.00000  -0.00118   0.03992   0.00000
  36 5   F  1S          0.00828   0.00000  -0.00888   0.00365   0.00000
  37        2S         -0.00163   0.00000   0.01932   0.00031   0.00000
  38        3S         -0.07609   0.00000   0.04395  -0.03313   0.00000
  39        4PX         0.09137   0.00000  -0.04360   0.04941   0.00000
  40        4PY         0.00000  -0.03342   0.00000   0.00000  -0.02069
  41        4PZ        -0.13857   0.00000   0.08746  -0.09158   0.00000
  42        5PX         0.03913   0.00000   0.01387   0.02016   0.00000
  43        5PY         0.00000  -0.02547   0.00000   0.00000  -0.01378
  44        5PZ        -0.10189   0.00000   0.04832  -0.05993   0.00000
  45 6   F  1S         -0.00025  -0.00812  -0.00273  -0.00104  -0.00387
  46        2S          0.00709   0.01004   0.00524   0.00506   0.00528
  47        3S         -0.00865   0.06067   0.01689   0.00258   0.02888
  48        4PX         0.08677  -0.04636   0.01720   0.05915  -0.00016
  49        4PY        -0.04400   0.08677   0.03750  -0.03353   0.04019
  50        4PZ         0.03750   0.01720  -0.01498   0.02377   0.01936
  51        5PX         0.04019  -0.00016   0.01936   0.02738   0.01209
  52        5PY        -0.03353   0.05915   0.02377  -0.01984   0.02738
  53        5PZ         0.02547   0.01356  -0.01193   0.01543   0.01207
                          26        27        28        29        30
  26        5PZ         0.28114
  27 4   F  1S         -0.00341   2.12802
  28        2S          0.00208  -0.27614   0.61846
  29        3S          0.03107  -0.28577   0.60681   0.62145
  30        4PX        -0.05322  -0.01583   0.06335   0.00000   0.85378
  31        4PY         0.00000   0.00000   0.00000   0.00000   0.00000
  32        4PZ        -0.00118   0.00287  -0.00814  -0.01264   0.02099
  33        5PX        -0.03992  -0.00079   0.02267  -0.02087   0.44144
  34        5PY         0.00000   0.00000   0.00000   0.00000   0.00000
  35        5PZ        -0.00379  -0.00008  -0.00195  -0.00212  -0.00184
  36 5   F  1S         -0.00302   0.00036  -0.00092  -0.00292  -0.00828
  37        2S          0.00695  -0.00115   0.00278   0.00691   0.00163
  38        3S          0.01615  -0.00241   0.00511   0.01544   0.07609
  39        4PX         0.00360   0.00933  -0.01927  -0.04446   0.09137
  40        4PY         0.00000   0.00000   0.00000   0.00000   0.00000
  41        4PZ         0.04198   0.00466  -0.00074  -0.03568   0.13857
  42        5PX         0.01942   0.00361  -0.00791  -0.01721   0.03913
  43        5PY         0.00000   0.00000   0.00000   0.00000   0.00000
  44        5PZ         0.02181   0.00223  -0.00031  -0.01432   0.10189
  45 6   F  1S         -0.00148   0.00067  -0.00143  -0.00391   0.00025
  46        2S          0.00284  -0.00143   0.00317   0.00732  -0.00709
  47        3S          0.00927  -0.00391   0.00732   0.02238   0.00865
  48        4PX         0.01356   0.00812  -0.01004  -0.06067   0.08677
  49        4PY         0.02547  -0.00025   0.00709  -0.00865   0.04400
  50        4PZ        -0.01193  -0.00273   0.00524   0.01689  -0.03750
  51        5PX         0.01207   0.00387  -0.00528  -0.02888   0.04019
  52        5PY         0.01543  -0.00104   0.00506   0.00258   0.03353
  53        5PZ        -0.00763  -0.00148   0.00284   0.00927  -0.02547
                          31        32        33        34        35
  31        4PY         1.10713
  32        4PZ         0.00000   1.10989
  33        5PX         0.00000   0.01316   0.23456
  34        5PY         0.55035   0.00000   0.00000   0.27508
  35        5PZ         0.00000   0.55730  -0.00039   0.00000   0.28114
  36 5   F  1S          0.00000  -0.00888  -0.00365   0.00000  -0.00302
  37        2S          0.00000   0.01932  -0.00031   0.00000   0.00695
  38        3S          0.00000   0.04395   0.03313   0.00000   0.01615
  39        4PX         0.00000   0.04360   0.04941   0.00000  -0.00360
  40        4PY        -0.03342   0.00000   0.00000  -0.02069   0.00000
  41        4PZ         0.00000   0.08746   0.09158   0.00000   0.04198
  42        5PX         0.00000  -0.01387   0.02016   0.00000  -0.01942
  43        5PY        -0.02547   0.00000   0.00000  -0.01378   0.00000
  44        5PZ         0.00000   0.04832   0.05993   0.00000   0.02181
  45 6   F  1S         -0.00812  -0.00273   0.00104  -0.00387  -0.00148
  46        2S          0.01004   0.00524  -0.00506   0.00528   0.00284
  47        3S          0.06067   0.01689  -0.00258   0.02888   0.00927
  48        4PX         0.04636  -0.01720   0.05915   0.00016  -0.01356
  49        4PY         0.08677   0.03750   0.03353   0.04019   0.02547
  50        4PZ         0.01720  -0.01498  -0.02377   0.01936  -0.01193
  51        5PX         0.00016  -0.01936   0.02738  -0.01209  -0.01207
  52        5PY         0.05915   0.02377   0.01984   0.02738   0.01543
  53        5PZ         0.01356  -0.01193  -0.01543   0.01207  -0.00763
                          36        37        38        39        40
  36 5   F  1S          2.12882
  37        2S         -0.27858   0.62529
  38        3S         -0.28870   0.61390   0.63803
  39        4PX         0.00000   0.00000   0.00000   1.14282
  40        4PY         0.00000   0.00000   0.00000   0.00000   1.14282
  41        4PZ         0.01847  -0.06511  -0.02654   0.00000   0.00000
  42        5PX         0.00000   0.00000   0.00000   0.55116   0.00000
  43        5PY         0.00000   0.00000   0.00000   0.00000   0.55116
  44        5PZ         0.00061  -0.02083   0.01350   0.00000   0.00000
  45 6   F  1S          0.00036  -0.00115  -0.00241   0.00000  -0.00933
  46        2S         -0.00092   0.00278   0.00511   0.00000   0.01927
  47        3S         -0.00292   0.00691   0.01544   0.00000   0.04446
  48        4PX         0.00000   0.00000   0.00000  -0.03342   0.00000
  49        4PY         0.00828  -0.00163  -0.07609   0.00000   0.09137
  50        4PZ        -0.00888   0.01932   0.04395   0.00000  -0.04360
  51        5PX         0.00000   0.00000   0.00000  -0.02069   0.00000
  52        5PY         0.00365   0.00031  -0.03313   0.00000   0.04941
  53        5PZ        -0.00302   0.00695   0.01615   0.00000   0.00360
                          41        42        43        44        45
  41        4PZ         0.79094
  42        5PX         0.00000   0.26824
  43        5PY         0.00000   0.00000   0.26824
  44        5PZ         0.38945   0.00000   0.00000   0.19922
  45 6   F  1S          0.00466   0.00000  -0.00361   0.00223   2.12802
  46        2S         -0.00074   0.00000   0.00791  -0.00031  -0.27614
[...]
    20. LP (   4) F   4                  1.62695    -0.55860  51(r),52(r),53(r),30(r)
                                                    27(r),29(r),28(r),46(r)
    39. RY*(   1) F   4                  0.00199     1.34903   
    40. RY*(   2) F   4                  0.00036     0.81637   
    41. RY*(   3) F   4                  0.00019     0.81337   
    42. RY*(   4) F   4                  0.00006     1.07364   
       -------------------------------
              Total Lewis    9.55047  ( 99.9729%)
        Valence non-Lewis    0.00000  (  0.0000%)
        Rydberg non-Lewis    0.00259  (  0.0271%)
       -------------------------------
            Total unit  3    9.55306  (100.0000%)
           Charge unit  3   -0.55306
   8 Symmetry operations used in ECPInt.
 ECPInt:  NShTT=     435 NPrTT=    3463 LenC2=     436 LenP2D=    3143.
 LDataN:  DoStor=T MaxTD1= 6 Len=  172
 Calling FoFJK, ICntrl=    100127 FMM=F ISym2X=1 I1Cent= 0 IOpClX= 0 NMat=1 NMatS=1 NMatT=0.
 Defaulting to unpruned grid for atomic number  53.
 Full mass-weighted force constant matrix:
 Low frequencies ---   -8.3918    0.0007    0.0009    0.0013    6.4002    6.4002
 Low frequencies ---  149.7537  149.7537  162.6161
 Diagonal vibrational polarizability:
       22.2247692      22.2247692      25.6773429
 Harmonic frequencies (cm**-1), IR intensities (KM/Mole), Raman scattering
 activities (A**4/AMU), depolarization ratios for plane and unpolarized
 incident light, reduced masses (AMU), force constants (mDyne/A),
 and normal coordinates:
                     1                      2                      3
                     E                      E                     B2
 Frequencies --   149.7537               149.7537               162.6161
 Red. masses --    20.2116                20.2116                18.9984
 Frc consts  --     0.2671                 0.2671                 0.2960
 IR Inten    --     6.4758                 6.4758                 0.0000
  Atom  AN      X      Y      Z        X      Y      Z        X      Y      Z
     1  53    -0.11   0.00   0.00     0.00  -0.11   0.00     0.00   0.00   0.00
     2   9     0.65   0.00   0.00     0.00  -0.14   0.08     0.00   0.08   0.49
     3   9    -0.14   0.00  -0.08     0.00   0.65   0.00     0.08   0.00  -0.49
     4   9    -0.14   0.00   0.08     0.00   0.65   0.00    -0.08   0.00  -0.49
     5   9    -0.31   0.00   0.00     0.00  -0.31   0.00     0.00   0.00   0.00
     6   9     0.65   0.00   0.00     0.00  -0.14  -0.08     0.00  -0.08   0.49
                     4                      5                      6
                    B1                     A1                      E
 Frequencies --   214.2841               256.4753               287.0491
 Red. masses --    18.9984                25.0048                20.0585
 Frc consts  --     0.5140                 0.9691                 0.9738
 IR Inten    --     0.0000                57.7166                 9.5685
  Atom  AN      X      Y      Z        X      Y      Z        X      Y      Z
     1  53     0.00   0.00   0.00     0.00   0.00   0.24     0.10   0.00   0.00
     2   9     0.50   0.00   0.00     0.00  -0.14  -0.45    -0.14   0.00   0.00
     3   9     0.00  -0.50   0.00     0.14   0.00  -0.45     0.20   0.00  -0.37
     4   9     0.00   0.50   0.00    -0.14   0.00  -0.45     0.20   0.00   0.37
     5   9     0.00   0.00   0.00     0.00   0.00   0.23    -0.77   0.00   0.00
     6   9    -0.50   0.00   0.00     0.00   0.14  -0.45    -0.14   0.00   0.00
                     7                      8                      9
                     E                     B2                     A1
 Frequencies --   287.0491               516.5755               528.8244
 Red. masses --    20.0585                18.9984                19.0066
 Frc consts  --     0.9738                 2.9870                 3.1317
 IR Inten    --     9.5685                 0.0000                 0.2652
  Atom  AN      X      Y      Z        X      Y      Z        X      Y      Z
     1  53     0.00  -0.10   0.00     0.00   0.00   0.00     0.00   0.00  -0.01
     2   9     0.00  -0.20  -0.37     0.00   0.49  -0.08     0.00  -0.46   0.10
     3   9     0.00   0.14   0.00     0.49   0.00   0.08     0.46   0.00   0.10
     4   9     0.00   0.14   0.00    -0.49   0.00   0.08    -0.46   0.00   0.10
     5   9     0.00   0.77   0.00     0.00   0.00   0.00     0.00   0.00  -0.33
     6   9     0.00  -0.20   0.37     0.00  -0.49  -0.08     0.00   0.46   0.10
                    10                     11                     12
                    A1                      E                      E
 Frequencies --   578.9014               587.6217               587.6217
 Red. masses --    21.6720                24.2381                24.2381
 Frc consts  --     4.2792                 4.9311                 4.9311
 IR Inten    --    25.3953               145.3591               145.3591
  Atom  AN      X      Y      Z        X      Y      Z        X      Y      Z
     1  53     0.00   0.00   0.16     0.00   0.22   0.00     0.22   0.00   0.00
     2   9     0.00   0.15  -0.03     0.00  -0.68   0.11    -0.04   0.00   0.00
     3   9    -0.15   0.00  -0.03     0.00  -0.04   0.00    -0.68   0.00  -0.11
     4   9     0.15   0.00  -0.03     0.00  -0.04   0.00    -0.68   0.00   0.11
     5   9     0.00   0.00  -0.94     0.00  -0.03   0.00    -0.03   0.00   0.00
     6   9     0.00  -0.15  -0.03     0.00  -0.68  -0.11    -0.04   0.00   0.00

 -------------------
 - Thermochemistry -
 -------------------
 Temperature   298.150 Kelvin.  Pressure   1.00000 Atm.
 Atom     1 has atomic number 53 and mass 126.90040
 Atom     2 has atomic number  9 and mass  18.99840
 Atom     3 has atomic number  9 and mass  18.99840
 Atom     4 has atomic number  9 and mass  18.99840
 Atom     5 has atomic number  9 and mass  18.99840
 Atom     6 has atomic number  9 and mass  18.99840
 Molecular mass:   221.89242 amu.
 Principal axes and moments of inertia in atomic units:
                           1         2         3
     Eigenvalues --   747.37911 747.379111048.21823
           X           -0.26847   0.96329   0.00000
           Y            0.96329   0.26847   0.00000
           Z            0.00000   0.00000   1.00000
 This molecule is an oblate symmetric top.
 Rotational symmetry number  4.
 Warning -- assumption of classical behavior for rotation
           may cause significant error
 Rotational temperatures (Kelvin)      0.11589     0.11589     0.08263
 Rotational constants (GHZ):           2.41476     2.41476     1.72172
 Zero-point vibrational energy      25758.7 (Joules/Mol)
                                    6.15649 (Kcal/Mol)
 Warning -- explicit consideration of  12 degrees of freedom as
           vibrations may cause significant error
 Vibrational temperatures:    215.46   215.46   233.97   308.31   369.01
          (Kelvin)            413.00   413.00   743.24   760.86   832.91
                              845.46   845.46
 
 Zero-point correction=                           0.009811 (Hartree/Particle)
 Thermal correction to Energy=                    0.017364
 Thermal correction to Enthalpy=                  0.018308
 Thermal correction to Gibbs Free Energy=        -0.021786
 Sum of electronic and zero-point Energies=           -510.423999
 Sum of electronic and thermal Energies=              -510.416446
 Sum of electronic and thermal Enthalpies=            -510.415502
 Sum of electronic and thermal Free Energies=         -510.455595
 
                     E (Thermal)             CV                S
                      KCal/Mol        Cal/Mol-Kelvin    Cal/Mol-Kelvin
 Total                   10.896             24.215             84.384
 Electronic               0.000              0.000              0.000
 Translational            0.889              2.981             42.094
 Rotational               0.889              2.981             25.107
 Vibrational              9.118             18.254             17.183
 Vibration     1          0.618              1.903              2.675
 Vibration     2          0.618              1.903              2.675
 Vibration     3          0.623              1.888              2.519
 Vibration     4          0.644              1.819              2.007
 Vibration     5          0.666              1.752              1.686
 Vibration     6          0.684              1.698              1.491
 Vibration     7          0.684              1.698              1.491
 Vibration     8          0.872              1.213              0.618
 Vibration     9          0.884              1.186              0.590
 Vibration    10          0.935              1.077              0.487
 Vibration    11          0.945              1.058              0.471
 Vibration    12          0.945              1.058              0.471
                       Q            Log10(Q)             Ln(Q)
 Total Bot       0.104881D+11         10.020697         23.073506
 Total V=0       0.341529D+15         14.533428         33.464455
 Vib (Bot)       0.117889D-02         -2.928526         -6.743179
 Vib (Bot)    1  0.135411D+01          0.131655          0.303147
 Vib (Bot)    2  0.135411D+01          0.131655          0.303147
 Vib (Bot)    3  0.124220D+01          0.094192          0.216884
 Vib (Bot)    4  0.925278D+00         -0.033728         -0.077662
 Vib (Bot)    5  0.758617D+00         -0.119977         -0.276258
 Vib (Bot)    6  0.667272D+00         -0.175697         -0.404558
 Vib (Bot)    7  0.667272D+00         -0.175697         -0.404558
 Vib (Bot)    8  0.313449D+00         -0.503833         -1.160118
 Vib (Bot)    9  0.302755D+00         -0.518909         -1.194833
 Vib (Bot)   10  0.263516D+00         -0.579193         -1.333641
 Vib (Bot)   11  0.257338D+00         -0.589496         -1.357365
 Vib (Bot)   12  0.257338D+00         -0.589496         -1.357365
 Vib (V=0)       0.383889D+02          1.584206          3.647769
 Vib (V=0)    1  0.194348D+01          0.288579          0.664478
 Vib (V=0)    2  0.194348D+01          0.288579          0.664478
 Vib (V=0)    3  0.183905D+01          0.264594          0.609250
 Vib (V=0)    4  0.155173D+01          0.190816          0.439371
 Vib (V=0)    5  0.140857D+01          0.148778          0.342575
 Vib (V=0)    6  0.133382D+01          0.125096          0.288045
 Vib (V=0)    7  0.133382D+01          0.125096          0.288045
 Vib (V=0)    8  0.109013D+01          0.037477          0.086295
 Vib (V=0)    9  0.108452D+01          0.035236          0.081135
 Vib (V=0)   10  0.106519D+01          0.027427          0.063154
 Vib (V=0)   11  0.106234D+01          0.026262          0.060471
 Vib (V=0)   12  0.106234D+01          0.026262          0.060471
 Electronic      0.100000D+01          0.000000          0.000000
 Translational   0.129918D+09          8.113669         18.682413
 Rotational      0.684783D+05          4.835553         11.134273
 ***** Axes restored to original set *****
 -------------------------------------------------------------------
 Center     Atomic                   Forces (Hartrees/Bohr)
 Number     Number              X              Y              Z
 -------------------------------------------------------------------
      1       53           0.000092618   -0.000670492    0.000094402
      2        9          -0.000011863    0.000085881    0.000155266
      3        9           0.000155464    0.000085881   -0.000008898
      4        9          -0.000172924    0.000040520   -0.000008898
      5        9          -0.000057697    0.000417690   -0.000058809
      6        9          -0.000005597    0.000040520   -0.000173063
 -------------------------------------------------------------------
 Cartesian Forces:  Max     0.000670492 RMS     0.000207471
 -----------------------------------------------------------------------------------------------
                       Internal Coordinate Forces (Hartree/Bohr or radian)
  Cent   Atom   N1       Length/X         N2         Alpha/Y        N3         Beta/Z          J
 -----------------------------------------------------------------------------------------------
      1  I 
      2  F        1   0.000155(     1)
      3  F        1   0.000155(     2)      2   0.000044(     6)
      4  F        1   0.000155(     3)      2   0.000044(     7)      3   0.000322(    10)     0
      5  F        1  -0.000426(     4)      2   0.000325(     8)      4   0.000000(    11)     0
      6  F        1   0.000155(     5)      5   0.000325(     9)      3   0.000000(    12)     0
 -----------------------------------------------------------------------------------------------
 Internal  Forces:  Max     0.000425737 RMS     0.000222992

 GradGradGradGradGradGradGradGradGradGradGradGradGradGradGradGradGradGrad
 Berny optimization.
 Search for a local minimum.
 Step number   1 out of a maximum of    2
 All quantities printed in internal units (Hartrees-Bohrs-Radians)
 Second derivative matrix not updated -- analytic derivatives used.
 The second derivative matrix:
                          B1        B2        B3        B4        B5
           B1           0.19155
           B2           0.00214   0.19155
           B3           0.00214   0.00454   0.19155
           B4           0.00070   0.00070   0.00070   0.20846
           B5           0.00454   0.00214   0.00214   0.00070   0.19155
           A1          -0.01280  -0.01335   0.01061   0.00229   0.01157
           A2          -0.01280  -0.00157  -0.00117   0.00229   0.01157
           A3          -0.00513  -0.00282  -0.00622   0.01672  -0.01489
           A4          -0.01148  -0.00452  -0.00452   0.01672  -0.00854
           D1          -0.00279  -0.00676  -0.01307   0.01656  -0.00616
           D2           0.00000   0.00461  -0.00461   0.00000   0.00000
           D3           0.00000  -0.01218   0.01218   0.00000   0.00000
                          A1        A2        A3        A4        D1
           A1           0.23268
           A2           0.10443   0.22817
           A3          -0.00236  -0.00173   0.29861
           A4          -0.03087  -0.03087   0.06418   0.30637
           D1           0.04761  -0.00698   0.04121   0.05037   0.29478
           D2           0.09209  -0.01777  -0.01036   0.00000   0.23483
           D3           0.11348   0.10896  -0.03102   0.00000   0.02180
                          D2        D3
           D2           0.47966
           D3           0.07430   0.22239
     Eigenvalues ---    0.08784   0.10907   0.12917   0.18488   0.19053
     Eigenvalues ---    0.19130   0.19718   0.20714   0.24628   0.35066
     Eigenvalues ---    0.45343   0.68982
 Angle between quadratic step and forces=  21.29 degrees.
 Linear search not attempted -- first point.
 Variable       Old X    -DE/DX   Delta X   Delta X   Delta X     New X
                                 (Linear)    (Quad)   (Total)
    B1        3.74991   0.00016   0.00000   0.00091   0.00091   3.75082
    B2        3.74991   0.00016   0.00000   0.00091   0.00091   3.75082
    B3        3.74991   0.00016   0.00000   0.00091   0.00091   3.75082
    B4        3.67515  -0.00043   0.00000  -0.00233  -0.00233   3.67282
    B5        3.74991   0.00016   0.00000   0.00091   0.00091   3.75082
    A1        1.55171   0.00004   0.00000   0.00024   0.00024   1.55195
    A2        1.55171   0.00004   0.00000   0.00023   0.00023   1.55195
    A3        1.43222   0.00033   0.00000   0.00086   0.00086   1.43308
    A4        1.43222   0.00033   0.00000   0.00086   0.00086   1.43308
    D1        2.86706   0.00032   0.00000   0.00168   0.00168   2.86874
    D2       -1.43353   0.00000   0.00000  -0.00084  -0.00084  -1.43437
    D3        1.57080   0.00000   0.00000   0.00000   0.00000   1.57080
         Item               Value     Threshold  Converged?
 Maximum Force            0.000426     0.000450     YES
 RMS     Force            0.000223     0.000300     YES
 Maximum Displacement     0.002332     0.001800     NO 
 RMS     Displacement     0.001075     0.001200     YES
 Predicted change in Energy=-1.340622D-06
 GradGradGradGradGradGradGradGradGradGradGradGradGradGradGradGradGradGrad

 1\1\GINC-CX1-14-33-2\Freq\RB3LYP\LANL2DZ\F5I1\SCAN-USER-1\11-Mar-2010\
 1\\# freq rb3lyp/lanl2dz pop=(nbo,full) geom=connectivity int=ultrafin
 e scf=conver=9\\IF5a Frequency\\0,1\I\F,1,B1\F,1,B2,2,A1\F,1,B3,2,A2,3
 ,D1,0\F,1,B4,2,A3,4,D2,0\F,1,B5,5,A4,3,D3,0\\B1=1.98436652\B2=1.984366
 52\B3=1.98436652\B4=1.94480732\B5=1.98436652\A1=88.90666622\A2=88.9066
 6622\A3=82.06009286\A4=82.06009286\D1=164.27050363\D2=-82.13525181\D3=
 90.\\Version=EM64L-G09RevA.02\State=1-A1\HF=-510.4338098\RMSD=1.387e-1
 0\RMSF=2.075e-04\ZeroPoint=0.009811\Thermal=0.0173636\Dipole=-0.212301
 2,1.5369176,-0.2163915\DipoleDeriv=2.8334862,0.0932222,-0.0131253,0.09
 32222,2.1714978,0.0950182,-0.0131253,0.0950182,2.8329852,-0.3496891,0.
 0104461,-0.0118824,0.0104461,-0.423869,0.0860204,0.0172414,-0.1248164,
 -0.8865308,-0.8864376,-0.124993,0.0069978,0.0858054,-0.423869,0.012085
 6,-0.022126,0.0080626,-0.3497823,-0.8626678,0.0014084,-0.0100121,-0.20
 93899,-0.4476388,0.0097359,0.0191117,0.0137589,-0.3497823,-0.3845492,0
 .0061867,-0.0008711,0.0061867,-0.4284823,0.0063059,-0.0008711,0.006305
 9,-0.3845824,-0.3501426,0.0137296,0.028893,0.0137296,-0.4476388,-0.209
 1661,-0.0002308,0.0016707,-0.8623074\Polar=44.0678368,2.7202468,24.750
 8441,-0.3829993,2.7726569,44.0532181\PG=C04V [C4(F1I1),2SGV(F2)]\NImag
 =0\\0.45151428,0.01734925,0.32831393,-0.00244270,0.01768351,0.45142104
 ,-0.02469750,0.00009350,-0.00319561,0.01618463,0.00009350,-0.02536148,
 0.02313408,-0.00076822,0.02163991,-0.00128911,0.00933227,-0.19330968,0
 .00030836,-0.00223232,0.19154633,-0.19316273,0.00932878,-0.00450420,0.
 00324386,-0.00070882,0.00207469,0.19147072,0.02312809,-0.02536148,0.00
 053491,-0.00188484,0.00262041,-0.00074492,-0.00221726,0.02163991,-0.00
 641070,0.00027156,-0.02484445,0.00895794,-0.00189871,0.00345441,0.0036
 5362,-0.00081068,0.01626024,-0.17236108,-0.05073017,0.00419051,0.00252
 124,0.00068089,-0.00179505,-0.00353506,0.00189688,-0.00032185,0.177832
 18,-0.06452948,-0.04616314,0.00173595,0.00185691,0.00334303,-0.0012794
 6,-0.00413553,0.00441349,-0.00074434,0.04620770,0.03527845,0.00609702,
 0.00199930,-0.02484445,-0.00810776,-0.00425607,0.00345441,0.00051159,-
 0.00062922,-0.00030611,-0.00329703,-0.00177080,0.01626024,-0.03619855,
 0.02099171,-0.00295554,0.00305867,0.00136794,0.00012799,-0.00165979,-0
 .01665459,0.00220733,-0.00662139,0.01666415,-0.00249066,0.03826772,0.0
 2099171,-0.18526469,0.02139615,0.00136794,-0.00665535,-0.00092658,-0.0
 0095251,-0.00665535,0.00135001,0.00096208,-0.00169374,0.00070106,-0.02
 305179,0.20196286,-0.00295554,0.02139615,-0.03631136,0.00229738,-0.016
 63151,-0.00161522,0.00003794,0.00105035,0.00310324,-0.00032127,0.00100
 073,0.00310324,0.00324559,-0.02349592,0.03839160,-0.02509442,0.0029669
 3,0.00890754,-0.00031090,-0.00066530,0.00057312,0.00364300,-0.00426828
 ,-0.00808635,0.00216411,0.00393625,0.00728685,0.00315335,0.00068257,-0
 .00230411,0.01644487,0.00296693,-0.04616314,-0.06448460,-0.00066530,0.
 00441349,-0.00414898,-0.00131466,0.00334303,0.00183215,0.00098263,0.00
 482191,0.00395572,0.00068257,-0.00169374,0.01668021,-0.00265217,0.0352
 7845,0.00700104,-0.05068279,-0.17211111,-0.00026032,0.00188453,-0.0035
 3026,-0.00177365,0.00059955,0.00233266,0.00154469,0.00105793,0.0023326
 6,-0.00013472,0.00097528,-0.00667150,-0.00637704,0.04616550,0.17764755
 \\-0.00009262,0.00067049,-0.00009440,0.00001186,-0.00008588,-0.0001552
 7,-0.00015546,-0.00008588,0.00000890,0.00017292,-0.00004052,0.00000890
 ,0.00005770,-0.00041769,0.00005881,0.00000560,-0.00004052,0.00017306\\
 \@


 In the beginning there was nothing, which exploded.
 Job cpu time:  0 days  0 hours  0 minutes 30.1 seconds.
 File lengths (MBytes):  RWF=      6 Int=      0 D2E=      0 Chk=      1 Scr=      1
 Normal termination of Gaussian 09 at Thu Mar 11 14:02:59 2010.
