<?xml version="1.0" encoding="UTF-8"?>
<module cmlx:templateRef="gaussian.log" xmlns="http://www.xml-cml.org/schema" xmlns:cmlx="http://www.xml-cml.org/schema/cmlx"> Entering Gaussian System, Link 0=g03 Initial command: /apps/gaussian/g09/g09/l1.exe /home/scan-user-1/run/26145/Gau-32062.inp -scrdir=/home/scan-user-1/run/26145/ Entering Link 1 = /apps/gaussian/g09/g09/l1.exe PID=     32063.  <module cmlx:lineCount="48" cmlx:templateRef="l1.legal"><scalar dataType="xsd:string" dictRef="g:l1.legal">Copyright (c) 1988,1990,1992,1993,1995,1998,2003,2009, Gaussian, Inc.</scalar></module>  <module cmlx:lineCount="18" cmlx:templateRef="l1.citation"><list cmlx:templateRef="citation"><scalar dataType="xsd:string" dictRef="g:l1.citation">Cite this work as:</scalar></list></module> <module cmlx:lineCount="20" cmlx:templateRef="l1.end"><scalar dataType="xsd:string" dictRef="cc:run.date">15-Mar-2010</scalar><scalar dataType="xsd:string" dictRef="cc:program">Gaussian 09</scalar><scalar dataType="xsd:string" dictRef="cc:version">EM64L-G09RevA.02</scalar><scalar dataType="xsd:string" dictRef="cc:program.date">11-Jun-2009</scalar> Will use up to    4 processors via shared memory. %mem=7000MB %NoSave %Chk=chk.chk %rwf=/tmp/pbs.3645588.cx1/rwf<list cmlx:templateRef="control"><scalar dataType="xsd:string" dictRef="g:control">1/38=1,57=2/1</scalar></list><list cmlx:templateRef="control"><scalar dataType="xsd:string" dictRef="g:control">2/12=2,17=6,18=5,40=1/2</scalar></list><list cmlx:templateRef="control"><scalar dataType="xsd:string" dictRef="g:control">3/5=6,6=3,11=2,16=1,25=1,30=1,74=-5,116=1/1,2,3</scalar></list><list cmlx:templateRef="control"><scalar dataType="xsd:string" dictRef="g:control">4//1</scalar></list><list cmlx:templateRef="control"><scalar dataType="xsd:string" dictRef="g:control">5/5=2,38=5/2</scalar></list><list cmlx:templateRef="control"><scalar dataType="xsd:string" dictRef="g:control">6/7=3,28=1/1,7</scalar></list><list cmlx:templateRef="control"><scalar dataType="xsd:string" dictRef="g:control">99/5=1,9=1/99</scalar></list></module><module cmlx:lineCount="3" cmlx:templateRef="l101.title"><scalar dataType="xsd:string" dictRef="cc:title" cmlx:templateRef="title">IF5a Molecular orbital Calculation</scalar></module><module cmlx:lineCount="9" cmlx:templateRef="l101"><list cmlx:templateRef="rest"><scalar dataType="xsd:string" dictRef="x:l101"/></list></module><module cmlx:lineCount="12" cmlx:templateRef="l202.orient"><molecule id="mol.l202.orient" cmlx:templateRef="atom"><atomArray><atom id="a1" elementType="I" x3="0.0" y3="0.0" z3="0.0"><scalar dataType="xsd:integer" dictRef="cc:serial">1</scalar><scalar dataType="xsd:integer" dictRef="g:atomicType">0</scalar><scalar dataType="xsd:integer" dictRef="compchem:atomicNumber">53</scalar></atom><atom id="a2" elementType="F" x3="0.0" y3="0.0" z3="2.121085"><scalar dataType="xsd:integer" dictRef="cc:serial">2</scalar><scalar dataType="xsd:integer" dictRef="g:atomicType">0</scalar><scalar dataType="xsd:integer" dictRef="compchem:atomicNumber">9</scalar></atom><atom id="a3" elementType="F" x3="2.119032" y3="0.0" z3="0.09331"><scalar dataType="xsd:integer" dictRef="cc:serial">3</scalar><scalar dataType="xsd:integer" dictRef="g:atomicType">0</scalar><scalar dataType="xsd:integer" dictRef="compchem:atomicNumber">9</scalar></atom><atom id="a4" elementType="F" x3="-1.940449" y3="-0.851443" z3="0.09331"><scalar dataType="xsd:integer" dictRef="cc:serial">4</scalar><scalar dataType="xsd:integer" dictRef="g:atomicType">0</scalar><scalar dataType="xsd:integer" dictRef="compchem:atomicNumber">9</scalar></atom><atom id="a5" elementType="F" x3="0.426601" y3="-2.033932" z3="0.445799"><scalar dataType="xsd:integer" dictRef="cc:serial">5</scalar><scalar dataType="xsd:integer" dictRef="g:atomicType">0</scalar><scalar dataType="xsd:integer" dictRef="compchem:atomicNumber">9</scalar></atom><atom id="a6" elementType="F" x3="0.178583" y3="-0.851443" z3="-1.934465"><scalar dataType="xsd:integer" dictRef="cc:serial">6</scalar><scalar dataType="xsd:integer" dictRef="g:atomicType">0</scalar><scalar dataType="xsd:integer" dictRef="compchem:atomicNumber">9</scalar></atom></atomArray><formula formalCharge="0" concise="F 5 I 1"><atomArray elementType="F I" count="5.0 1.0"/></formula><bondArray><bond atomRefs2="a1 a2" id="a1_a2" order="S"/><bond atomRefs2="a1 a3" id="a1_a3" order="S"/><bond atomRefs2="a1 a4" id="a1_a4" order="S"/><bond atomRefs2="a1 a5" id="a1_a5" order="S"/><bond atomRefs2="a1 a6" id="a1_a6" order="S"/></bondArray><property dictRef="cml:molmass"><scalar dataType="xsd:double" units="unit:dalton" xmlns:unit="http://www.xml-cml.org/unit/si/">221.89648599999998</scalar></property></molecule></module><module cmlx:lineCount="10" cmlx:templateRef="l202.distmat"><array dataType="xsd:double" size="20" dictRef="cc:distance">0.0 2.121085 0.0 2.121085 2.932945 0.0 2.121085 2.932945 4.147811 0.0 2.125466 2.669354 2.669354 2.669354 0.0 2.121085 4.147811 2.932945 2.932945 2.669354</array></module><module cmlx:lineCount="6" cmlx:templateRef="l202.stoich"><scalar dataType="xsd:string" dictRef="cc:formula" cmlx:templateRef="stoich">F5I</scalar><scalar dataType="xsd:string" dictRef="cc:frameworkgroup" cmlx:templateRef="framework">C4V[C4(FI),2SGV(F2)]</scalar><scalar dataType="xsd:integer" dictRef="cc:degfreedom" cmlx:templateRef="degfreedom">3</scalar><scalar dataType="xsd:string" dictRef="cc:pointgroup">C4V</scalar><scalar dataType="xsd:integer" dictRef="cc:operatorcount">8</scalar><scalar dataType="xsd:string" dictRef="cc:largestabelian">C2V</scalar><scalar dataType="xsd:integer" dictRef="cc:operatorcount">4</scalar><scalar dataType="xsd:string" dictRef="cc:largestconciseabelian">C2V</scalar><scalar dataType="xsd:integer" dictRef="cc:operatorcount">4</scalar></module><module cmlx:lineCount="12" cmlx:templateRef="l202.orient"><molecule id="a6" cmlx:templateRef="atom"><atomArray><atom id="a1" elementType="I" x3="0.0" y3="0.0" z3="0.358621"><scalar dataType="xsd:integer" dictRef="cc:serial">1</scalar><scalar dataType="xsd:integer" dictRef="g:atomicType">0</scalar><scalar dataType="xsd:integer" dictRef="compchem:atomicNumber">53</scalar></atom><atom id="a2" elementType="F" x3="0.0" y3="2.073905" z3="-0.086259"><scalar dataType="xsd:integer" dictRef="cc:serial">2</scalar><scalar dataType="xsd:integer" dictRef="g:atomicType">0</scalar><scalar dataType="xsd:integer" dictRef="compchem:atomicNumber">9</scalar></atom><atom id="a3" elementType="F" x3="-2.073905" y3="0.0" z3="-0.086259"><scalar dataType="xsd:integer" dictRef="cc:serial">3</scalar><scalar dataType="xsd:integer" dictRef="g:atomicType">0</scalar><scalar dataType="xsd:integer" dictRef="compchem:atomicNumber">9</scalar></atom><atom id="a4" elementType="F" x3="2.073905" y3="0.0" z3="-0.086259"><scalar dataType="xsd:integer" dictRef="cc:serial">4</scalar><scalar dataType="xsd:integer" dictRef="g:atomicType">0</scalar><scalar dataType="xsd:integer" dictRef="compchem:atomicNumber">9</scalar></atom><atom id="a5" elementType="F" x3="0.0" y3="0.0" z3="-1.766845"><scalar dataType="xsd:integer" dictRef="cc:serial">5</scalar><scalar dataType="xsd:integer" dictRef="g:atomicType">0</scalar><scalar dataType="xsd:integer" dictRef="compchem:atomicNumber">9</scalar></atom><atom id="a6" elementType="F" x3="0.0" y3="-2.073905" z3="-0.086259"><scalar dataType="xsd:integer" dictRef="cc:serial">6</scalar><scalar dataType="xsd:integer" dictRef="g:atomicType">0</scalar><scalar dataType="xsd:integer" dictRef="compchem:atomicNumber">9</scalar></atom></atomArray><formula formalCharge="0" concise="F 5 I 1"><atomArray elementType="F I" count="5.0 1.0"/></formula><bondArray><bond atomRefs2="a1 a2" id="a1_a2" order="S"/><bond atomRefs2="a1 a3" id="a1_a3" order="S"/><bond atomRefs2="a1 a4" id="a1_a4" order="S"/><bond atomRefs2="a1 a5" id="a1_a5" order="S"/><bond atomRefs2="a1 a6" id="a1_a6" order="S"/></bondArray><property dictRef="cml:molmass"><scalar dataType="xsd:double" units="unit:dalton" xmlns:unit="http://www.xml-cml.org/unit/si/">221.89648599999998</scalar></property></molecule></module><module cmlx:lineCount="1" cmlx:templateRef="l202.rotconst"><array dataType="xsd:double" size="3" dictRef="cc:rotconst" cmlx:templateRef="rotconst">2.1102233 2.1102233 1.5461876</array></module><scalar dataType="xsd:integer" dictRef="g:buffer" cmlx:templateRef="buffer">131072</scalar><scalar dataType="xsd:string" dictRef="g:raffenetti" cmlx:templateRef="raff">Raffenetti</scalar><scalar dataType="xsd:string" dictRef="g:twoe" cmlx:templateRef="twoe">Two-electron</scalar><module cmlx:lineCount="19" cmlx:templateRef="l301.basis"><scalar dataType="xsd:string" dictRef="cc:basis">LANL2DZ</scalar><scalar dataType="xsd:string" dictRef="cc:diffuse">(5D, 7F)</scalar><list cmlx:lineCount="4" cmlx:templateRef="symmadapt"><array dataType="xsd:integer" dictRef="cc:adapted" size="4">23 4 13 13</array><array dataType="xsd:string" dictRef="cc:symm" size="4">A1 A2 B1 B2</array></list><scalar dataType="xsd:integer" dictRef="cc:basiscount">53</scalar><scalar dataType="xsd:integer" dictRef="g:primbasis">137</scalar><scalar dataType="xsd:integer" dictRef="cc:cartesianbasis">53</scalar><scalar dataType="xsd:integer" dictRef="cc:alphae">26</scalar><scalar dataType="xsd:integer" dictRef="cc:betae">26</scalar> Warning!  I  atom    1 may be hypervalent but has no d functions. NAtoms=    6 NActive=    6 NUniq=    3 SFac= 3.00D+00 NAtFMM=   80 NAOKFM=F Big=F</module><module cmlx:lineCount="1" cmlx:templateRef="l302.basis"><list cmlx:templateRef="onee"><scalar dataType="xsd:string" dictRef="g:onee">One-electron integrals</scalar></list></module>   8 Symmetry operations used in ECPInt. ECPInt:  NShTT=     435 NPrTT=    3463 LenC2=     422 LenP2D=    2217. LDataN:  DoStor=T MaxTD1= 4 Len=   56 NBasis=    53 RedAO= T  NBF=    23     4    13    13 NBsUse=    53 1.00D-06 NBFU=    23     4    13    13 Defaulting to unpruned grid for atomic number  53. Harris functional with IExCor=  402 diagonalized for initial guess. ExpMin= 1.05D-01 ExpMax= 1.00D+04 ExpMxC= 3.50D+02 IAcc=1 IRadAn=         1 AccDes= 0.00D+00 HarFok:  IExCor=  402 AccDes= 0.00D+00 IRadAn=         1 IDoV= 1 ScaDFX=  1.000000  1.000000  1.000000  1.000000 Defaulting to unpruned grid for atomic number  53. Defaulting to unpruned grid for atomic number  53. Defaulting to unpruned grid for atomic number  53. Defaulting to unpruned grid for atomic number  53. FoFCou: FMM=F IPFlag=           0 FMFlag=      100000 FMFlg1=           0         NFxFlg=           0 DoJE=T BraDBF=F KetDBF=T FulRan=T         Omega=  0.000000  0.000000  1.000000  0.000000  0.000000 ICntrl=     500 IOpCl=  0         NMat0=    1 NMatS0=    1 NMatT0=    0 NMatD0=    1 NMtDS0=    0 NMtDT0=    0         I1Cent=           4 NGrid=           0. Petite list used in FoFCou. Initial guess orbital symmetries:       Occupied  (E) (E) (A1) (B2) (A1) (A1) (E) (E) (B2) (A1)                 (A1) (E) (E) (A1) (E) (E) (B2) (B1) (E) (E) (B2)                 (A1) (A2) (E) (E) (A1)       Virtual   (A1) (E) (E) (E) (E) (A1) (B1) (E) (E) (A1) (B2)                 (E) (E) (A1) (B2) (E) (E) (A2) (A1) (E) (E) (B2)                 (A1) (A1) (E) (E) (A1) The electronic state of the initial guess is 1-A1. Requested convergence on RMS density matrix=1.00D-08 within 128 cycles. Requested convergence on MAX density matrix=1.00D-06. Requested convergence on             energy=1.00D-06. No special actions if energy rises. Keep R1 ints in memory in canonical form, NReq=1984765. Integral accuracy reduced to 1.0D-05 until final iterations. Defaulting to unpruned grid for atomic number  53. Defaulting to unpruned grid for atomic number  53. Defaulting to unpruned grid for atomic number  53. Defaulting to unpruned grid for atomic number  53. EnCoef did   100 forward-backward iterations EnCoef did   100 forward-backward iterations EnCoef did     8 forward-backward iterations Initial convergence to 1.0D-05 achieved.  Increase integral accuracy. SCF Done:  E(RB3LYP) =  -510.399351472     A.U. after   19 cycles             Convg  =    0.3267D-08             -V/T =  2.0219<module cmlx:lineCount="1384" cmlx:templateRef="l601.popanal"> Orbital symmetries:<module cmlx:lineCount="3" cmlx:templateRef="l4601.occupied"><list cmlx:templateRef="occ"><scalar dataType="xsd:string" dictRef="g:occorbs">(A1) (E) (E) (B2) (A1) (A1) (E) (E) (B2) (A1)</scalar></list><list cmlx:templateRef="occ"><scalar dataType="xsd:string" dictRef="g:occorbs">(A1) (E) (E) (A1) (E) (E) (B1) (B2) (E) (E) (B2)</scalar><scalar dataType="xsd:string" dictRef="g:occorbs">(A1) (A2) (E) (E) (A1)</scalar></list></module><module cmlx:lineCount="3" cmlx:templateRef="l4601.virtual"><list cmlx:templateRef="virt"><scalar dataType="xsd:string" dictRef="g:virtorbs">(A1) (E) (E) (A1) (E) (E) (B1) (E) (E) (A1) (B2)</scalar></list><list cmlx:templateRef="virt"><scalar dataType="xsd:string" dictRef="g:virtorbs">(E) (E) (A1) (B2) (E) (E) (A2) (A1) (E) (E) (B2)</scalar><scalar dataType="xsd:string" dictRef="g:virtorbs">(A1) (A1) (E) (E) (A1)</scalar></list></module><module cmlx:lineCount="1" cmlx:templateRef="l601.state"><scalar dataType="xsd:string" dictRef="g:l601.state">1-A1.</scalar></module><array dataType="xsd:double" size="26" dictRef="g:alphaocc">-24.75213 -24.74759 -24.74759 -24.74759 -24.74759 -1.22342 -1.19252 -1.19252 -1.18121 -1.18074 -0.87581 -0.5782 -0.5782 -0.56295 -0.45968 -0.45968 -0.45741 -0.45555 -0.44042 -0.44042 -0.43914 -0.43861 -0.42846 -0.42274 -0.42274 -0.42004</array><array dataType="xsd:double" size="27" dictRef="g:alphavirt">-0.24158 -0.21522 -0.21522 0.26258 0.28947 0.28947 0.61785 0.6237 0.6237 0.75448 0.776 0.81774 0.81774 0.83143 0.83205 0.90507 0.90507 0.92194 0.93472 1.04799 1.04799 1.26043 1.3463 1.40443 1.60756 1.60756 11.55579</array><module cmlx:lineCount="12" cmlx:templateRef="l601.alphabetaeigen"/><list cmlx:templateRef="popanal"><scalar dataType="xsd:string" dictRef="x:popanal">Molecular Orbital Coefficients:</scalar><scalar dataType="xsd:string" dictRef="x:popanal">1         2         3         4         5</scalar><scalar dataType="xsd:string" dictRef="x:popanal">(A1)--O   (E)--O    (E)--O    (B2)--O   (A1)--O</scalar><scalar dataType="xsd:string" dictRef="x:popanal">Eigenvalues --   -24.75213 -24.74759 -24.74759 -24.74759 -24.74759</scalar><scalar dataType="xsd:string" dictRef="x:popanal">1 1   I  1S         -0.00006   0.00000   0.00000   0.00000  -0.00006</scalar><scalar dataType="xsd:string" dictRef="x:popanal">2        2S          0.00041   0.00000   0.00000   0.00000   0.00063</scalar><scalar dataType="xsd:string" dictRef="x:popanal">3        3PX         0.00000  -0.00001   0.00000   0.00000   0.00000</scalar><scalar dataType="xsd:string" dictRef="x:popanal">4        3PY         0.00000   0.00000   0.00001   0.00000   0.00000</scalar><scalar dataType="xsd:string" dictRef="x:popanal">5        3PZ        -0.00005   0.00000   0.00000   0.00000   0.00001</scalar><scalar dataType="xsd:string" dictRef="x:popanal">6        4PX         0.00000  -0.00080   0.00000   0.00000   0.00000</scalar><scalar dataType="xsd:string" dictRef="x:popanal">7        4PY         0.00000   0.00000   0.00080   0.00000   0.00000</scalar><scalar dataType="xsd:string" dictRef="x:popanal">8        4PZ        -0.00040   0.00000   0.00000   0.00000  -0.00031</scalar><scalar dataType="xsd:string" dictRef="x:popanal">9 2   F  1S         -0.00025   0.00000   0.70647   0.49955   0.49955</scalar><scalar dataType="xsd:string" dictRef="x:popanal">10        2S          0.00003   0.00000   0.00310   0.00205   0.00212</scalar><scalar dataType="xsd:string" dictRef="x:popanal">11        3S         -0.00010   0.00000  -0.00142  -0.00068  -0.00083</scalar><scalar dataType="xsd:string" dictRef="x:popanal">12        4PX         0.00000  -0.00002   0.00000   0.00000   0.00000</scalar><scalar dataType="xsd:string" dictRef="x:popanal">13        4PY         0.00001   0.00000  -0.00047  -0.00031  -0.00032</scalar><scalar dataType="xsd:string" dictRef="x:popanal">14        4PZ         0.00001   0.00000   0.00016   0.00009   0.00009</scalar><scalar dataType="xsd:string" dictRef="x:popanal">15        5PX         0.00000   0.00010   0.00000   0.00000   0.00000</scalar><scalar dataType="xsd:string" dictRef="x:popanal">16        5PY         0.00005   0.00000   0.00041   0.00016   0.00025</scalar><scalar dataType="xsd:string" dictRef="x:popanal">17        5PZ        -0.00001   0.00000  -0.00015  -0.00004  -0.00002</scalar><scalar dataType="xsd:string" dictRef="x:popanal">18 3   F  1S         -0.00025   0.70647   0.00000  -0.49955   0.49955</scalar><scalar dataType="xsd:string" dictRef="x:popanal">19        2S          0.00003   0.00310   0.00000  -0.00205   0.00212</scalar><scalar dataType="xsd:string" dictRef="x:popanal">20        3S         -0.00010  -0.00142   0.00000   0.00068  -0.00083</scalar><scalar dataType="xsd:string" dictRef="x:popanal">21        4PX        -0.00001   0.00047   0.00000  -0.00031   0.00032</scalar><scalar dataType="xsd:string" dictRef="x:popanal">22        4PY         0.00000   0.00000   0.00002   0.00000   0.00000</scalar><scalar dataType="xsd:string" dictRef="x:popanal">23        4PZ         0.00001   0.00016   0.00000  -0.00009   0.00009</scalar><scalar dataType="xsd:string" dictRef="x:popanal">24        5PX        -0.00005  -0.00041   0.00000   0.00016  -0.00025</scalar><scalar dataType="xsd:string" dictRef="x:popanal">25        5PY         0.00000   0.00000  -0.00010   0.00000   0.00000</scalar><scalar dataType="xsd:string" dictRef="x:popanal">26        5PZ        -0.00001  -0.00015   0.00000   0.00004  -0.00002</scalar><scalar dataType="xsd:string" dictRef="x:popanal">27 4   F  1S         -0.00025  -0.70647   0.00000  -0.49955   0.49955</scalar><scalar dataType="xsd:string" dictRef="x:popanal">28        2S          0.00003  -0.00310   0.00000  -0.00205   0.00212</scalar><scalar dataType="xsd:string" dictRef="x:popanal">29        3S         -0.00010   0.00142   0.00000   0.00068  -0.00083</scalar><scalar dataType="xsd:string" dictRef="x:popanal">30        4PX         0.00001   0.00047   0.00000   0.00031  -0.00032</scalar><scalar dataType="xsd:string" dictRef="x:popanal">31        4PY         0.00000   0.00000   0.00002   0.00000   0.00000</scalar><scalar dataType="xsd:string" dictRef="x:popanal">32        4PZ         0.00001  -0.00016   0.00000  -0.00009   0.00009</scalar><scalar dataType="xsd:string" dictRef="x:popanal">33        5PX         0.00005  -0.00041   0.00000  -0.00016   0.00025</scalar><scalar dataType="xsd:string" dictRef="x:popanal">34        5PY         0.00000   0.00000  -0.00010   0.00000   0.00000</scalar><scalar dataType="xsd:string" dictRef="x:popanal">35        5PZ        -0.00001   0.00015   0.00000   0.00004  -0.00002</scalar><scalar dataType="xsd:string" dictRef="x:popanal">36 5   F  1S          0.99910   0.00000   0.00000   0.00000   0.00050</scalar><scalar dataType="xsd:string" dictRef="x:popanal">37        2S          0.00424   0.00000   0.00000   0.00000   0.00008</scalar><scalar dataType="xsd:string" dictRef="x:popanal">38        3S         -0.00167   0.00000   0.00000   0.00000  -0.00022</scalar><scalar dataType="xsd:string" dictRef="x:popanal">39        4PX         0.00000   0.00001   0.00000   0.00000   0.00000</scalar><scalar dataType="xsd:string" dictRef="x:popanal">40        4PY         0.00000   0.00000  -0.00001   0.00000   0.00000</scalar><scalar dataType="xsd:string" dictRef="x:popanal">41        4PZ         0.00065   0.00000   0.00000   0.00000  -0.00001</scalar><scalar dataType="xsd:string" dictRef="x:popanal">42        5PX         0.00000   0.00003   0.00000   0.00000   0.00000</scalar><scalar dataType="xsd:string" dictRef="x:popanal">43        5PY         0.00000   0.00000  -0.00003   0.00000   0.00000</scalar><scalar dataType="xsd:string" dictRef="x:popanal">44        5PZ        -0.00047   0.00000   0.00000   0.00000  -0.00008</scalar><scalar dataType="xsd:string" dictRef="x:popanal">45 6   F  1S         -0.00025   0.00000  -0.70647   0.49955   0.49955</scalar><scalar dataType="xsd:string" dictRef="x:popanal">46        2S          0.00003   0.00000  -0.00310   0.00205   0.00212</scalar><scalar dataType="xsd:string" dictRef="x:popanal">47        3S         -0.00010   0.00000   0.00142  -0.00068  -0.00083</scalar><scalar dataType="xsd:string" dictRef="x:popanal">48        4PX         0.00000  -0.00002   0.00000   0.00000   0.00000</scalar><scalar dataType="xsd:string" dictRef="x:popanal">49        4PY        -0.00001   0.00000  -0.00047   0.00031   0.00032</scalar><scalar dataType="xsd:string" dictRef="x:popanal">50        4PZ         0.00001   0.00000  -0.00016   0.00009   0.00009</scalar><scalar dataType="xsd:string" dictRef="x:popanal">51        5PX         0.00000   0.00010   0.00000   0.00000   0.00000</scalar><scalar dataType="xsd:string" dictRef="x:popanal">52        5PY        -0.00005   0.00000   0.00041  -0.00016  -0.00025</scalar><scalar dataType="xsd:string" dictRef="x:popanal">53        5PZ        -0.00001   0.00000   0.00015  -0.00004  -0.00002</scalar><scalar dataType="xsd:string" dictRef="x:popanal">6         7         8         9        10</scalar><scalar dataType="xsd:string" dictRef="x:popanal">(A1)--O   (E)--O    (E)--O    (B2)--O   (A1)--O</scalar><scalar dataType="xsd:string" dictRef="x:popanal">Eigenvalues --    -1.22342  -1.19252  -1.19252  -1.18121  -1.18074</scalar><scalar dataType="xsd:string" dictRef="x:popanal">1 1   I  1S          0.11519   0.00000   0.00000   0.00000  -0.01491</scalar><scalar dataType="xsd:string" dictRef="x:popanal">2        2S          0.17307   0.00000   0.00000   0.00000  -0.02158</scalar><scalar dataType="xsd:string" dictRef="x:popanal">3        3PX         0.00000   0.00000  -0.07903   0.00000   0.00000</scalar><scalar dataType="xsd:string" dictRef="x:popanal">4        3PY         0.00000   0.07903   0.00000   0.00000   0.00000</scalar><scalar dataType="xsd:string" dictRef="x:popanal">5        3PZ        -0.04641   0.00000   0.00000   0.00000  -0.03807</scalar><scalar dataType="xsd:string" dictRef="x:popanal">6        4PX         0.00000   0.00000  -0.02161   0.00000   0.00000</scalar><scalar dataType="xsd:string" dictRef="x:popanal">7        4PY         0.00000   0.02161   0.00000   0.00000   0.00000</scalar><scalar dataType="xsd:string" dictRef="x:popanal">8        4PZ        -0.02200   0.00000   0.00000   0.00000  -0.00253</scalar><scalar dataType="xsd:string" dictRef="x:popanal">9 2   F  1S         -0.09664  -0.17593   0.00000  -0.12705   0.06805</scalar><scalar dataType="xsd:string" dictRef="x:popanal">10        2S          0.21151   0.38219   0.00000   0.27329  -0.14700</scalar><scalar dataType="xsd:string" dictRef="x:popanal">11        3S          0.18810   0.36203   0.00000   0.27052  -0.14308</scalar><scalar dataType="xsd:string" dictRef="x:popanal">12        4PX         0.00000   0.00000  -0.00248   0.00000   0.00000</scalar><scalar dataType="xsd:string" dictRef="x:popanal">13        4PY        -0.03806  -0.05226   0.00000  -0.03253   0.01737</scalar><scalar dataType="xsd:string" dictRef="x:popanal">14        4PZ         0.00828   0.01568   0.00000   0.01003  -0.00746</scalar><scalar dataType="xsd:string" dictRef="x:popanal">15        5PX         0.00000   0.00000  -0.00039   0.00000   0.00000</scalar><scalar dataType="xsd:string" dictRef="x:popanal">16        5PY        -0.01093  -0.02539   0.00000  -0.02386   0.01165</scalar><scalar dataType="xsd:string" dictRef="x:popanal">17        5PZ         0.00465   0.00759   0.00000   0.00784  -0.00661</scalar><scalar dataType="xsd:string" dictRef="x:popanal">18 3   F  1S         -0.09664   0.00000  -0.17593   0.12705   0.06805</scalar><scalar dataType="xsd:string" dictRef="x:popanal">19        2S          0.21151   0.00000   0.38219  -0.27329  -0.14700</scalar><scalar dataType="xsd:string" dictRef="x:popanal">20        3S          0.18810   0.00000   0.36203  -0.27052  -0.14308</scalar><scalar dataType="xsd:string" dictRef="x:popanal">21        4PX         0.03806   0.00000   0.05226  -0.03253  -0.01737</scalar><scalar dataType="xsd:string" dictRef="x:popanal">22        4PY         0.00000   0.00248   0.00000   0.00000   0.00000</scalar><scalar dataType="xsd:string" dictRef="x:popanal">23        4PZ         0.00828   0.00000   0.01568  -0.01003  -0.00746</scalar><scalar dataType="xsd:string" dictRef="x:popanal">24        5PX         0.01093   0.00000   0.02539  -0.02386  -0.01165</scalar><scalar dataType="xsd:string" dictRef="x:popanal">25        5PY         0.00000   0.00039   0.00000   0.00000   0.00000</scalar><scalar dataType="xsd:string" dictRef="x:popanal">26        5PZ         0.00465   0.00000   0.00759  -0.00784  -0.00661</scalar><scalar dataType="xsd:string" dictRef="x:popanal">27 4   F  1S         -0.09664   0.00000   0.17593   0.12705   0.06805</scalar><scalar dataType="xsd:string" dictRef="x:popanal">28        2S          0.21151   0.00000  -0.38219  -0.27329  -0.14700</scalar><scalar dataType="xsd:string" dictRef="x:popanal">29        3S          0.18810   0.00000  -0.36203  -0.27052  -0.14308</scalar><scalar dataType="xsd:string" dictRef="x:popanal">30        4PX        -0.03806   0.00000   0.05226   0.03253   0.01737</scalar><scalar dataType="xsd:string" dictRef="x:popanal">31        4PY         0.00000   0.00248   0.00000   0.00000   0.00000</scalar><scalar dataType="xsd:string" dictRef="x:popanal">32        4PZ         0.00828   0.00000  -0.01568  -0.01003  -0.00746</scalar><scalar dataType="xsd:string" dictRef="x:popanal">33        5PX        -0.01093   0.00000   0.02539   0.02386   0.01165</scalar><scalar dataType="xsd:string" dictRef="x:popanal">34        5PY         0.00000   0.00039   0.00000   0.00000   0.00000</scalar><scalar dataType="xsd:string" dictRef="x:popanal">35        5PZ         0.00465   0.00000  -0.00759  -0.00784  -0.00661</scalar><scalar dataType="xsd:string" dictRef="x:popanal">36 5   F  1S         -0.12547   0.00000   0.00000   0.00000  -0.21413</scalar><scalar dataType="xsd:string" dictRef="x:popanal">37        2S          0.27698   0.00000   0.00000   0.00000   0.46423</scalar><scalar dataType="xsd:string" dictRef="x:popanal">38        3S          0.23957   0.00000   0.00000   0.00000   0.45011</scalar><scalar dataType="xsd:string" dictRef="x:popanal">39        4PX         0.00000   0.00000  -0.00403   0.00000   0.00000</scalar><scalar dataType="xsd:string" dictRef="x:popanal">40        4PY         0.00000   0.00403   0.00000   0.00000   0.00000</scalar><scalar dataType="xsd:string" dictRef="x:popanal">41        4PZ         0.04949   0.00000   0.00000   0.00000   0.05627</scalar><scalar dataType="xsd:string" dictRef="x:popanal">42        5PX         0.00000   0.00000  -0.00304   0.00000   0.00000</scalar><scalar dataType="xsd:string" dictRef="x:popanal">43        5PY         0.00000   0.00304   0.00000   0.00000   0.00000</scalar><scalar dataType="xsd:string" dictRef="x:popanal">44        5PZ         0.01244   0.00000   0.00000   0.00000   0.03764</scalar><scalar dataType="xsd:string" dictRef="x:popanal">45 6   F  1S         -0.09664   0.17593   0.00000  -0.12705   0.06805</scalar><scalar dataType="xsd:string" dictRef="x:popanal">46        2S          0.21151  -0.38219   0.00000   0.27329  -0.14700</scalar><scalar dataType="xsd:string" dictRef="x:popanal">47        3S          0.18810  -0.36203   0.00000   0.27052  -0.14308</scalar><scalar dataType="xsd:string" dictRef="x:popanal">48        4PX         0.00000   0.00000  -0.00248   0.00000   0.00000</scalar><scalar dataType="xsd:string" dictRef="x:popanal">49        4PY         0.03806  -0.05226   0.00000   0.03253  -0.01737</scalar><scalar dataType="xsd:string" dictRef="x:popanal">50        4PZ         0.00828  -0.01568   0.00000   0.01003  -0.00746</scalar><scalar dataType="xsd:string" dictRef="x:popanal">51        5PX         0.00000   0.00000  -0.00039   0.00000   0.00000</scalar><scalar dataType="xsd:string" dictRef="x:popanal">52        5PY         0.01093  -0.02539   0.00000   0.02386  -0.01165</scalar><scalar dataType="xsd:string" dictRef="x:popanal">53        5PZ         0.00465  -0.00759   0.00000   0.00784  -0.00661</scalar><scalar dataType="xsd:string" dictRef="x:popanal">11        12        13        14        15</scalar><scalar dataType="xsd:string" dictRef="x:popanal">(A1)--O   (E)--O    (E)--O    (A1)--O   (E)--O</scalar><scalar dataType="xsd:string" dictRef="x:popanal">Eigenvalues --    -0.87581  -0.57820  -0.57820  -0.56295  -0.45968</scalar><scalar dataType="xsd:string" dictRef="x:popanal">1 1   I  1S          0.38274   0.00000   0.00000   0.04470   0.00000</scalar><scalar dataType="xsd:string" dictRef="x:popanal">2        2S          0.61977   0.00000   0.00000   0.09822   0.00000</scalar><scalar dataType="xsd:string" dictRef="x:popanal">3        3PX         0.00000   0.00000   0.47781   0.00000   0.00000</scalar><scalar dataType="xsd:string" dictRef="x:popanal">4        3PY         0.00000   0.47781   0.00000   0.00000  -0.03469</scalar><scalar dataType="xsd:string" dictRef="x:popanal">5        3PZ         0.01989   0.00000   0.00000   0.49871   0.00000</scalar><scalar dataType="xsd:string" dictRef="x:popanal">6        4PX         0.00000   0.00000   0.13607   0.00000   0.00000</scalar><scalar dataType="xsd:string" dictRef="x:popanal">7        4PY         0.00000   0.13607   0.00000   0.00000  -0.02751</scalar><scalar dataType="xsd:string" dictRef="x:popanal">8        4PZ        -0.01075   0.00000   0.00000   0.20630   0.00000</scalar><scalar dataType="xsd:string" dictRef="x:popanal">9 2   F  1S          0.05023   0.04502   0.00000  -0.00519  -0.00243</scalar><scalar dataType="xsd:string" dictRef="x:popanal">10        2S         -0.10395  -0.10901   0.00000   0.00993   0.00271</scalar><scalar dataType="xsd:string" dictRef="x:popanal">11        3S         -0.15188  -0.12009   0.00000   0.01964   0.01470</scalar><scalar dataType="xsd:string" dictRef="x:popanal">12        4PX         0.00000   0.00000   0.09782   0.00000   0.00000</scalar><scalar dataType="xsd:string" dictRef="x:popanal">13        4PY        -0.06648  -0.32768   0.00000   0.07110  -0.02815</scalar><scalar dataType="xsd:string" dictRef="x:popanal">14        4PZ         0.01376   0.07922   0.00000   0.11120  -0.39457</scalar><scalar dataType="xsd:string" dictRef="x:popanal">15        5PX         0.00000   0.00000   0.04480   0.00000   0.00000</scalar><scalar dataType="xsd:string" dictRef="x:popanal">16        5PY        -0.00202  -0.15020   0.00000   0.02678  -0.02395</scalar><scalar dataType="xsd:string" dictRef="x:popanal">17        5PZ         0.00416   0.03501   0.00000   0.04701  -0.20647</scalar><scalar dataType="xsd:string" dictRef="x:popanal">18 3   F  1S          0.05023   0.00000  -0.04502  -0.00519   0.00000</scalar><scalar dataType="xsd:string" dictRef="x:popanal">19        2S         -0.10395   0.00000   0.10901   0.00993   0.00000</scalar><scalar dataType="xsd:string" dictRef="x:popanal">20        3S         -0.15188   0.00000   0.12009   0.01964   0.00000</scalar><scalar dataType="xsd:string" dictRef="x:popanal">21        4PX         0.06648   0.00000  -0.32768  -0.07110   0.00000</scalar><scalar dataType="xsd:string" dictRef="x:popanal">22        4PY         0.00000   0.09782   0.00000   0.00000   0.04376</scalar><scalar dataType="xsd:string" dictRef="x:popanal">23        4PZ         0.01376   0.00000  -0.07922   0.11120   0.00000</scalar><scalar dataType="xsd:string" dictRef="x:popanal">24        5PX         0.00202   0.00000  -0.15020  -0.02678   0.00000</scalar><scalar dataType="xsd:string" dictRef="x:popanal">25        5PY         0.00000   0.04480   0.00000   0.00000   0.02857</scalar><scalar dataType="xsd:string" dictRef="x:popanal">26        5PZ         0.00416   0.00000  -0.03501   0.04701   0.00000</scalar><scalar dataType="xsd:string" dictRef="x:popanal">27 4   F  1S          0.05023   0.00000   0.04502  -0.00519   0.00000</scalar><scalar dataType="xsd:string" dictRef="x:popanal">28        2S         -0.10395   0.00000  -0.10901   0.00993   0.00000</scalar><scalar dataType="xsd:string" dictRef="x:popanal">29        3S         -0.15188   0.00000  -0.12009   0.01964   0.00000</scalar><scalar dataType="xsd:string" dictRef="x:popanal">30        4PX        -0.06648   0.00000  -0.32768   0.07110   0.00000</scalar><scalar dataType="xsd:string" dictRef="x:popanal">31        4PY         0.00000   0.09782   0.00000   0.00000   0.04376</scalar><scalar dataType="xsd:string" dictRef="x:popanal">32        4PZ         0.01376   0.00000   0.07922   0.11120   0.00000</scalar><scalar dataType="xsd:string" dictRef="x:popanal">33        5PX        -0.00202   0.00000  -0.15020   0.02678   0.00000</scalar><scalar dataType="xsd:string" dictRef="x:popanal">34        5PY         0.00000   0.04480   0.00000   0.00000   0.02857</scalar><scalar dataType="xsd:string" dictRef="x:popanal">35        5PZ         0.00416   0.00000   0.03501   0.04701   0.00000</scalar><scalar dataType="xsd:string" dictRef="x:popanal">36 5   F  1S          0.04682   0.00000   0.00000  -0.04822   0.00000</scalar><scalar dataType="xsd:string" dictRef="x:popanal">37        2S         -0.09452   0.00000   0.00000   0.11492   0.00000</scalar><scalar dataType="xsd:string" dictRef="x:popanal">38        3S         -0.14859   0.00000   0.00000   0.13849   0.00000</scalar><scalar dataType="xsd:string" dictRef="x:popanal">39        4PX         0.00000   0.00000   0.09935   0.00000   0.00000</scalar><scalar dataType="xsd:string" dictRef="x:popanal">40        4PY         0.00000   0.09935   0.00000   0.00000   0.46912</scalar><scalar dataType="xsd:string" dictRef="x:popanal">41        4PZ         0.06666   0.00000   0.00000  -0.39066   0.00000</scalar><scalar dataType="xsd:string" dictRef="x:popanal">42        5PX         0.00000   0.00000   0.04096   0.00000   0.00000</scalar><scalar dataType="xsd:string" dictRef="x:popanal">43        5PY         0.00000   0.04096   0.00000   0.00000   0.24645</scalar><scalar dataType="xsd:string" dictRef="x:popanal">44        5PZ         0.00024   0.00000   0.00000  -0.17674   0.00000</scalar><scalar dataType="xsd:string" dictRef="x:popanal">45 6   F  1S          0.05023  -0.04502   0.00000  -0.00519   0.00243</scalar><scalar dataType="xsd:string" dictRef="x:popanal">46        2S         -0.10395   0.10901   0.00000   0.00993  -0.00271</scalar><scalar dataType="xsd:string" dictRef="x:popanal">47        3S         -0.15188   0.12009   0.00000   0.01964  -0.01470</scalar><scalar dataType="xsd:string" dictRef="x:popanal">48        4PX         0.00000   0.00000   0.09782   0.00000   0.00000</scalar><scalar dataType="xsd:string" dictRef="x:popanal">49        4PY         0.06648  -0.32768   0.00000  -0.07110  -0.02815</scalar><scalar dataType="xsd:string" dictRef="x:popanal">50        4PZ         0.01376  -0.07922   0.00000   0.11120   0.39457</scalar><scalar dataType="xsd:string" dictRef="x:popanal">51        5PX         0.00000   0.00000   0.04480   0.00000   0.00000</scalar><scalar dataType="xsd:string" dictRef="x:popanal">52        5PY         0.00202  -0.15020   0.00000  -0.02678  -0.02395</scalar><scalar dataType="xsd:string" dictRef="x:popanal">53        5PZ         0.00416  -0.03501   0.00000   0.04701   0.20647</scalar><scalar dataType="xsd:string" dictRef="x:popanal">16        17        18        19        20</scalar><scalar dataType="xsd:string" dictRef="x:popanal">(E)--O    (B1)--O   (B2)--O   (E)--O    (E)--O</scalar><scalar dataType="xsd:string" dictRef="x:popanal">Eigenvalues --    -0.45968  -0.45741  -0.45555  -0.44042  -0.44042</scalar><scalar dataType="xsd:string" dictRef="x:popanal">1 1   I  1S          0.00000   0.00000   0.00000   0.00000   0.00000</scalar><scalar dataType="xsd:string" dictRef="x:popanal">2        2S          0.00000   0.00000   0.00000   0.00000   0.00000</scalar><scalar dataType="xsd:string" dictRef="x:popanal">3        3PX        -0.03469   0.00000   0.00000  -0.04046   0.00000</scalar><scalar dataType="xsd:string" dictRef="x:popanal">4        3PY         0.00000   0.00000   0.00000   0.00000  -0.04046</scalar><scalar dataType="xsd:string" dictRef="x:popanal">5        3PZ         0.00000   0.00000   0.00000   0.00000   0.00000</scalar><scalar dataType="xsd:string" dictRef="x:popanal">6        4PX        -0.02751   0.00000   0.00000   0.08955   0.00000</scalar><scalar dataType="xsd:string" dictRef="x:popanal">7        4PY         0.00000   0.00000   0.00000   0.00000   0.08955</scalar><scalar dataType="xsd:string" dictRef="x:popanal">8        4PZ         0.00000   0.00000   0.00000   0.00000   0.00000</scalar><scalar dataType="xsd:string" dictRef="x:popanal">9 2   F  1S          0.00000   0.00000  -0.01341   0.00000  -0.00154</scalar><scalar dataType="xsd:string" dictRef="x:popanal">10        2S          0.00000   0.00000   0.04389   0.00000   0.01142</scalar><scalar dataType="xsd:string" dictRef="x:popanal">11        3S          0.00000   0.00000   0.00632   0.00000  -0.02524</scalar><scalar dataType="xsd:string" dictRef="x:popanal">12        4PX         0.04376   0.36521   0.00000   0.51225   0.00000</scalar><scalar dataType="xsd:string" dictRef="x:popanal">13        4PY         0.00000   0.00000   0.35123   0.00000   0.15833</scalar><scalar dataType="xsd:string" dictRef="x:popanal">14        4PZ         0.00000   0.00000  -0.11234   0.00000   0.01562</scalar><scalar dataType="xsd:string" dictRef="x:popanal">15        5PX         0.02857   0.19770   0.00000   0.24543   0.00000</scalar><scalar dataType="xsd:string" dictRef="x:popanal">16        5PY         0.00000   0.00000   0.19642   0.00000   0.09043</scalar><scalar dataType="xsd:string" dictRef="x:popanal">17        5PZ         0.00000   0.00000  -0.06240   0.00000   0.00259</scalar><scalar dataType="xsd:string" dictRef="x:popanal">18 3   F  1S          0.00243   0.00000   0.01341   0.00154   0.00000</scalar><scalar dataType="xsd:string" dictRef="x:popanal">19        2S         -0.00271   0.00000  -0.04389  -0.01142   0.00000</scalar><scalar dataType="xsd:string" dictRef="x:popanal">20        3S         -0.01470   0.00000  -0.00632   0.02524   0.00000</scalar><scalar dataType="xsd:string" dictRef="x:popanal">21        4PX        -0.02815   0.00000   0.35123   0.15833   0.00000</scalar><scalar dataType="xsd:string" dictRef="x:popanal">22        4PY         0.00000  -0.36521   0.00000   0.00000   0.51225</scalar><scalar dataType="xsd:string" dictRef="x:popanal">23        4PZ         0.39457   0.00000   0.11234  -0.01562   0.00000</scalar><scalar dataType="xsd:string" dictRef="x:popanal">24        5PX        -0.02395   0.00000   0.19642   0.09043   0.00000</scalar><scalar dataType="xsd:string" dictRef="x:popanal">25        5PY         0.00000  -0.19770   0.00000   0.00000   0.24543</scalar><scalar dataType="xsd:string" dictRef="x:popanal">26        5PZ         0.20647   0.00000   0.06240  -0.00259   0.00000</scalar><scalar dataType="xsd:string" dictRef="x:popanal">27 4   F  1S         -0.00243   0.00000   0.01341  -0.00154   0.00000</scalar><scalar dataType="xsd:string" dictRef="x:popanal">28        2S          0.00271   0.00000  -0.04389   0.01142   0.00000</scalar><scalar dataType="xsd:string" dictRef="x:popanal">29        3S          0.01470   0.00000  -0.00632  -0.02524   0.00000</scalar><scalar dataType="xsd:string" dictRef="x:popanal">30        4PX        -0.02815   0.00000  -0.35123   0.15833   0.00000</scalar><scalar dataType="xsd:string" dictRef="x:popanal">31        4PY         0.00000   0.36521   0.00000   0.00000   0.51225</scalar><scalar dataType="xsd:string" dictRef="x:popanal">32        4PZ        -0.39457   0.00000   0.11234   0.01562   0.00000</scalar><scalar dataType="xsd:string" dictRef="x:popanal">33        5PX        -0.02395   0.00000  -0.19642   0.09043   0.00000</scalar><scalar dataType="xsd:string" dictRef="x:popanal">34        5PY         0.00000   0.19770   0.00000   0.00000   0.24543</scalar><scalar dataType="xsd:string" dictRef="x:popanal">35        5PZ        -0.20647   0.00000   0.06240   0.00259   0.00000</scalar><scalar dataType="xsd:string" dictRef="x:popanal">36 5   F  1S          0.00000   0.00000   0.00000   0.00000   0.00000</scalar><scalar dataType="xsd:string" dictRef="x:popanal">37        2S          0.00000   0.00000   0.00000   0.00000   0.00000</scalar><scalar dataType="xsd:string" dictRef="x:popanal">38        3S          0.00000   0.00000   0.00000   0.00000   0.00000</scalar><scalar dataType="xsd:string" dictRef="x:popanal">39        4PX         0.46912   0.00000   0.00000  -0.05058   0.00000</scalar><scalar dataType="xsd:string" dictRef="x:popanal">40        4PY         0.00000   0.00000   0.00000   0.00000  -0.05058</scalar><scalar dataType="xsd:string" dictRef="x:popanal">41        4PZ         0.00000   0.00000   0.00000   0.00000   0.00000</scalar><scalar dataType="xsd:string" dictRef="x:popanal">42        5PX         0.24645   0.00000   0.00000  -0.03140   0.00000</scalar><scalar dataType="xsd:string" dictRef="x:popanal">43        5PY         0.00000   0.00000   0.00000   0.00000  -0.03140</scalar><scalar dataType="xsd:string" dictRef="x:popanal">44        5PZ         0.00000   0.00000   0.00000   0.00000   0.00000</scalar><scalar dataType="xsd:string" dictRef="x:popanal">45 6   F  1S          0.00000   0.00000  -0.01341   0.00000   0.00154</scalar><scalar dataType="xsd:string" dictRef="x:popanal">46        2S          0.00000   0.00000   0.04389   0.00000  -0.01142</scalar><scalar dataType="xsd:string" dictRef="x:popanal">47        3S          0.00000   0.00000   0.00632   0.00000   0.02524</scalar><scalar dataType="xsd:string" dictRef="x:popanal">48        4PX         0.04376  -0.36521   0.00000   0.51225   0.00000</scalar><scalar dataType="xsd:string" dictRef="x:popanal">49        4PY         0.00000   0.00000  -0.35123   0.00000   0.15833</scalar><scalar dataType="xsd:string" dictRef="x:popanal">50        4PZ         0.00000   0.00000  -0.11234   0.00000  -0.01562</scalar><scalar dataType="xsd:string" dictRef="x:popanal">51        5PX         0.02857  -0.19770   0.00000   0.24543   0.00000</scalar><scalar dataType="xsd:string" dictRef="x:popanal">52        5PY         0.00000   0.00000  -0.19642   0.00000   0.09043</scalar><scalar dataType="xsd:string" dictRef="x:popanal">53        5PZ         0.00000   0.00000  -0.06240   0.00000  -0.00259</scalar><scalar dataType="xsd:string" dictRef="x:popanal">21        22        23        24        25</scalar><scalar dataType="xsd:string" dictRef="x:popanal">(B2)--O   (A1)--O   (A2)--O   (E)--O    (E)--O</scalar><scalar dataType="xsd:string" dictRef="x:popanal">Eigenvalues --    -0.43914  -0.43861  -0.42846  -0.42274  -0.42274</scalar><scalar dataType="xsd:string" dictRef="x:popanal">1 1   I  1S          0.00000   0.01678   0.00000   0.00000   0.00000</scalar><scalar dataType="xsd:string" dictRef="x:popanal">2        2S          0.00000   0.03694   0.00000   0.00000   0.00000</scalar><scalar dataType="xsd:string" dictRef="x:popanal">3        3PX         0.00000   0.00000   0.00000   0.00000  -0.02685</scalar><scalar dataType="xsd:string" dictRef="x:popanal">4        3PY         0.00000   0.00000   0.00000  -0.02685   0.00000</scalar><scalar dataType="xsd:string" dictRef="x:popanal">5        3PZ         0.00000  -0.02183   0.00000   0.00000   0.00000</scalar><scalar dataType="xsd:string" dictRef="x:popanal">6        4PX         0.00000   0.00000   0.00000   0.00000   0.06539</scalar><scalar dataType="xsd:string" dictRef="x:popanal">7        4PY         0.00000   0.00000   0.00000   0.06539   0.00000</scalar><scalar dataType="xsd:string" dictRef="x:popanal">8        4PZ         0.00000   0.09115   0.00000   0.00000   0.00000</scalar><scalar dataType="xsd:string" dictRef="x:popanal">9 2   F  1S          0.00042  -0.00337   0.00000   0.00200   0.00000</scalar><scalar dataType="xsd:string" dictRef="x:popanal">10        2S         -0.00183   0.01070   0.00000  -0.00126   0.00000</scalar><scalar dataType="xsd:string" dictRef="x:popanal">11        3S          0.00041   0.00315   0.00000  -0.02163   0.00000</scalar><scalar dataType="xsd:string" dictRef="x:popanal">12        4PX         0.00000   0.00000   0.38884   0.00000  -0.03230</scalar><scalar dataType="xsd:string" dictRef="x:popanal">13        4PY         0.11798   0.21032   0.00000   0.16504   0.00000</scalar><scalar dataType="xsd:string" dictRef="x:popanal">14        4PZ         0.36224   0.22333   0.00000   0.32841   0.00000</scalar><scalar dataType="xsd:string" dictRef="x:popanal">15        5PX         0.00000   0.00000   0.18354   0.00000  -0.02224</scalar><scalar dataType="xsd:string" dictRef="x:popanal">16        5PY         0.05819   0.10940   0.00000   0.08784   0.00000</scalar><scalar dataType="xsd:string" dictRef="x:popanal">17        5PZ         0.17925   0.10239   0.00000   0.15184   0.00000</scalar><scalar dataType="xsd:string" dictRef="x:popanal">18 3   F  1S         -0.00042  -0.00337   0.00000   0.00000  -0.00200</scalar><scalar dataType="xsd:string" dictRef="x:popanal">19        2S          0.00183   0.01070   0.00000   0.00000   0.00126</scalar><scalar dataType="xsd:string" dictRef="x:popanal">20        3S         -0.00041   0.00315   0.00000   0.00000   0.02163</scalar><scalar dataType="xsd:string" dictRef="x:popanal">21        4PX         0.11798  -0.21032   0.00000   0.00000   0.16504</scalar><scalar dataType="xsd:string" dictRef="x:popanal">22        4PY         0.00000   0.00000   0.38884  -0.03230   0.00000</scalar><scalar dataType="xsd:string" dictRef="x:popanal">23        4PZ        -0.36224   0.22333   0.00000   0.00000  -0.32841</scalar><scalar dataType="xsd:string" dictRef="x:popanal">24        5PX         0.05819  -0.10940   0.00000   0.00000   0.08784</scalar><scalar dataType="xsd:string" dictRef="x:popanal">25        5PY         0.00000   0.00000   0.18354  -0.02224   0.00000</scalar><scalar dataType="xsd:string" dictRef="x:popanal">26        5PZ        -0.17925   0.10239   0.00000   0.00000  -0.15184</scalar><scalar dataType="xsd:string" dictRef="x:popanal">27 4   F  1S         -0.00042  -0.00337   0.00000   0.00000   0.00200</scalar><scalar dataType="xsd:string" dictRef="x:popanal">28        2S          0.00183   0.01070   0.00000   0.00000  -0.00126</scalar><scalar dataType="xsd:string" dictRef="x:popanal">29        3S         -0.00041   0.00315   0.00000   0.00000  -0.02163</scalar><scalar dataType="xsd:string" dictRef="x:popanal">30        4PX        -0.11798   0.21032   0.00000   0.00000   0.16504</scalar><scalar dataType="xsd:string" dictRef="x:popanal">31        4PY         0.00000   0.00000  -0.38884  -0.03230   0.00000</scalar><scalar dataType="xsd:string" dictRef="x:popanal">32        4PZ        -0.36224   0.22333   0.00000   0.00000   0.32841</scalar><scalar dataType="xsd:string" dictRef="x:popanal">33        5PX        -0.05819   0.10940   0.00000   0.00000   0.08784</scalar><scalar dataType="xsd:string" dictRef="x:popanal">34        5PY         0.00000   0.00000  -0.18354  -0.02224   0.00000</scalar><scalar dataType="xsd:string" dictRef="x:popanal">35        5PZ        -0.17925   0.10239   0.00000   0.00000   0.15184</scalar><scalar dataType="xsd:string" dictRef="x:popanal">36 5   F  1S          0.00000   0.00704   0.00000   0.00000   0.00000</scalar><scalar dataType="xsd:string" dictRef="x:popanal">37        2S          0.00000  -0.03033   0.00000   0.00000   0.00000</scalar><scalar dataType="xsd:string" dictRef="x:popanal">38        3S          0.00000   0.02510   0.00000   0.00000   0.00000</scalar><scalar dataType="xsd:string" dictRef="x:popanal">39        4PX         0.00000   0.00000   0.00000   0.00000   0.58644</scalar><scalar dataType="xsd:string" dictRef="x:popanal">40        4PY         0.00000   0.00000   0.00000   0.58644   0.00000</scalar><scalar dataType="xsd:string" dictRef="x:popanal">41        4PZ         0.00000   0.44978   0.00000   0.00000   0.00000</scalar><scalar dataType="xsd:string" dictRef="x:popanal">42        5PX         0.00000   0.00000   0.00000   0.00000   0.26443</scalar><scalar dataType="xsd:string" dictRef="x:popanal">43        5PY         0.00000   0.00000   0.00000   0.26443   0.00000</scalar><scalar dataType="xsd:string" dictRef="x:popanal">44        5PZ         0.00000   0.24694   0.00000   0.00000   0.00000</scalar><scalar dataType="xsd:string" dictRef="x:popanal">45 6   F  1S          0.00042  -0.00337   0.00000  -0.00200   0.00000</scalar><scalar dataType="xsd:string" dictRef="x:popanal">46        2S         -0.00183   0.01070   0.00000   0.00126   0.00000</scalar><scalar dataType="xsd:string" dictRef="x:popanal">47        3S          0.00041   0.00315   0.00000   0.02163   0.00000</scalar><scalar dataType="xsd:string" dictRef="x:popanal">48        4PX         0.00000   0.00000  -0.38884   0.00000  -0.03230</scalar><scalar dataType="xsd:string" dictRef="x:popanal">49        4PY        -0.11798  -0.21032   0.00000   0.16504   0.00000</scalar><scalar dataType="xsd:string" dictRef="x:popanal">50        4PZ         0.36224   0.22333   0.00000  -0.32841   0.00000</scalar><scalar dataType="xsd:string" dictRef="x:popanal">51        5PX         0.00000   0.00000  -0.18354   0.00000  -0.02224</scalar><scalar dataType="xsd:string" dictRef="x:popanal">52        5PY        -0.05819  -0.10940   0.00000   0.08784   0.00000</scalar><scalar dataType="xsd:string" dictRef="x:popanal">53        5PZ         0.17925   0.10239   0.00000  -0.15184   0.00000</scalar><scalar dataType="xsd:string" dictRef="x:popanal">26        27        28        29        30</scalar><scalar dataType="xsd:string" dictRef="x:popanal">(A1)--O   (A1)--V   (E)--V    (E)--V    (A1)--V</scalar><scalar dataType="xsd:string" dictRef="x:popanal">Eigenvalues --    -0.42004  -0.24158  -0.21522  -0.21522   0.26258</scalar><scalar dataType="xsd:string" dictRef="x:popanal">1 1   I  1S         -0.11294  -0.15412   0.00000   0.00000  -0.08267</scalar><scalar dataType="xsd:string" dictRef="x:popanal">2        2S         -0.24275  -0.32204   0.00000   0.00000  -0.17629</scalar><scalar dataType="xsd:string" dictRef="x:popanal">3        3PX         0.00000   0.00000   0.61765   0.00000   0.00000</scalar><scalar dataType="xsd:string" dictRef="x:popanal">4        3PY         0.00000   0.00000   0.00000   0.61765   0.00000</scalar><scalar dataType="xsd:string" dictRef="x:popanal">5        3PZ        -0.19942   0.51127   0.00000   0.00000  -1.24514</scalar><scalar dataType="xsd:string" dictRef="x:popanal">6        4PX         0.00000   0.00000   0.45903   0.00000   0.00000</scalar><scalar dataType="xsd:string" dictRef="x:popanal">7        4PY         0.00000   0.00000   0.00000   0.45903   0.00000</scalar><scalar dataType="xsd:string" dictRef="x:popanal">8        4PZ        -0.07133   0.41565   0.00000   0.00000   1.72549</scalar><scalar dataType="xsd:string" dictRef="x:popanal">9 2   F  1S          0.00511  -0.01024   0.00000   0.02920  -0.00735</scalar><scalar dataType="xsd:string" dictRef="x:popanal">10        2S         -0.02117   0.01757   0.00000  -0.05376   0.00296</scalar><scalar dataType="xsd:string" dictRef="x:popanal">11        3S          0.01424   0.06740   0.00000  -0.18344   0.10891</scalar><scalar dataType="xsd:string" dictRef="x:popanal">12        4PX         0.00000   0.00000  -0.13004   0.00000   0.00000</scalar><scalar dataType="xsd:string" dictRef="x:popanal">13        4PY        -0.23142  -0.20272   0.00000   0.37018   0.00525</scalar><scalar dataType="xsd:string" dictRef="x:popanal">14        4PZ         0.27923  -0.06320   0.00000  -0.13871  -0.07283</scalar><scalar dataType="xsd:string" dictRef="x:popanal">15        5PX         0.00000   0.00000  -0.07935   0.00000   0.00000</scalar><scalar dataType="xsd:string" dictRef="x:popanal">16        5PY        -0.13177  -0.12590   0.00000   0.23818  -0.07711</scalar><scalar dataType="xsd:string" dictRef="x:popanal">17        5PZ         0.14597  -0.04579   0.00000  -0.06941  -0.07093</scalar><scalar dataType="xsd:string" dictRef="x:popanal">18 3   F  1S          0.00511  -0.01024  -0.02920   0.00000  -0.00735</scalar><scalar dataType="xsd:string" dictRef="x:popanal">19        2S         -0.02117   0.01757   0.05376   0.00000   0.00296</scalar><scalar dataType="xsd:string" dictRef="x:popanal">20        3S          0.01424   0.06740   0.18344   0.00000   0.10891</scalar><scalar dataType="xsd:string" dictRef="x:popanal">21        4PX         0.23142   0.20272   0.37018   0.00000  -0.00525</scalar><scalar dataType="xsd:string" dictRef="x:popanal">22        4PY         0.00000   0.00000   0.00000  -0.13004   0.00000</scalar><scalar dataType="xsd:string" dictRef="x:popanal">23        4PZ         0.27923  -0.06320   0.13871   0.00000  -0.07283</scalar><scalar dataType="xsd:string" dictRef="x:popanal">24        5PX         0.13177   0.12590   0.23818   0.00000   0.07711</scalar><scalar dataType="xsd:string" dictRef="x:popanal">25        5PY         0.00000   0.00000   0.00000  -0.07935   0.00000</scalar><scalar dataType="xsd:string" dictRef="x:popanal">26        5PZ         0.14597  -0.04579   0.06941   0.00000  -0.07093</scalar><scalar dataType="xsd:string" dictRef="x:popanal">27 4   F  1S          0.00511  -0.01024   0.02920   0.00000  -0.00735</scalar><scalar dataType="xsd:string" dictRef="x:popanal">28        2S         -0.02117   0.01757  -0.05376   0.00000   0.00296</scalar><scalar dataType="xsd:string" dictRef="x:popanal">29        3S          0.01424   0.06740  -0.18344   0.00000   0.10891</scalar><scalar dataType="xsd:string" dictRef="x:popanal">30        4PX        -0.23142  -0.20272   0.37018   0.00000   0.00525</scalar><scalar dataType="xsd:string" dictRef="x:popanal">31        4PY         0.00000   0.00000   0.00000  -0.13004   0.00000</scalar><scalar dataType="xsd:string" dictRef="x:popanal">32        4PZ         0.27923  -0.06320  -0.13871   0.00000  -0.07283</scalar><scalar dataType="xsd:string" dictRef="x:popanal">33        5PX        -0.13177  -0.12590   0.23818   0.00000  -0.07711</scalar><scalar dataType="xsd:string" dictRef="x:popanal">34        5PY         0.00000   0.00000   0.00000  -0.07935   0.00000</scalar><scalar dataType="xsd:string" dictRef="x:popanal">35        5PZ         0.14597  -0.04579  -0.06941   0.00000  -0.07093</scalar><scalar dataType="xsd:string" dictRef="x:popanal">36 5   F  1S         -0.00212  -0.02716   0.00000   0.00000  -0.02527</scalar><scalar dataType="xsd:string" dictRef="x:popanal">37        2S          0.01523   0.03862   0.00000   0.00000  -0.01202</scalar><scalar dataType="xsd:string" dictRef="x:popanal">38        3S         -0.01748   0.20240   0.00000   0.00000   0.46759</scalar><scalar dataType="xsd:string" dictRef="x:popanal">39        4PX         0.00000   0.00000  -0.09330   0.00000   0.00000</scalar><scalar dataType="xsd:string" dictRef="x:popanal">40        4PY         0.00000   0.00000   0.00000  -0.09330   0.00000</scalar><scalar dataType="xsd:string" dictRef="x:popanal">41        4PZ        -0.08878   0.46355   0.00000   0.00000  -0.17681</scalar><scalar dataType="xsd:string" dictRef="x:popanal">42        5PX         0.00000   0.00000  -0.06982   0.00000   0.00000</scalar><scalar dataType="xsd:string" dictRef="x:popanal">43        5PY         0.00000   0.00000   0.00000  -0.06982   0.00000</scalar><scalar dataType="xsd:string" dictRef="x:popanal">44        5PZ        -0.06430   0.29889   0.00000   0.00000   0.26616</scalar><scalar dataType="xsd:string" dictRef="x:popanal">45 6   F  1S          0.00511  -0.01024   0.00000  -0.02920  -0.00735</scalar><scalar dataType="xsd:string" dictRef="x:popanal">46        2S         -0.02117   0.01757   0.00000   0.05376   0.00296</scalar><scalar dataType="xsd:string" dictRef="x:popanal">47        3S          0.01424   0.06740   0.00000   0.18344   0.10891</scalar><scalar dataType="xsd:string" dictRef="x:popanal">48        4PX         0.00000   0.00000  -0.13004   0.00000   0.00000</scalar><scalar dataType="xsd:string" dictRef="x:popanal">49        4PY         0.23142   0.20272   0.00000   0.37018  -0.00525</scalar><scalar dataType="xsd:string" dictRef="x:popanal">50        4PZ         0.27923  -0.06320   0.00000   0.13871  -0.07283</scalar><scalar dataType="xsd:string" dictRef="x:popanal">51        5PX         0.00000   0.00000  -0.07935   0.00000   0.00000</scalar><scalar dataType="xsd:string" dictRef="x:popanal">52        5PY         0.13177   0.12590   0.00000   0.23818   0.07711</scalar><scalar dataType="xsd:string" dictRef="x:popanal">53        5PZ         0.14597  -0.04579   0.00000   0.06941  -0.07093</scalar><scalar dataType="xsd:string" dictRef="x:popanal">31        32        33        34        35</scalar><scalar dataType="xsd:string" dictRef="x:popanal">(E)--V    (E)--V    (B1)--V   (E)--V    (E)--V</scalar><scalar dataType="xsd:string" dictRef="x:popanal">Eigenvalues --     0.28947   0.28947   0.61785   0.62370   0.62370</scalar><scalar dataType="xsd:string" dictRef="x:popanal">1 1   I  1S          0.00000   0.00000   0.00000   0.00000   0.00000</scalar><scalar dataType="xsd:string" dictRef="x:popanal">2        2S          0.00000   0.00000   0.00000   0.00000   0.00000</scalar><scalar dataType="xsd:string" dictRef="x:popanal">3        3PX         0.00000  -1.21292   0.00000   0.00000  -0.10680</scalar><scalar dataType="xsd:string" dictRef="x:popanal">4        3PY        -1.21292   0.00000   0.00000  -0.10680   0.00000</scalar><scalar dataType="xsd:string" dictRef="x:popanal">5        3PZ         0.00000   0.00000   0.00000   0.00000   0.00000</scalar><scalar dataType="xsd:string" dictRef="x:popanal">6        4PX         0.00000   1.86965   0.00000   0.00000  -0.09377</scalar><scalar dataType="xsd:string" dictRef="x:popanal">7        4PY         1.86965   0.00000   0.00000  -0.09377   0.00000</scalar><scalar dataType="xsd:string" dictRef="x:popanal">8        4PZ         0.00000   0.00000   0.00000   0.00000   0.00000</scalar><scalar dataType="xsd:string" dictRef="x:popanal">9 2   F  1S          0.03410   0.00000   0.00000   0.00548   0.00000</scalar><scalar dataType="xsd:string" dictRef="x:popanal">10        2S         -0.04133   0.00000   0.00000  -0.06027   0.00000</scalar><scalar dataType="xsd:string" dictRef="x:popanal">11        3S         -0.44811   0.00000   0.00000   0.08123   0.00000</scalar><scalar dataType="xsd:string" dictRef="x:popanal">12        4PX         0.00000  -0.10734  -0.43477   0.00000  -0.14133</scalar><scalar dataType="xsd:string" dictRef="x:popanal">13        4PY        -0.15484   0.00000   0.00000   0.17758   0.00000</scalar><scalar dataType="xsd:string" dictRef="x:popanal">14        4PZ        -0.05176   0.00000   0.00000   0.40421   0.00000</scalar><scalar dataType="xsd:string" dictRef="x:popanal">15        5PX         0.00000  -0.07476   0.49724   0.00000   0.17185</scalar><scalar dataType="xsd:string" dictRef="x:popanal">16        5PY         0.25341   0.00000   0.00000  -0.22507   0.00000</scalar><scalar dataType="xsd:string" dictRef="x:popanal">17        5PZ        -0.02095   0.00000   0.00000  -0.44281   0.00000</scalar><scalar dataType="xsd:string" dictRef="x:popanal">18 3   F  1S          0.00000  -0.03410   0.00000   0.00000  -0.00548</scalar><scalar dataType="xsd:string" dictRef="x:popanal">19        2S          0.00000   0.04133   0.00000   0.00000   0.06027</scalar><scalar dataType="xsd:string" dictRef="x:popanal">20        3S          0.00000   0.44811   0.00000   0.00000  -0.08123</scalar><scalar dataType="xsd:string" dictRef="x:popanal">21        4PX         0.00000  -0.15484   0.00000   0.00000   0.17758</scalar><scalar dataType="xsd:string" dictRef="x:popanal">22        4PY        -0.10734   0.00000   0.43477  -0.14133   0.00000</scalar><scalar dataType="xsd:string" dictRef="x:popanal">23        4PZ         0.00000   0.05176   0.00000   0.00000  -0.40421</scalar><scalar dataType="xsd:string" dictRef="x:popanal">24        5PX         0.00000   0.25341   0.00000   0.00000  -0.22507</scalar><scalar dataType="xsd:string" dictRef="x:popanal">25        5PY        -0.07476   0.00000  -0.49724   0.17185   0.00000</scalar><scalar dataType="xsd:string" dictRef="x:popanal">26        5PZ         0.00000   0.02095   0.00000   0.00000   0.44281</scalar><scalar dataType="xsd:string" dictRef="x:popanal">27 4   F  1S          0.00000   0.03410   0.00000   0.00000   0.00548</scalar><scalar dataType="xsd:string" dictRef="x:popanal">28        2S          0.00000  -0.04133   0.00000   0.00000  -0.06027</scalar><scalar dataType="xsd:string" dictRef="x:popanal">29        3S          0.00000  -0.44811   0.00000   0.00000   0.08123</scalar><scalar dataType="xsd:string" dictRef="x:popanal">30        4PX         0.00000  -0.15484   0.00000   0.00000   0.17758</scalar><scalar dataType="xsd:string" dictRef="x:popanal">31        4PY        -0.10734   0.00000  -0.43477  -0.14133   0.00000</scalar><scalar dataType="xsd:string" dictRef="x:popanal">32        4PZ         0.00000  -0.05176   0.00000   0.00000   0.40421</scalar><scalar dataType="xsd:string" dictRef="x:popanal">33        5PX         0.00000   0.25341   0.00000   0.00000  -0.22507</scalar><scalar dataType="xsd:string" dictRef="x:popanal">34        5PY        -0.07476   0.00000   0.49724   0.17185   0.00000</scalar><scalar dataType="xsd:string" dictRef="x:popanal">35        5PZ         0.00000  -0.02095   0.00000   0.00000  -0.44281</scalar><scalar dataType="xsd:string" dictRef="x:popanal">36 5   F  1S          0.00000   0.00000   0.00000   0.00000   0.00000</scalar><scalar dataType="xsd:string" dictRef="x:popanal">37        2S          0.00000   0.00000   0.00000   0.00000   0.00000</scalar><scalar dataType="xsd:string" dictRef="x:popanal">38        3S          0.00000   0.00000   0.00000   0.00000   0.00000</scalar><scalar dataType="xsd:string" dictRef="x:popanal">39        4PX         0.00000  -0.04667   0.00000   0.00000  -0.56394</scalar><scalar dataType="xsd:string" dictRef="x:popanal">40        4PY        -0.04667   0.00000   0.00000  -0.56394   0.00000</scalar><scalar dataType="xsd:string" dictRef="x:popanal">41        4PZ         0.00000   0.00000   0.00000   0.00000   0.00000</scalar><scalar dataType="xsd:string" dictRef="x:popanal">42        5PX         0.00000  -0.11285   0.00000   0.00000   0.63284</scalar><scalar dataType="xsd:string" dictRef="x:popanal">43        5PY        -0.11285   0.00000   0.00000   0.63284   0.00000</scalar><scalar dataType="xsd:string" dictRef="x:popanal">44        5PZ         0.00000   0.00000   0.00000   0.00000   0.00000</scalar><scalar dataType="xsd:string" dictRef="x:popanal">45 6   F  1S         -0.03410   0.00000   0.00000  -0.00548   0.00000</scalar><scalar dataType="xsd:string" dictRef="x:popanal">46        2S          0.04133   0.00000   0.00000   0.06027   0.00000</scalar><scalar dataType="xsd:string" dictRef="x:popanal">47        3S          0.44811   0.00000   0.00000  -0.08123   0.00000</scalar><scalar dataType="xsd:string" dictRef="x:popanal">48        4PX         0.00000  -0.10734   0.43477   0.00000  -0.14133</scalar><scalar dataType="xsd:string" dictRef="x:popanal">49        4PY        -0.15484   0.00000   0.00000   0.17758   0.00000</scalar><scalar dataType="xsd:string" dictRef="x:popanal">50        4PZ         0.05176   0.00000   0.00000  -0.40421   0.00000</scalar><scalar dataType="xsd:string" dictRef="x:popanal">51        5PX         0.00000  -0.07476  -0.49724   0.00000   0.17185</scalar><scalar dataType="xsd:string" dictRef="x:popanal">52        5PY         0.25341   0.00000   0.00000  -0.22507   0.00000</scalar><scalar dataType="xsd:string" dictRef="x:popanal">53        5PZ         0.02095   0.00000   0.00000   0.44281   0.00000</scalar><scalar dataType="xsd:string" dictRef="x:popanal">36        37        38        39        40</scalar><scalar dataType="xsd:string" dictRef="x:popanal">(A1)--V   (B2)--V   (E)--V    (E)--V    (A1)--V</scalar><scalar dataType="xsd:string" dictRef="x:popanal">Eigenvalues --     0.75448   0.77600   0.81774   0.81774   0.83143</scalar><scalar dataType="xsd:string" dictRef="x:popanal">1 1   I  1S         -0.05024   0.00000   0.00000   0.00000   0.17580</scalar><scalar dataType="xsd:string" dictRef="x:popanal">2        2S         -0.11487   0.00000   0.00000   0.00000   0.54135</scalar><scalar dataType="xsd:string" dictRef="x:popanal">3        3PX         0.00000   0.00000  -0.09147   0.00000   0.00000</scalar><scalar dataType="xsd:string" dictRef="x:popanal">4        3PY         0.00000   0.00000   0.00000  -0.09147   0.00000</scalar><scalar dataType="xsd:string" dictRef="x:popanal">5        3PZ         0.09601   0.00000   0.00000   0.00000  -0.19670</scalar><scalar dataType="xsd:string" dictRef="x:popanal">6        4PX         0.00000   0.00000  -0.39936   0.00000   0.00000</scalar><scalar dataType="xsd:string" dictRef="x:popanal">7        4PY         0.00000   0.00000   0.00000  -0.39936   0.00000</scalar><scalar dataType="xsd:string" dictRef="x:popanal">8        4PZ         0.44674   0.00000   0.00000   0.00000  -0.09809</scalar><scalar dataType="xsd:string" dictRef="x:popanal">9 2   F  1S         -0.00540   0.00492   0.00000  -0.02463   0.01148</scalar><scalar dataType="xsd:string" dictRef="x:popanal">10        2S          0.03079  -0.05215   0.00000   0.13517  -0.04536</scalar><scalar dataType="xsd:string" dictRef="x:popanal">11        3S          0.00595   0.05399   0.00000   0.00824  -0.03034</scalar><scalar dataType="xsd:string" dictRef="x:popanal">12        4PX         0.00000   0.00000  -0.52002   0.00000   0.00000</scalar><scalar dataType="xsd:string" dictRef="x:popanal">13        4PY         0.00449   0.17807   0.00000   0.22793  -0.42970</scalar><scalar dataType="xsd:string" dictRef="x:popanal">14        4PZ         0.35342  -0.40249   0.00000  -0.10252   0.04382</scalar><scalar dataType="xsd:string" dictRef="x:popanal">15        5PX         0.00000   0.00000   0.70959   0.00000   0.00000</scalar><scalar dataType="xsd:string" dictRef="x:popanal">16        5PY        -0.03776  -0.22731   0.00000  -0.38509   0.63741</scalar><scalar dataType="xsd:string" dictRef="x:popanal">17        5PZ        -0.46681   0.51013   0.00000   0.15344  -0.06391</scalar><scalar dataType="xsd:string" dictRef="x:popanal">18 3   F  1S         -0.00540  -0.00492   0.02463   0.00000   0.01148</scalar><scalar dataType="xsd:string" dictRef="x:popanal">19        2S          0.03079   0.05215  -0.13517   0.00000  -0.04536</scalar><scalar dataType="xsd:string" dictRef="x:popanal">20        3S          0.00595  -0.05399  -0.00824   0.00000  -0.03034</scalar><scalar dataType="xsd:string" dictRef="x:popanal">21        4PX        -0.00449   0.17807   0.22793   0.00000   0.42970</scalar><scalar dataType="xsd:string" dictRef="x:popanal">22        4PY         0.00000   0.00000   0.00000  -0.52002   0.00000</scalar><scalar dataType="xsd:string" dictRef="x:popanal">23        4PZ         0.35342   0.40249   0.10252   0.00000   0.04382</scalar><scalar dataType="xsd:string" dictRef="x:popanal">24        5PX         0.03776  -0.22731  -0.38509   0.00000  -0.63741</scalar><scalar dataType="xsd:string" dictRef="x:popanal">25        5PY         0.00000   0.00000   0.00000   0.70959   0.00000</scalar><scalar dataType="xsd:string" dictRef="x:popanal">26        5PZ        -0.46681  -0.51013  -0.15344   0.00000  -0.06391</scalar><scalar dataType="xsd:string" dictRef="x:popanal">27 4   F  1S         -0.00540  -0.00492  -0.02463   0.00000   0.01148</scalar><scalar dataType="xsd:string" dictRef="x:popanal">28        2S          0.03079   0.05215   0.13517   0.00000  -0.04536</scalar><scalar dataType="xsd:string" dictRef="x:popanal">29        3S          0.00595  -0.05399   0.00824   0.00000  -0.03034</scalar><scalar dataType="xsd:string" dictRef="x:popanal">30        4PX         0.00449  -0.17807   0.22793   0.00000  -0.42970</scalar><scalar dataType="xsd:string" dictRef="x:popanal">31        4PY         0.00000   0.00000   0.00000  -0.52002   0.00000</scalar><scalar dataType="xsd:string" dictRef="x:popanal">32        4PZ         0.35342   0.40249  -0.10252   0.00000   0.04382</scalar><scalar dataType="xsd:string" dictRef="x:popanal">33        5PX        -0.03776   0.22731  -0.38509   0.00000   0.63741</scalar><scalar dataType="xsd:string" dictRef="x:popanal">34        5PY         0.00000   0.00000   0.00000   0.70959   0.00000</scalar><scalar dataType="xsd:string" dictRef="x:popanal">35        5PZ        -0.46681  -0.51013   0.15344   0.00000  -0.06391</scalar><scalar dataType="xsd:string" dictRef="x:popanal">36 5   F  1S          0.00517   0.00000   0.00000   0.00000   0.00361</scalar><scalar dataType="xsd:string" dictRef="x:popanal">37        2S         -0.12703   0.00000   0.00000   0.00000   0.01227</scalar><scalar dataType="xsd:string" dictRef="x:popanal">38        3S          0.25897   0.00000   0.00000   0.00000  -0.08736</scalar><scalar dataType="xsd:string" dictRef="x:popanal">39        4PX         0.00000   0.00000   0.24490   0.00000   0.00000</scalar><scalar dataType="xsd:string" dictRef="x:popanal">40        4PY         0.00000   0.00000   0.00000   0.24490   0.00000</scalar><scalar dataType="xsd:string" dictRef="x:popanal">41        4PZ        -0.50570   0.00000   0.00000   0.00000   0.04896</scalar><scalar dataType="xsd:string" dictRef="x:popanal">42        5PX         0.00000   0.00000  -0.29321   0.00000   0.00000</scalar><scalar dataType="xsd:string" dictRef="x:popanal">43        5PY         0.00000   0.00000   0.00000  -0.29321   0.00000</scalar><scalar dataType="xsd:string" dictRef="x:popanal">44        5PZ         0.72710   0.00000   0.00000   0.00000  -0.14564</scalar><scalar dataType="xsd:string" dictRef="x:popanal">45 6   F  1S         -0.00540   0.00492   0.00000   0.02463   0.01148</scalar><scalar dataType="xsd:string" dictRef="x:popanal">46        2S          0.03079  -0.05215   0.00000  -0.13517  -0.04536</scalar><scalar dataType="xsd:string" dictRef="x:popanal">47        3S          0.00595   0.05399   0.00000  -0.00824  -0.03034</scalar><scalar dataType="xsd:string" dictRef="x:popanal">48        4PX         0.00000   0.00000  -0.52002   0.00000   0.00000</scalar><scalar dataType="xsd:string" dictRef="x:popanal">49        4PY        -0.00449  -0.17807   0.00000   0.22793   0.42970</scalar><scalar dataType="xsd:string" dictRef="x:popanal">50        4PZ         0.35342  -0.40249   0.00000   0.10252   0.04382</scalar><scalar dataType="xsd:string" dictRef="x:popanal">51        5PX         0.00000   0.00000   0.70959   0.00000   0.00000</scalar><scalar dataType="xsd:string" dictRef="x:popanal">52        5PY         0.03776   0.22731   0.00000  -0.38509  -0.63741</scalar><scalar dataType="xsd:string" dictRef="x:popanal">53        5PZ        -0.46681   0.51013   0.00000  -0.15344  -0.06391</scalar><scalar dataType="xsd:string" dictRef="x:popanal">41        42        43        44        45</scalar><scalar dataType="xsd:string" dictRef="x:popanal">(B2)--V   (E)--V    (E)--V    (A2)--V   (A1)--V</scalar><scalar dataType="xsd:string" dictRef="x:popanal">Eigenvalues --     0.83205   0.90507   0.90507   0.92194   0.93472</scalar><scalar dataType="xsd:string" dictRef="x:popanal">1 1   I  1S          0.00000   0.00000   0.00000   0.00000  -0.04489</scalar><scalar dataType="xsd:string" dictRef="x:popanal">2        2S          0.00000   0.00000   0.00000   0.00000  -0.18051</scalar><scalar dataType="xsd:string" dictRef="x:popanal">3        3PX         0.00000   0.49854   0.00000   0.00000   0.00000</scalar><scalar dataType="xsd:string" dictRef="x:popanal">4        3PY         0.00000   0.00000   0.49854   0.00000   0.00000</scalar><scalar dataType="xsd:string" dictRef="x:popanal">5        3PZ         0.00000   0.00000   0.00000   0.00000   0.54634</scalar><scalar dataType="xsd:string" dictRef="x:popanal">6        4PX         0.00000  -0.08338   0.00000   0.00000   0.00000</scalar><scalar dataType="xsd:string" dictRef="x:popanal">7        4PY         0.00000   0.00000  -0.08338   0.00000   0.00000</scalar><scalar dataType="xsd:string" dictRef="x:popanal">8        4PZ         0.00000   0.00000   0.00000   0.00000  -0.55607</scalar><scalar dataType="xsd:string" dictRef="x:popanal">9 2   F  1S          0.00272   0.00000   0.01278   0.00000   0.00817</scalar><scalar dataType="xsd:string" dictRef="x:popanal">10        2S         -0.01071   0.00000  -0.07684   0.00000  -0.06823</scalar><scalar dataType="xsd:string" dictRef="x:popanal">11        3S         -0.00021   0.00000   0.04886   0.00000   0.04822</scalar><scalar dataType="xsd:string" dictRef="x:popanal">12        4PX         0.00000  -0.18694   0.00000  -0.43757   0.00000</scalar><scalar dataType="xsd:string" dictRef="x:popanal">13        4PY        -0.41496   0.00000  -0.40442   0.00000  -0.05587</scalar><scalar dataType="xsd:string" dictRef="x:popanal">14        4PZ        -0.16454   0.00000   0.34532   0.00000  -0.23395</scalar><scalar dataType="xsd:string" dictRef="x:popanal">15        5PX         0.00000   0.25587   0.00000   0.59880   0.00000</scalar><scalar dataType="xsd:string" dictRef="x:popanal">16        5PY         0.54504   0.00000   0.60800   0.00000   0.08180</scalar><scalar dataType="xsd:string" dictRef="x:popanal">17        5PZ         0.21485   0.00000  -0.49035   0.00000   0.37719</scalar><scalar dataType="xsd:string" dictRef="x:popanal">18 3   F  1S         -0.00272  -0.01278   0.00000   0.00000   0.00817</scalar><scalar dataType="xsd:string" dictRef="x:popanal">19        2S          0.01071   0.07684   0.00000   0.00000  -0.06823</scalar><scalar dataType="xsd:string" dictRef="x:popanal">20        3S          0.00021  -0.04886   0.00000   0.00000   0.04822</scalar><scalar dataType="xsd:string" dictRef="x:popanal">21        4PX        -0.41496  -0.40442   0.00000   0.00000   0.05587</scalar><scalar dataType="xsd:string" dictRef="x:popanal">22        4PY         0.00000   0.00000  -0.18694  -0.43757   0.00000</scalar><scalar dataType="xsd:string" dictRef="x:popanal">23        4PZ         0.16454  -0.34532   0.00000   0.00000  -0.23395</scalar><scalar dataType="xsd:string" dictRef="x:popanal">24        5PX         0.54504   0.60800   0.00000   0.00000  -0.08180</scalar><scalar dataType="xsd:string" dictRef="x:popanal">25        5PY         0.00000   0.00000   0.25587   0.59880   0.00000</scalar><scalar dataType="xsd:string" dictRef="x:popanal">26        5PZ        -0.21485   0.49035   0.00000   0.00000   0.37719</scalar><scalar dataType="xsd:string" dictRef="x:popanal">27 4   F  1S         -0.00272   0.01278   0.00000   0.00000   0.00817</scalar><scalar dataType="xsd:string" dictRef="x:popanal">28        2S          0.01071  -0.07684   0.00000   0.00000  -0.06823</scalar><scalar dataType="xsd:string" dictRef="x:popanal">29        3S          0.00021   0.04886   0.00000   0.00000   0.04822</scalar><scalar dataType="xsd:string" dictRef="x:popanal">30        4PX         0.41496  -0.40442   0.00000   0.00000  -0.05587</scalar><scalar dataType="xsd:string" dictRef="x:popanal">31        4PY         0.00000   0.00000  -0.18694   0.43757   0.00000</scalar><scalar dataType="xsd:string" dictRef="x:popanal">32        4PZ         0.16454   0.34532   0.00000   0.00000  -0.23395</scalar><scalar dataType="xsd:string" dictRef="x:popanal">33        5PX        -0.54504   0.60800   0.00000   0.00000   0.08180</scalar><scalar dataType="xsd:string" dictRef="x:popanal">34        5PY         0.00000   0.00000   0.25587  -0.59880   0.00000</scalar><scalar dataType="xsd:string" dictRef="x:popanal">35        5PZ        -0.21485  -0.49035   0.00000   0.00000   0.37719</scalar><scalar dataType="xsd:string" dictRef="x:popanal">36 5   F  1S          0.00000   0.00000   0.00000   0.00000  -0.03194</scalar><scalar dataType="xsd:string" dictRef="x:popanal">37        2S          0.00000   0.00000   0.00000   0.00000   0.28319</scalar><scalar dataType="xsd:string" dictRef="x:popanal">38        3S          0.00000   0.00000   0.00000   0.00000  -0.33412</scalar><scalar dataType="xsd:string" dictRef="x:popanal">39        4PX         0.00000   0.32099   0.00000   0.00000   0.00000</scalar><scalar dataType="xsd:string" dictRef="x:popanal">40        4PY         0.00000   0.00000   0.32099   0.00000   0.00000</scalar><scalar dataType="xsd:string" dictRef="x:popanal">41        4PZ         0.00000   0.00000   0.00000   0.00000  -0.69154</scalar><scalar dataType="xsd:string" dictRef="x:popanal">42        5PX         0.00000  -0.42889   0.00000   0.00000   0.00000</scalar><scalar dataType="xsd:string" dictRef="x:popanal">43        5PY         0.00000   0.00000  -0.42889   0.00000   0.00000</scalar><scalar dataType="xsd:string" dictRef="x:popanal">44        5PZ         0.00000   0.00000   0.00000   0.00000   0.98336</scalar><scalar dataType="xsd:string" dictRef="x:popanal">45 6   F  1S          0.00272   0.00000  -0.01278   0.00000   0.00817</scalar><scalar dataType="xsd:string" dictRef="x:popanal">46        2S         -0.01071   0.00000   0.07684   0.00000  -0.06823</scalar><scalar dataType="xsd:string" dictRef="x:popanal">47        3S         -0.00021   0.00000  -0.04886   0.00000   0.04822</scalar><scalar dataType="xsd:string" dictRef="x:popanal">48        4PX         0.00000  -0.18694   0.00000   0.43757   0.00000</scalar><scalar dataType="xsd:string" dictRef="x:popanal">49        4PY         0.41496   0.00000  -0.40442   0.00000   0.05587</scalar><scalar dataType="xsd:string" dictRef="x:popanal">50        4PZ        -0.16454   0.00000  -0.34532   0.00000  -0.23395</scalar><scalar dataType="xsd:string" dictRef="x:popanal">51        5PX         0.00000   0.25587   0.00000  -0.59880   0.00000</scalar><scalar dataType="xsd:string" dictRef="x:popanal">52        5PY        -0.54504   0.00000   0.60800   0.00000  -0.08180</scalar><scalar dataType="xsd:string" dictRef="x:popanal">53        5PZ         0.21485   0.00000   0.49035   0.00000   0.37719</scalar><scalar dataType="xsd:string" dictRef="x:popanal">46        47        48        49        50</scalar><scalar dataType="xsd:string" dictRef="x:popanal">(E)--V    (E)--V    (B2)--V   (A1)--V   (A1)--V</scalar><scalar dataType="xsd:string" dictRef="x:popanal">Eigenvalues --     1.04799   1.04799   1.26043   1.34630   1.40443</scalar><scalar dataType="xsd:string" dictRef="x:popanal">1 1   I  1S          0.00000   0.00000   0.00000  -0.16428  -0.18118</scalar><scalar dataType="xsd:string" dictRef="x:popanal">2        2S          0.00000   0.00000   0.00000  -0.22306  -0.24562</scalar><scalar dataType="xsd:string" dictRef="x:popanal">3        3PX         0.00000   0.55038   0.00000   0.00000   0.00000</scalar><scalar dataType="xsd:string" dictRef="x:popanal">4        3PY         0.55038   0.00000   0.00000   0.00000   0.00000</scalar><scalar dataType="xsd:string" dictRef="x:popanal">5        3PZ         0.00000   0.00000   0.00000  -0.07780   0.08206</scalar><scalar dataType="xsd:string" dictRef="x:popanal">6        4PX         0.00000  -0.75794   0.00000   0.00000   0.00000</scalar><scalar dataType="xsd:string" dictRef="x:popanal">7        4PY        -0.75794   0.00000   0.00000   0.00000   0.00000</scalar><scalar dataType="xsd:string" dictRef="x:popanal">8        4PZ         0.00000   0.00000   0.00000   0.25538   0.35084</scalar><scalar dataType="xsd:string" dictRef="x:popanal">9 2   F  1S         -0.00463   0.00000  -0.07936   0.07319   0.01830</scalar><scalar dataType="xsd:string" dictRef="x:popanal">10        2S         -0.01444   0.00000   0.79066  -0.77590  -0.22345</scalar><scalar dataType="xsd:string" dictRef="x:popanal">11        3S          0.17327   0.00000  -0.77648   0.81127   0.27086</scalar><scalar dataType="xsd:string" dictRef="x:popanal">12        4PX         0.00000  -0.21036   0.00000   0.00000   0.00000</scalar><scalar dataType="xsd:string" dictRef="x:popanal">13        4PY        -0.33392   0.00000  -0.01749   0.06191  -0.00273</scalar><scalar dataType="xsd:string" dictRef="x:popanal">14        4PZ        -0.28473   0.00000  -0.02517   0.050
[...]
     2.37    0.35    0.028   3. BD (   1) I   1 - F   5        / 53. BD*(   1) I   1 - F   5            4.94    0.33    0.040   9. LP (   1) I   1                / 30. RY*(   4) I   1                    0.63   11.17    0.075   9. LP (   1) I   1                / 31. RY*(   1) F   2                    1.25    2.11    0.046   9. LP (   1) I   1                / 35. RY*(   1) F   3                    1.25    2.11    0.046   9. LP (   1) I   1                / 43. RY*(   1) F   5                    0.66    2.15    0.034   9. LP (   1) I   1                / 51. BD*(   1) I   1 - F   2            0.75    0.55    0.020   9. LP (   1) I   1                / 52. BD*(   1) I   1 - F   3            0.75    0.55    0.020   9. LP (   1) I   1                / 53. BD*(   1) I   1 - F   5            5.90    0.53    0.057  11. LP (   2) F   2                / 53. BD*(   1) I   1 - F   5            3.59    0.15    0.024  12. LP (   3) F   2                / 52. BD*(   1) I   1 - F   3            6.27    0.16    0.032  14. LP (   2) F   3                / 53. BD*(   1) I   1 - F   5            3.59    0.15    0.024  15. LP (   3) F   3                / 51. BD*(   1) I   1 - F   2            6.27    0.16    0.032  20. LP (   1) F   5                / 51. BD*(   1) I   1 - F   2            0.79    1.07    0.029  20. LP (   1) F   5                / 52. BD*(   1) I   1 - F   3            0.79    1.07    0.029  21. LP (   2) F   5                / 52. BD*(   1) I   1 - F   3            4.07    0.16    0.025  22. LP (   3) F   5                / 51. BD*(   1) I   1 - F   2            4.07    0.16    0.025  51. BD*(   1) I   1 - F   2        / 27. RY*(   1) I   1                    0.94    0.99    0.060  51. BD*(   1) I   1 - F   2        / 30. RY*(   4) I   1                    1.05   10.62    0.208  51. BD*(   1) I   1 - F   2        / 31. RY*(   1) F   2                    0.82    1.56    0.070  52. BD*(   1) I   1 - F   3        / 27. RY*(   1) I   1                    0.94    0.99    0.060  52. BD*(   1) I   1 - F   3        / 30. RY*(   4) I   1                    1.05   10.62    0.208  52. BD*(   1) I   1 - F   3        / 35. RY*(   1) F   3                    0.82    1.56    0.070  53. BD*(   1) I   1 - F   5        / 30. RY*(   4) I   1                    1.22   10.64    0.210  53. BD*(   1) I   1 - F   5        / 43. RY*(   1) F   5                    1.79    1.62    0.099  53. BD*(   1) I   1 - F   5        / 51. BD*(   1) I   1 - F   2           20.68    0.02    0.028  53. BD*(   1) I   1 - F   5        / 52. BD*(   1) I   1 - F   3           20.68    0.02    0.028 from unit  1 to unit  2   1. BD (   1) I   1 - F   2        / 39. RY*(   1) F   4                    0.06    1.90    0.009   2. BD (   1) I   1 - F   3        / 39. RY*(   1) F   4                    0.19    1.90    0.017   3. BD (   1) I   1 - F   5        / 39. RY*(   1) F   4                    0.40    1.91    0.025   9. LP (   1) I   1                / 39. RY*(   1) F   4                    1.27    2.11    0.046   9. LP (   1) I   1                / 42. RY*(   4) F   4                    0.07    1.92    0.010  12. LP (   3) F   2                / 40. RY*(   2) F   4                    0.07    1.25    0.008  21. LP (   2) F   5                / 41. RY*(   3) F   4                    0.07    1.26    0.008  51. BD*(   1) I   1 - F   2        / 39. RY*(   1) F   4                    0.07    1.56    0.021  53. BD*(   1) I   1 - F   5        / 39. RY*(   1) F   4                    0.31    1.58    0.041  53. BD*(   1) I   1 - F   5        / 42. RY*(   4) F   4                    0.07    1.39    0.018 from unit  1 to unit  3   1. BD (   1) I   1 - F   2        / 47. RY*(   1) F   6                    0.19    1.90    0.017   2. BD (   1) I   1 - F   3        / 47. RY*(   1) F   6                    0.06    1.90    0.009   3. BD (   1) I   1 - F   5        / 47. RY*(   1) F   6                    0.40    1.91    0.025   9. LP (   1) I   1                / 47. RY*(   1) F   6                    1.27    2.11    0.046   9. LP (   1) I   1                / 50. RY*(   4) F   6                    0.07    1.92    0.010  15. LP (   3) F   3                / 48. RY*(   2) F   6                    0.07    1.25    0.008  22. LP (   3) F   5                / 49. RY*(   3) F   6                    0.07    1.26    0.008  52. BD*(   1) I   1 - F   3        / 47. RY*(   1) F   6                    0.07    1.56    0.021  53. BD*(   1) I   1 - F   5        / 47. RY*(   1) F   6                    0.31    1.58    0.041  53. BD*(   1) I   1 - F   5        / 50. RY*(   4) F   6                    0.07    1.39    0.018 from unit  2 to unit  1   6. CR (   1) F   4                / 27. RY*(   1) I   1                    0.07   25.26    0.036   6. CR (   1) F   4                / 28. RY*(   2) I   1                    0.07   24.89    0.036   6. CR (   1) F   4                / 52. BD*(   1) I   1 - F   3            1.24   24.27    0.174   6. CR (   1) F   4                / 53. BD*(   1) I   1 - F   5            0.41   24.25    0.101  16. LP (   1) F   4                / 27. RY*(   1) I   1                    0.33    2.01    0.023  16. LP (   1) F   4                / 28. RY*(   2) I   1                    0.46    1.64    0.025  16. LP (   1) F   4                / 29. RY*(   3) I   1                    0.09    1.85    0.012  16. LP (   1) F   4                / 51. BD*(   1) I   1 - F   2            0.18    1.02    0.013  16. LP (   1) F   4                / 52. BD*(   1) I   1 - F   3            8.39    1.02    0.092  16. LP (   1) F   4                / 53. BD*(   1) I   1 - F   5            3.13    1.00    0.057  17. LP (   2) F   4                / 28. RY*(   2) I   1                    0.09    0.80    0.008  17. LP (   2) F   4                / 29. RY*(   3) I   1                    0.10    1.01    0.009  17. LP (   2) F   4                / 44. RY*(   2) F   5                    0.10    1.29    0.010  17. LP (   2) F   4                / 51. BD*(   1) I   1 - F   2            0.15    0.18    0.005  17. LP (   2) F   4                / 52. BD*(   1) I   1 - F   3            4.88    0.18    0.029  17. LP (   2) F   4                / 53. BD*(   1) I   1 - F   5            1.31    0.15    0.014  18. LP (   3) F   4                / 32. RY*(   2) F   2                    0.07    1.25    0.008  18. LP (   3) F   4                / 51. BD*(   1) I   1 - F   2            6.27    0.16    0.032  18. LP (   3) F   4                / 53. BD*(   1) I   1 - F   5            0.33    0.14    0.007  19. LP (   4) F   4                / 27. RY*(   1) I   1                    0.32    1.21    0.020  19. LP (   4) F   4                / 28. RY*(   2) I   1                    0.06    0.84    0.007  19. LP (   4) F   4                / 29. RY*(   3) I   1                    0.59    1.05    0.025  19. LP (   4) F   4                / 30. RY*(   4) I   1                    1.09   10.83    0.110  19. LP (   4) F   4                / 51. BD*(   1) I   1 - F   2            2.56    0.22    0.021  19. LP (   4) F   4                / 52. BD*(   1) I   1 - F   3           78.39    0.22    0.118  19. LP (   4) F   4                / 53. BD*(   1) I   1 - F   5           45.39    0.20    0.085 within unit  2       None above threshold from unit  2 to unit  3  18. LP (   3) F   4                / 48. RY*(   2) F   6                    0.07    1.25    0.008 from unit  3 to unit  1   8. CR (   1) F   6                / 27. RY*(   1) I   1                    0.07   25.26    0.036   8. CR (   1) F   6                / 28. RY*(   2) I   1                    0.07   24.89    0.036   8. CR (   1) F   6                / 51. BD*(   1) I   1 - F   2            1.24   24.27    0.174   8. CR (   1) F   6                / 53. BD*(   1) I   1 - F   5            0.41   24.25    0.101  23. LP (   1) F   6                / 27. RY*(   1) I   1                    0.33    2.01    0.023  23. LP (   1) F   6                / 28. RY*(   2) I   1                    0.46    1.64    0.025  23. LP (   1) F   6                / 29. RY*(   3) I   1                    0.09    1.85    0.012  23. LP (   1) F   6                / 51. BD*(   1) I   1 - F   2            8.39    1.02    0.092  23. LP (   1) F   6                / 52. BD*(   1) I   1 - F   3            0.18    1.02    0.013  23. LP (   1) F   6                / 53. BD*(   1) I   1 - F   5            3.13    1.00    0.057  24. LP (   2) F   6                / 28. RY*(   2) I   1                    0.09    0.80    0.008  24. LP (   2) F   6                / 29. RY*(   3) I   1                    0.10    1.01    0.009  24. LP (   2) F   6                / 45. RY*(   3) F   5                    0.10    1.29    0.010  24. LP (   2) F   6                / 51. BD*(   1) I   1 - F   2            4.88    0.18    0.029  24. LP (   2) F   6                / 52. BD*(   1) I   1 - F   3            0.15    0.18    0.005  24. LP (   2) F   6                / 53. BD*(   1) I   1 - F   5            1.31    0.15    0.014  25. LP (   3) F   6                / 36. RY*(   2) F   3                    0.07    1.25    0.008  25. LP (   3) F   6                / 52. BD*(   1) I   1 - F   3            6.27    0.16    0.032  25. LP (   3) F   6                / 53. BD*(   1) I   1 - F   5            0.33    0.14    0.007  26. LP (   4) F   6                / 27. RY*(   1) I   1                    0.32    1.21    0.020  26. LP (   4) F   6                / 28. RY*(   2) I   1                    0.06    0.84    0.007  26. LP (   4) F   6                / 29. RY*(   3) I   1                    0.59    1.05    0.025  26. LP (   4) F   6                / 30. RY*(   4) I   1                    1.09   10.83    0.110  26. LP (   4) F   6                / 51. BD*(   1) I   1 - F   2           78.39    0.22    0.118  26. LP (   4) F   6                / 52. BD*(   1) I   1 - F   3            2.56    0.22    0.021  26. LP (   4) F   6                / 53. BD*(   1) I   1 - F   5           45.39    0.20    0.085 from unit  3 to unit  2  25. LP (   3) F   6                / 40. RY*(   2) F   4                    0.07    1.25    0.008 within unit  3       None above threshold Natural Bond Orbitals (Summary):                                                            Principal Delocalizations           NBO                        Occupancy    Energy   (geminal,vicinal,remote) ==================================================================================== Molecular unit  1  (F3I)     1. BD (   1) I   1 - F   2          1.98166    -0.61817  51(g),53(g),47(r),39(r)     2. BD (   1) I   1 - F   3          1.98166    -0.61817  52(g),53(g),39(r),47(r)     3. BD (   1) I   1 - F   5          1.95419    -0.62672  53(g),51(g),52(g),39(r)                                                    47(r)     4. CR (   1) F   2                  2.00000   -24.54554        5. CR (   1) F   3                  2.00000   -24.54554        7. CR (   1) F   5                  2.00000   -24.52693        9. LP (   1) I   1                  1.99688    -0.82869  53(g),39(r),47(r),31(v)                                                    35(v),51(g),52(g),43(v)                                                    30(g),42(r),50(r)    10. LP (   1) F   2                  1.99912    -1.29386       11. LP (   2) F   2                  1.96660    -0.45305  53(v)    12. LP (   3) F   2                  1.96223    -0.44034  52(v),40(r)    13. LP (   1) F   3                  1.99912    -1.29386       14. LP (   2) F   3                  1.96660    -0.45305  53(v)    15. LP (   3) F   3                  1.96223    -0.44034  51(v),48(r)    20. LP (   1) F   5                  1.99927    -1.34310  51(v),52(v)    21. LP (   2) F   5                  1.97794    -0.43895  52(v),41(r)    22. LP (   3) F   5                  1.97794    -0.43895  51(v),49(r)    27. RY*(   1) I   1                  0.00407     0.71433       28. RY*(   2) I   1                  0.00367     0.34866       29. RY*(   3) I   1                  0.00331     0.55237       30. RY*(   4) I   1                  0.00036    10.33751       31. RY*(   1) F   2                  0.00154     1.28141       32. RY*(   2) F   2                  0.00026     0.81142       33. RY*(   3) F   2                  0.00014     0.81895       34. RY*(   4) F   2                  0.00001     1.08877       35. RY*(   1) F   3                  0.00154     1.28141       36. RY*(   2) F   3                  0.00026     0.81142       37. RY*(   3) F   3                  0.00014     0.81895       38. RY*(   4) F   3                  0.00001     1.08877       43. RY*(   1) F   5                  0.00229     1.32507       44. RY*(   2) F   5                  0.00036     0.83642       45. RY*(   3) F   5                  0.00036     0.83642       46. RY*(   4) F   5                  0.00000     1.07965       51. BD*(   1) I   1 - F   2          0.40970    -0.27776  52(g),53(g),30(g),27(g)                                                    31(g),39(r)    52. BD*(   1) I   1 - F   3          0.40970    -0.27776  51(g),53(g),30(g),27(g)                                                    35(g),47(r)    53. BD*(   1) I   1 - F   5          0.46884    -0.29885  51(g),52(g),43(g),30(g)                                                    39(r),47(r),42(r),50(r)       -------------------------------              Total Lewis   77.72544  ( 98.3468%)        Valence non-Lewis    1.28824  (  1.6300%)        Rydberg non-Lewis    0.01835  (  0.0232%)       -------------------------------            Total unit  1   79.03203  (100.0000%)           Charge unit  1    0.96797 Molecular unit  2  (F)     6. CR (   1) F   4                  2.00000   -24.54554  52(r),53(r),28(r),27(r)    16. LP (   1) F   4                  1.99912    -1.29387  52(r),53(r),28(r),27(r)                                                    51(r),29(r)    17. LP (   2) F   4                  1.96660    -0.45305  52(r),53(r),51(r),44(r)                                                    29(r),28(r)    18. LP (   3) F   4                  1.96223    -0.44034  51(r),53(r),32(r),48(r)    19. LP (   4) F   4                  1.55413    -0.49596  52(r),53(r),51(r),30(r)                                                    29(r),27(r),28(r)    39. RY*(   1) F   4                  0.00149     1.28334       40. RY*(   2) F   4                  0.00026     0.81142       41. RY*(   3) F   4                  0.00014     0.81905       42. RY*(   4) F   4                  0.00001     1.08707          -------------------------------              Total Lewis    9.48208  ( 99.9800%)        Valence non-Lewis    0.00000  (  0.0000%)        Rydberg non-Lewis    0.00190  (  0.0200%)       -------------------------------            Total unit  2    9.48398  (100.0000%)           Charge unit  2   -0.48398 Molecular unit  3  (F)     8. CR (   1) F   6                  2.00000   -24.54554  51(r),53(r),28(r),27(r)    23. LP (   1) F   6                  1.99912    -1.29387  51(r),53(r),28(r),27(r)                                                    52(r),29(r)    24. LP (   2) F   6                  1.96660    -0.45305  51(r),53(r),52(r),45(r)                                                    29(r),28(r)    25. LP (   3) F   6                  1.96223    -0.44034  52(r),53(r),36(r),40(r)    26. LP (   4) F   6                  1.55413    -0.49596  51(r),53(r),52(r),30(r)                                                    29(r),27(r),28(r)    47. RY*(   1) F   6                  0.00149     1.28334       48. RY*(   2) F   6                  0.00026     0.81142       49. RY*(   3) F   6                  0.00014     0.81905       50. RY*(   4) F   6                  0.00001     1.08707          -------------------------------              Total Lewis    9.48208  ( 99.9800%)        Valence non-Lewis    0.00000  (  0.0000%)        Rydberg non-Lewis    0.00190  (  0.0200%)       -------------------------------            Total unit  3    9.48398  (100.0000%)           Charge unit  3   -0.48398<module cmlx:lineCount="8" cmlx:templateRef="l9999.archive"><scalar dataType="xsd:string" dictRef="cc:hostname">GINC-CX1-7-36-1</scalar><scalar dataType="xsd:string" dictRef="g:operation">SP</scalar><scalar dataType="xsd:string" dictRef="cc:method">RB3LYP</scalar><scalar dataType="xsd:string" dictRef="cc:basis">LANL2DZ</scalar><scalar dataType="xsd:string" dictRef="cc:jobname">SCAN-USER-1</scalar><scalar dataType="xsd:date" dictRef="cc:date">2010-03-15T00:00:00Z</scalar><scalar dataType="xsd:string" dictRef="g:keyword">#</scalar><scalar dataType="xsd:string" dictRef="g:keyword">rb3lyp/lanl2dz</scalar><scalar dataType="xsd:string" dictRef="g:keyword">pop=(nbo,full)</scalar><scalar dataType="xsd:string" dictRef="g:keyword">geom=connectivity</scalar><scalar dataType="xsd:string" dictRef="cc:title">IF5a Molecular orbital Calculation</scalar><molecule id="mol9999"><atomArray><atom id="a1" elementType="I" x3="0.0" y3="0.0" z3="0.0"><scalar dataType="xsd:integer" dictRef="compchem:atomicNumber">53</scalar></atom><atom id="a2" elementType="F" x3="0.0" y3="0.0" z3="0.0"><scalar dataType="xsd:integer" dictRef="compchem:atomicNumber">9</scalar></atom><atom id="a3" elementType="F" x3="0.0" y3="2.11903176" z3="0.0"><scalar dataType="xsd:integer" dictRef="compchem:atomicNumber">9</scalar></atom><atom id="a4" elementType="F" x3="0.0" y3="-1.9404485" z3="-0.85144304"><scalar dataType="xsd:integer" dictRef="compchem:atomicNumber">9</scalar></atom><atom id="a5" elementType="F" x3="0.0" y3="0.42660082" z3="-2.03393242"><scalar dataType="xsd:integer" dictRef="compchem:atomicNumber">9</scalar></atom><atom id="a6" elementType="F" x3="0.0" y3="0.17858327" z3="-0.85144304"><scalar dataType="xsd:integer" dictRef="compchem:atomicNumber">9</scalar></atom></atomArray><formula formalCharge="0" concise="F 5 I 1" dictRef="cc:formula.calc"/><bondArray><bond atomRefs2="a1 a2" id="a1_a2" order="S"/><bond atomRefs2="a1 a3" id="a1_a3" order="S"/><bond atomRefs2="a1 a4" id="a1_a4" order="S"/><bond atomRefs2="a1 a5" id="a1_a5" order="S"/><bond atomRefs2="a1 a6" id="a1_a6" order="S"/><bond atomRefs2="a2 a6" id="a2_a6" order="S"/><bond atomRefs2="a5 a6" id="a5_a6" order="S"/></bondArray><property dictRef="cml:molmass"><scalar dataType="xsd:double" units="unit:dalton" xmlns:unit="http://www.xml-cml.org/unit/si/">221.89648599999998</scalar></property><formula concise="F 5 I 1" dictRef="cc:formula.user"/></molecule><list type="molecule"><scalar dataType="xsd:string">0.</scalar></list><list type="molecule"><scalar dataType="xsd:string">2.12108519</scalar></list><list type="molecule"><scalar dataType="xsd:string">0.09331005</scalar></list><list type="molecule"><scalar dataType="xsd:string">0.09331005</scalar></list><list type="molecule"><scalar dataType="xsd:string">0.44579928</scalar></list><list type="molecule"><scalar dataType="xsd:string">-1.93446508</scalar></list><scalar dataType="xsd:string" dictRef="cc:version">EM64L-G09RevA.02</scalar><scalar dataType="xsd:string" dictRef="cc:electronicstate">1-A1</scalar><scalar dataType="xsd:double" dictRef="cc:hfenergy" units="nonsi:hartree">-510.3993515</scalar><scalar dataType="xsd:double" dictRef="cc:rmsd" units="nonsi:unknown">3.267E-9</scalar><array dataType="xsd:double" size="3" dictRef="cc:dipole" units="nonsi:debye">-0.4233352 2.0183628 -0.4423867</array><scalar dataType="xsd:string" dictRef="x:Quadrupole">-2.409987,4.7894847,-2.3794977,-1.5795163,0.3461999,-1.6505998</scalar><scalar dataType="xsd:string" dictRef="cc:pointgroup">C04V [C4(F1I1),2SGV(F2)]</scalar><scalar dataType="xsd:string" dictRef="g:archive">@</scalar></module> SCIENCE IS LONG AND LIFE IS SHORT.                     DON MOSER IN THE FEBRUARY 1979 SMITHSONIAN<module cmlx:lineCount="3" cmlx:templateRef="jobcpu"><scalar dictRef="cc:jobtime" dataType="xsd:string">PT18.600S</scalar><scalar dataType="xsd:date" dictRef="cc:jobdatetime.end">2010-03-15T11:18:54Z</scalar><scalar dataType="xsd:string" dictRef="cc:program">Gaussian 09</scalar></module></module>
