 Entering Gaussian System, Link 0=g03
 Initial command:
 /apps/gaussian/g09/g09/l1.exe /home/scan-user-1/run/25616/Gau-3599.inp -scrdir=/home/scan-user-1/run/25616/
 Entering Link 1 = /apps/gaussian/g09/g09/l1.exe PID=      3600.
  
 Copyright (c) 1988,1990,1992,1993,1995,1998,2003,2009, Gaussian, Inc.
                  All Rights Reserved.
  
 This is part of the Gaussian(R) 09 program.  It is based on
 the Gaussian(R) 03 system (copyright 2003, Gaussian, Inc.),
 the Gaussian(R) 98 system (copyright 1998, Gaussian, Inc.),
 the Gaussian(R) 94 system (copyright 1995, Gaussian, Inc.),
 the Gaussian 92(TM) system (copyright 1992, Gaussian, Inc.),
 the Gaussian 90(TM) system (copyright 1990, Gaussian, Inc.),
 the Gaussian 88(TM) system (copyright 1988, Gaussian, Inc.),
 the Gaussian 86(TM) system (copyright 1986, Carnegie Mellon
 University), and the Gaussian 82(TM) system (copyright 1983,
 Carnegie Mellon University). Gaussian is a federally registered
 trademark of Gaussian, Inc.
  
 This software contains proprietary and confidential information,
 including trade secrets, belonging to Gaussian, Inc.
  
 This software is provided under written license and may be
 used, copied, transmitted, or stored only in accord with that
 written license.
  
 The following legend is applicable only to US Government
 contracts under FAR:
  
                    RESTRICTED RIGHTS LEGEND
  
 Use, reproduction and disclosure by the US Government is
 subject to restrictions as set forth in subparagraphs (a)
 and (c) of the Commercial Computer Software - Restricted
 Rights clause in FAR 52.227-19.
  
 Gaussian, Inc.
 340 Quinnipiac St., Bldg. 40, Wallingford CT 06492
  
  
 ---------------------------------------------------------------
 Warning -- This program may not be used in any manner that
 competes with the business of Gaussian, Inc. or will provide
 assistance to any competitor of Gaussian, Inc.  The licensee
 of this program is prohibited from giving any competitor of
 Gaussian, Inc. access to this program.  By using this program,
 the user acknowledges that Gaussian, Inc. is engaged in the
 business of creating and licensing software in the field of
 computational chemistry and represents and warrants to the
 licensee that it is not a competitor of Gaussian, Inc. and that
 it will not use this program in any manner prohibited above.
 ---------------------------------------------------------------
  

 Cite this work as:
 Gaussian 09, Revision A.02,
 M. J. Frisch, G. W. Trucks, H. B. Schlegel, G. E. Scuseria, 
 M. A. Robb, J. R. Cheeseman, G. Scalmani, V. Barone, B. Mennucci, 
 G. A. Petersson, H. Nakatsuji, M. Caricato, X. Li, H. P. Hratchian, 
 A. F. Izmaylov, J. Bloino, G. Zheng, J. L. Sonnenberg, M. Hada, 
 M. Ehara, K. Toyota, R. Fukuda, J. Hasegawa, M. Ishida, T. Nakajima, 
 Y. Honda, O. Kitao, H. Nakai, T. Vreven, J. A. Montgomery, Jr., 
 J. E. Peralta, F. Ogliaro, M. Bearpark, J. J. Heyd, E. Brothers, 
 K. N. Kudin, V. N. Staroverov, R. Kobayashi, J. Normand, 
 K. Raghavachari, A. Rendell, J. C. Burant, S. S. Iyengar, J. Tomasi, 
 M. Cossi, N. Rega, J. M. Millam, M. Klene, J. E. Knox, J. B. Cross, 
 V. Bakken, C. Adamo, J. Jaramillo, R. Gomperts, R. E. Stratmann, 
 O. Yazyev, A. J. Austin, R. Cammi, C. Pomelli, J. W. Ochterski, 
 R. L. Martin, K. Morokuma, V. G. Zakrzewski, G. A. Voth, 
 P. Salvador, J. J. Dannenberg, S. Dapprich, A. D. Daniels, 
 O. Farkas, J. B. Foresman, J. V. Ortiz, J. Cioslowski, 
 and D. J. Fox, Gaussian, Inc., Wallingford CT, 2009.
 
 ******************************************
 Gaussian 09:  EM64L-G09RevA.02 11-Jun-2009
                11-Mar-2010 
 ******************************************
 %nprocshared=4
 Will use up to    4 processors via shared memory.
 %mem=7000MB
 %NoSave
 %Chk=chk.chk
 %rwf=/tmp/pbs.3633484.cx1/rwf
 %nproc=1
 Will use up to    1 processors via shared memory.
 --------------------------------------
 # opt rb3lyp/lanl2dz geom=connectivity
 --------------------------------------
 1/14=-1,18=20,19=15,26=3,38=1,57=2/1,3;
 2/9=110,12=2,17=6,18=5,40=1/2;
 3/5=6,6=3,11=2,16=1,25=1,30=1,71=1,74=-5,116=1/1,2,3;
 4//1;
 5/5=2,38=5/2;
 6/7=2,8=2,9=2,10=2,28=1/1;
 7//1,2,3,16;
 1/14=-1,18=20,19=15/3(2);
 2/9=110/2;
 99//99;
 2/9=110/2;
 3/5=6,6=3,11=2,16=1,25=1,30=1,71=1,74=-5,116=1/1,2,3;
 4/5=5,16=3/1;
 5/5=2,38=5/2;
 7//1,2,3,16;
 1/14=-1,18=20,19=15/3(-5);
 2/9=110/2;
 6/7=2,8=2,9=2,10=2,19=2,28=1/1;
 99/9=1/99;
 -------------------
 BrF5 Optimisation 3
 -------------------
 Symbolic Z-matrix:
 Charge =  0 Multiplicity = 1
 Br
 F                    1    B1
 F                    1    B2       2    A1
 F                    1    B3       3    A2       2    D1       0
 F                    1    B4       3    A3       2    D2       0
 F                    1    B5       5    A4       2    D3       0
       Variables:
  B1                    2.07664                  
  B2                    2.02908                  
  B3                    2.02908                  
  B4                    2.02908                  
  B5                    2.02908                  
  A1                   80.39831                  
  A2                   88.40574                  
  A3                   88.40574                  
  A4                   88.40574                  
  D1                   80.53037                  
  D2                  -80.53037                  
  D3                  -80.53037                  
 

 GradGradGradGradGradGradGradGradGradGradGradGradGradGradGradGradGradGrad
 Berny optimization.
 Initialization pass.
                           ----------------------------
                           !    Initial Parameters    !
                           ! (Angstroms and Degrees)  !
 --------------------------                            --------------------------
 ! Name  Definition              Value          Derivative Info.                !
 --------------------------------------------------------------------------------
 ! R1    R(1,2)                  2.0766         estimate D2E/DX2                !
 ! R2    R(1,3)                  2.0291         estimate D2E/DX2                !
 ! R3    R(1,4)                  2.0291         estimate D2E/DX2                !
 ! R4    R(1,5)                  2.0291         estimate D2E/DX2                !
 ! R5    R(1,6)                  2.0291         estimate D2E/DX2                !
 ! A1    A(2,1,3)               80.3983         estimate D2E/DX2                !
 ! A2    A(2,1,4)               80.3983         estimate D2E/DX2                !
 ! A3    A(2,1,5)               80.3983         estimate D2E/DX2                !
 ! A4    A(2,1,6)               80.3983         estimate D2E/DX2                !
 ! A5    A(3,1,4)               88.4057         estimate D2E/DX2                !
 ! A6    A(3,1,5)               88.4057         estimate D2E/DX2                !
 ! A7    A(3,1,6)              160.7966         estimate D2E/DX2                !
 ! A8    A(4,1,5)              160.7966         estimate D2E/DX2                !
 ! A9    A(4,1,6)               88.4057         estimate D2E/DX2                !
 ! A10   A(5,1,6)               88.4057         estimate D2E/DX2                !
 ! D1    D(2,1,4,3)             80.5304         estimate D2E/DX2                !
 ! D2    D(2,1,5,3)            -80.5304         estimate D2E/DX2                !
 ! D3    D(2,1,6,3)              0.0            estimate D2E/DX2                !
 ! D4    D(2,1,5,4)              0.0            estimate D2E/DX2                !
 ! D5    D(2,1,6,4)             80.5304         estimate D2E/DX2                !
 ! D6    D(2,1,6,5)            -80.5304         estimate D2E/DX2                !
 ! D7    D(3,1,5,4)             80.5304         estimate D2E/DX2                !
 ! D8    D(3,1,6,4)             80.5304         estimate D2E/DX2                !
 ! D9    D(3,1,6,5)            -80.5304         estimate D2E/DX2                !
 ! D10   D(4,1,6,5)           -161.0607         estimate D2E/DX2                !
 --------------------------------------------------------------------------------
 Trust Radius=3.00D-01 FncErr=1.00D-07 GrdErr=1.00D-06
 Number of steps in this run=  35 maximum allowed number of steps= 100.
 GradGradGradGradGradGradGradGradGradGradGradGradGradGradGradGradGradGrad

                          Input orientation:                          
 ---------------------------------------------------------------------
 Center     Atomic      Atomic             Coordinates (Angstroms)
 Number     Number       Type             X           Y           Z
 ---------------------------------------------------------------------
      1         35           0        0.000000    0.000000    0.000000
      2          9           0        0.000000    0.000000    2.076644
      3          9           0        2.000653    0.000000    0.338446
      4          9           0        0.000000    2.000653    0.338446
      5          9           0        0.000000   -2.000653    0.338446
      6          9           0       -2.000653    0.000000    0.338446
 ---------------------------------------------------------------------
                    Distance matrix (angstroms):
                    1          2          3          4          5
     1  Br   0.000000
     2  F    2.076644   0.000000
     3  F    2.029078   2.650273   0.000000
     4  F    2.029078   2.650273   2.829350   0.000000
     5  F    2.029078   2.650273   2.829350   4.001305   0.000000
     6  F    2.029078   2.650273   4.001305   2.829350   2.829350
                    6
     6  F    0.000000
 Stoichiometry    BrF5
 Framework group  C4V[C4(FBr),2SGV(F2)]
 Deg. of freedom     3
 Full point group                 C4V     NOp   8
 Largest Abelian subgroup         C2V     NOp   4
 Largest concise Abelian subgroup C2V     NOp   4
                         Standard orientation:                         
 ---------------------------------------------------------------------
 Center     Atomic      Atomic             Coordinates (Angstroms)
 Number     Number       Type             X           Y           Z
 ---------------------------------------------------------------------
      1         35           0        0.000000    0.000000    0.385923
      2          9           0        0.000000    0.000000   -1.690721
      3          9           0        0.000000    2.000653    0.047477
      4          9           0        2.000653    0.000000    0.047477
      5          9           0       -2.000653    0.000000    0.047477
      6          9           0        0.000000   -2.000653    0.047477
 ---------------------------------------------------------------------
 Rotational constants (GHZ):      2.3150929      2.3150929      1.6614861
 Standard basis: LANL2DZ (5D, 7F)
 There are    23 symmetry adapted basis functions of A1  symmetry.
 There are     4 symmetry adapted basis functions of A2  symmetry.
 There are    13 symmetry adapted basis functions of B1  symmetry.
 There are    13 symmetry adapted basis functions of B2  symmetry.
 Integral buffers will be    131072 words long.
 Raffenetti 2 integral format.
 Two-electron integral symmetry is turned on.
    53 basis functions,   137 primitive gaussians,    53 cartesian basis functions
    26 alpha electrons       26 beta electrons
       nuclear repulsion energy       228.4902776629 Hartrees.
 NAtoms=    6 NActive=    6 NUniq=    3 SFac= 3.00D+00 NAtFMM=   80 NAOKFM=F Big=F
 One-electron integrals computed using PRISM.
   8 Symmetry operations used in ECPInt.
 ECPInt:  NShTT=     435 NPrTT=    3463 LenC2=     426 LenP2D=    2241.
 LDataN:  DoStor=T MaxTD1= 4 Len=   56
 NBasis=    53 RedAO= T  NBF=    23     4    13    13
 NBsUse=    53 1.00D-06 NBFU=    23     4    13    13
 Harris functional with IExCor=  402 diagonalized for initial guess.
 ExpMin= 1.38D-01 ExpMax= 1.00D+04 ExpMxC= 3.50D+02 IAcc=1 IRadAn=         1 AccDes= 0.00D+00
 HarFok:  IExCor=  402 AccDes= 0.00D+00 IRadAn=         1 IDoV= 1
 ScaDFX=  1.000000  1.000000  1.000000  1.000000
 FoFCou: FMM=F IPFlag=           0 FMFlag=      100000 FMFlg1=           0
         NFxFlg=           0 DoJE=T BraDBF=F KetDBF=T FulRan=T
         Omega=  0.000000  0.000000  1.000000  0.000000  0.000000 ICntrl=     500 IOpCl=  0
         NMat0=    1 NMatS0=    1 NMatT0=    0 NMatD0=    1 NMtDS0=    0 NMtDT0=    0
         I1Cent=           4 NGrid=           0.
 Petite list used in FoFCou.
 Initial guess orbital symmetries:
       Occupied  (E) (E) (A1) (B2) (A1) (A1) (E) (E) (B2) (A1)
                 (A1) (E) (E) (A1) (B1) (E) (E) (B2) (E) (E) (B2)
                 (A1) (A2) (E) (E) (A1)
       Virtual   (A1) (E) (E) (E) (E) (B1) (A1) (E) (E) (A1) (B2)
                 (E) (E) (A1) (B2) (E) (E) (A2) (A1) (E) (E) (B2)
                 (A1) (A1) (E) (E) (A1)
 The electronic state of the initial guess is 1-A1.
 Requested convergence on RMS density matrix=1.00D-08 within 128 cycles.
 Requested convergence on MAX density matrix=1.00D-06.
 Requested convergence on             energy=1.00D-06.
 No special actions if energy rises.
 Keep R1 ints in memory in canonical form, NReq=1977707.
 Integral accuracy reduced to 1.0D-05 until final iterations.
 EnCoef did     5 forward-backward iterations
 EnCoef did     3 forward-backward iterations
 EnCoef did     7 forward-backward iterations
 Initial convergence to 1.0D-05 achieved.  Increase integral accuracy.
 SCF Done:  E(RB3LYP) =  -512.043663704     A.U. after   20 cycles
             Convg  =    0.4571D-08             -V/T =  2.0233

 **********************************************************************

            Population analysis using the SCF density.

 **********************************************************************

 Orbital symmetries:
       Occupied  (A1) (E) (E) (B2) (A1) (A1) (E) (E) (A1) (B2)
                 (A1) (E) (E) (A1) (E) (E) (B1) (B2) (E) (E) (B2)
                 (A1) (E) (E) (A2) (A1)
       Virtual   (A1) (E) (E) (A1) (E) (E) (B1) (E) (E) (A1) (B2)
                 (A1) (E) (E) (B2) (E) (E) (A1) (A2) (E) (E) (A1)
                 (B2) (A1) (E) (E) (A1)
 The electronic state is 1-A1.
 Alpha  occ. eigenvalues --  -24.78063 -24.76526 -24.76526 -24.76526 -24.76526
 Alpha  occ. eigenvalues --   -1.24299  -1.20185  -1.20185  -1.19459  -1.18946
 Alpha  occ. eigenvalues --   -0.96595  -0.61069  -0.61069  -0.59369  -0.47275
 Alpha  occ. eigenvalues --   -0.47275  -0.46975  -0.46041  -0.44891  -0.44891
 Alpha  occ. eigenvalues --   -0.44832  -0.44755  -0.43723  -0.43723  -0.43619
 Alpha  occ. eigenvalues --   -0.43008
 Alpha virt. eigenvalues --   -0.29738  -0.24680  -0.24680   0.35910   0.40524
 Alpha virt. eigenvalues --    0.40524   0.60743   0.62207   0.62207   0.74383
 Alpha virt. eigenvalues --    0.79122   0.80574   0.81486   0.81486   0.84236
 Alpha virt. eigenvalues --    0.90571   0.90571   0.92470   0.94713   1.03723
 Alpha virt. eigenvalues --    1.03723   1.27388   1.27660   1.38385   1.68630
 Alpha virt. eigenvalues --    1.68630  20.04996
          Condensed to atoms (all electrons):
              1          2          3          4          5          6
     1  Br   5.278727   0.055369   0.041817   0.041817   0.041817   0.041817
     2  F    0.055369   9.223144  -0.014158  -0.014158  -0.014158  -0.014158
     3  F    0.041817  -0.014158   9.304637  -0.006815  -0.006815   0.000523
     4  F    0.041817  -0.014158  -0.006815   9.304637   0.000523  -0.006815
     5  F    0.041817  -0.014158  -0.006815   0.000523   9.304637  -0.006815
     6  F    0.041817  -0.014158   0.000523  -0.006815  -0.006815   9.304637
 Mulliken atomic charges:
              1
     1  Br   1.498637
     2  F   -0.221881
     3  F   -0.319189
     4  F   -0.319189
     5  F   -0.319189
     6  F   -0.319189
 Sum of Mulliken atomic charges =   0.00000
 Mulliken charges with hydrogens summed into heavy atoms:
              1
     1  Br   1.498637
     2  F   -0.221881
     3  F   -0.319189
     4  F   -0.319189
     5  F   -0.319189
     6  F   -0.319189
 Sum of Mulliken charges with hydrogens summed into heavy atoms =   0.00000
 Electronic spatial extent (au):  <R**2>=            708.6052
 Charge=              0.0000 electrons
 Dipole moment (field-independent basis, Debye):
    X=              0.0000    Y=              0.0000    Z=              3.4408  Tot=              3.4408
 Quadrupole moment (field-independent basis, Debye-Ang):
   XX=            -46.9842   YY=            -46.9842   ZZ=            -38.0484
   XY=              0.0000   XZ=              0.0000   YZ=              0.0000
 Traceless Quadrupole moment (field-independent basis, Debye-Ang):
   XX=             -2.9786   YY=             -2.9786   ZZ=              5.9572
   XY=              0.0000   XZ=              0.0000   YZ=              0.0000
 Octapole moment (field-independent basis, Debye-Ang**2):
  XXX=              0.0000  YYY=              0.0000  ZZZ=             12.1951  XYY=              0.0000
  XXY=              0.0000  XXZ=              2.5221  XZZ=              0.0000  YZZ=              0.0000
  YYZ=              2.5221  XYZ=              0.0000
 Hexadecapole moment (field-independent basis, Debye-Ang**3):
 XXXX=           -302.4072 YYYY=           -302.4072 ZZZZ=           -122.8807 XXXY=              0.0000
 XXXZ=              0.0000 YYYX=              0.0000 YYYZ=              0.0000 ZZZX=              0.0000
 ZZZY=              0.0000 XXYY=            -90.7536 XXZZ=            -65.8453 YYZZ=            -65.8453
 XXYZ=              0.0000 YYXZ=              0.0000 ZZXY=              0.0000
 N-N= 2.284902776629D+02 E-N=-1.673710315211D+03  KE= 5.003748405639D+02
 Symmetry A1   KE= 2.772326410528D+02
 Symmetry A2   KE= 1.277947354040D+01
 Symmetry B1   KE= 1.051813629854D+02
 Symmetry B2   KE= 1.051813629854D+02
   8 Symmetry operations used in ECPInt.
 ECPInt:  NShTT=     435 NPrTT=    3463 LenC2=     426 LenP2D=    2241.
 LDataN:  DoStor=T MaxTD1= 5 Len=  102
 Calling FoFJK, ICntrl=      2127 FMM=F ISym2X=1 I1Cent= 0 IOpClX= 0 NMat=1 NMatS=1 NMatT=0.
 ***** Axes restored to original set *****
 -------------------------------------------------------------------
 Center     Atomic                   Forces (Hartrees/Bohr)
 Number     Number              X              Y              Z
 -------------------------------------------------------------------
      1       35           0.000000000    0.000000000    0.072384337
      2        9           0.000000000    0.000000000   -0.034727684
      3        9          -0.027804232    0.000000000   -0.009414163
      4        9           0.000000000   -0.027804232   -0.009414163
      5        9           0.000000000    0.027804232   -0.009414163
      6        9           0.027804232    0.000000000   -0.009414163
 -------------------------------------------------------------------
 Cartesian Forces:  Max     0.072384337 RMS     0.023442970

 GradGradGradGradGradGradGradGradGradGradGradGradGradGradGradGradGradGrad
 Berny optimization.
 Internal  Forces:  Max     0.034727684 RMS     0.013913226
 Search for a local minimum.
 Step number   1 out of a maximum of   35
 All quantities printed in internal units (Hartrees-Bohrs-Radians)
 Mixed Optimization -- RFO/linear search
 Second derivative matrix not updated -- first step.
     Eigenvalues ---    0.01092   0.01473   0.09572   0.10745   0.11116
     Eigenvalues ---    0.11765   0.13160   0.13160   0.13160   0.13160
     Eigenvalues ---    0.24621   0.250001000.000001000.000001000.00000
     Eigenvalues --- 1000.000001000.000001000.000001000.000001000.00000
     Eigenvalues --- 1000.000001000.000001000.000001000.000001000.00000
 RFO step:  Lambda=-3.02570827D-02 EMin= 1.09174214D-02
 Linear search not attempted -- first point.
 Maximum step size (   0.300) exceeded in Quadratic search.
    -- Step size scaled by   0.687
 Iteration  1 RMS(Cart)=  0.05070532 RMS(Int)=  0.00044103
 Iteration  2 RMS(Cart)=  0.00042983 RMS(Int)=  0.00007291
 Iteration  3 RMS(Cart)=  0.00000025 RMS(Int)=  0.00007291
 ClnCor:  largest displacement from symmetrization is 4.80D-03 for atom     6.
 Variable       Old X    -DE/DX   Delta X   Delta X   Delta X     New X
                                 (Linear)    (Quad)   (Total)
    R1        3.92429  -0.03473   0.00000  -0.16123  -0.16124   3.76305
    R2        3.83440  -0.02898   0.00000  -0.12297  -0.12466   3.70974
    R3        3.83440  -0.02898   0.00000  -0.12297  -0.12466   3.70974
    R4        3.83440  -0.02898   0.00000  -0.12297  -0.12466   3.70974
    R5        3.83440  -0.02898   0.00000  -0.12297  -0.12466   3.70974
    A1        1.40322   0.00225   0.00000   0.01194   0.01310   1.41632
    A2        1.40322   0.00267   0.00000   0.01232   0.01310   1.41632
    A3        1.40322   0.00267   0.00000   0.01232   0.01310   1.41632
    A4        1.40322   0.00773   0.00000   0.01514   0.01310   1.41632
    A5        1.54297   0.00059   0.00000   0.00329   0.00415   1.54712
    A6        1.54297   0.00068   0.00000   0.00338   0.00415   1.54712
    A7        2.80643   0.00998   0.00000   0.02709   0.02620   2.83263
    A8        2.80643   0.00534   0.00000   0.02464   0.02620   2.83263
    A9        1.54297   0.00193   0.00000   0.00520   0.00415   1.54712
   A10        1.54297   0.00184   0.00000   0.00515   0.00415   1.54712
    D1        1.40552   0.00218   0.00000   0.01156   0.01261   1.41813
    D2       -1.40552  -0.00217   0.00000  -0.01155  -0.01261  -1.41813
    D3        0.00000   0.00001   0.00000   0.00005   0.00000   0.00000
    D4        0.00000  -0.00107   0.00000  -0.00405   0.00000   0.00000
    D5        1.40552   0.00239   0.00000   0.01162   0.01261   1.41813
    D6       -1.40552  -0.00240   0.00000  -0.01164  -0.01261  -1.41813
    D7        1.40552   0.00110   0.00000   0.00750   0.01261   1.41813
    D8        1.40552   0.00238   0.00000   0.01157   0.01261   1.41813
    D9       -1.40552  -0.00241   0.00000  -0.01169  -0.01261  -1.41813
   D10       -2.81104  -0.00479   0.00000  -0.02326  -0.02521  -2.83625
         Item               Value     Threshold  Converged?
 Maximum Force            0.034728     0.000450     NO 
 RMS     Force            0.013913     0.000300     NO 
 Maximum Displacement     0.115124     0.001800     NO 
 RMS     Displacement     0.051459     0.001200     NO 
 Predicted change in Energy=-1.509835D-02
 GradGradGradGradGradGradGradGradGradGradGradGradGradGradGradGradGradGrad

                          Input orientation:                          
 ---------------------------------------------------------------------
 Center     Atomic      Atomic             Coordinates (Angstroms)
 Number     Number       Type             X           Y           Z
 ---------------------------------------------------------------------
      1         35           0        0.000000    0.000000    0.038161
      2          9           0        0.000000    0.000000    2.029483
      3          9           0        1.939732    0.000000    0.340219
      4          9           0        0.000000    1.939732    0.340219
      5          9           0        0.000000   -1.939732    0.340219
      6          9           0       -1.939732    0.000000    0.340219
 ---------------------------------------------------------------------
                    Distance matrix (angstroms):
                    1          2          3          4          5
     1  Br   0.000000
     2  F    1.991321   0.000000
     3  F    1.963109   2.572192   0.000000
     4  F    1.963109   2.572192   2.743195   0.000000
     5  F    1.963109   2.572192   2.743195   3.879464   0.000000
     6  F    1.963109   2.572192   3.879464   2.743195   2.743195
                    6
     6  F    0.000000
 Stoichiometry    BrF5
 Framework group  C4V[C4(FBr),2SGV(F2)]
 Deg. of freedom     3
 Full point group                 C4V     NOp   8
 Largest Abelian subgroup         C2V     NOp   4
 Largest concise Abelian subgroup C2V     NOp   4
                         Standard orientation:                         
 ---------------------------------------------------------------------
 Center     Atomic      Atomic             Coordinates (Angstroms)
 Number     Number       Type             X           Y           Z
 ---------------------------------------------------------------------
      1         35           0        0.000000    0.000000    0.359950
      2          9           0        0.000000    0.000000   -1.631372
      3          9           0        0.000000    1.939732    0.057892
      4          9           0        1.939732    0.000000    0.057892
      5          9           0       -1.939732    0.000000    0.057892
      6          9           0        0.000000   -1.939732    0.057892
 ---------------------------------------------------------------------
 Rotational constants (GHZ):      2.4774954      2.4774954      1.7674888
 Standard basis: LANL2DZ (5D, 7F)
 There are    23 symmetry adapted basis functions of A1  symmetry.
 There are     4 symmetry adapted basis functions of A2  symmetry.
 There are    13 symmetry adapted basis functions of B1  symmetry.
 There are    13 symmetry adapted basis functions of B2  symmetry.
 Integral buffers will be    131072 words long.
 Raffenetti 2 integral format.
 Two-electron integral symmetry is turned on.
    53 basis functions,   137 primitive gaussians,    53 cartesian basis functions
    26 alpha electrons       26 beta electrons
       nuclear repulsion energy       235.9264914433 Hartrees.



 Warning!  Br atom    1 may be hypervalent but has no d functions.



 NAtoms=    6 NActive=    6 NUniq=    3 SFac= 3.00D+00 NAtFMM=   80 NAOKFM=F Big=F
 One-electron integrals computed using PRISM.
   8 Symmetry operations used in ECPInt.
 ECPInt:  NShTT=     435 NPrTT=    3463 LenC2=     430 LenP2D=    2257.
 LDataN:  DoStor=T MaxTD1= 4 Len=   56
 NBasis=    53 RedAO= T  NBF=    23     4    13    13
 NBsUse=    53 1.00D-06 NBFU=    23     4    13    13
 Initial guess read from the read-write file.
 B after Tr=     0.000000    0.000000    0.000000
         Rot=    1.000000    0.000000    0.000000    0.000000 Ang=   0.00 deg.
 Initial guess orbital symmetries:
       Occupied  (A1) (E) (E) (B2) (A1) (A1) (E) (E) (A1) (B2)
                 (A1) (E) (E) (A1) (E) (E) (B1) (B2) (E) (E) (B2)
                 (A1) (E) (E) (A2) (A1)
       Virtual   (A1) (E) (E) (A1) (E) (E) (B1) (E) (E) (A1) (B2)
                 (A1) (E) (E) (B2) (E) (E) (A1) (A2) (E) (E) (A1)
                 (B2) (A1) (E) (E) (A1)
 Harris functional with IExCor=  402 diagonalized for initial guess.
 ExpMin= 1.38D-01 ExpMax= 1.00D+04 ExpMxC= 3.50D+02 IAcc=1 IRadAn=         1 AccDes= 0.00D+00
 HarFok:  IExCor=  402 AccDes= 0.00D+00 IRadAn=         1 IDoV= 1
 ScaDFX=  1.000000  1.000000  1.000000  1.000000
 FoFCou: FMM=F IPFlag=           0 FMFlag=      100000 FMFlg1=           0
         NFxFlg=           0 DoJE=T BraDBF=F KetDBF=T FulRan=T
         Omega=  0.000000  0.000000  1.000000  0.000000  0.000000 ICntrl=     500 IOpCl=  0
         NMat0=    1 NMatS0=    1 NMatT0=    0 NMatD0=    1 NMtDS0=    0 NMtDT0=    0
         I1Cent=           4 NGrid=           0.
 Petite list used in FoFCou.
 Requested convergence on RMS density matrix=1.00D-08 within 128 cycles.
 Requested convergence on MAX density matrix=1.00D-06.
 Requested convergence on             energy=1.00D-06.
 No special actions if energy rises.
 Keep R1 ints in memory in canonical form, NReq=1977707.
 Integral accuracy reduced to 1.0D-05 until final iterations.
 Initial convergence to 1.0D-05 achieved.  Increase integral accuracy.
 SCF Done:  E(RB3LYP) =  -512.060463929     A.U. after   14 cycles
             Convg  =    0.7171D-08             -V/T =  2.0227
   8 Symmetry operations used in ECPInt.
 ECPInt:  NShTT=     435 NPrTT=    3463 LenC2=     430 LenP2D=    2257.
 LDataN:  DoStor=T MaxTD1= 5 Len=  102
 Calling FoFJK, ICntrl=      2127 FMM=F ISym2X=1 I1Cent= 0 IOpClX= 0 NMat=1 NMatS=1 NMatT=0.
 ***** Axes restored to original set *****
 -------------------------------------------------------------------
 Center     Atomic                   Forces (Hartrees/Bohr)
 Number     Number              X              Y              Z
 -------------------------------------------------------------------
      1       35           0.000000000    0.000000000    0.049858107
      2        9           0.000000000    0.000000000   -0.023002450
      3        9          -0.013919507    0.000000000   -0.006713914
      4        9           0.000000000   -0.013919507   -0.006713914
      5        9           0.000000000    0.013919507   -0.006713914
      6        9           0.013919507    0.000000000   -0.006713914
 -------------------------------------------------------------------
 Cartesian Forces:  Max     0.049858107 RMS     0.014851601

 GradGradGradGradGradGradGradGradGradGradGradGradGradGradGradGradGradGrad
 Berny optimization.
 Using GEDIIS/GDIIS optimizer.
 Internal  Forces:  Max     0.023002450 RMS     0.008104854
 Search for a local minimum.
 Step number   2 out of a maximum of   35
 All quantities printed in internal units (Hartrees-Bohrs-Radians)
 Mixed Optimization -- RFO/linear search
 Update second derivatives using D2CorX and points    1    2
 DE= -1.68D-02 DEPred=-1.51D-02 R= 1.11D+00
 SS=  1.41D+00  RLast= 3.03D-01 DXNew= 5.0454D-01 9.1013D-01
 Trust test= 1.11D+00 RLast= 3.03D-01 DXMaxT set to 5.05D-01
 Use linear search instead of GDIIS.
     Eigenvalues ---    0.00971   0.01304   0.08253   0.09724   0.10760
     Eigenvalues ---    0.11371   0.13160   0.13160   0.13160   0.13864
     Eigenvalues ---    0.24673   0.248621000.000001000.000001000.00000
     Eigenvalues --- 1000.000001000.000001000.000001000.000001000.00000
     Eigenvalues --- 1000.000001000.000001000.000001000.000001000.00000
 RFO step:  Lambda=-1.40919173D-03 EMin= 9.70569941D-03
 Quartic linear search produced a step of  0.90651.
 Iteration  1 RMS(Cart)=  0.04343863 RMS(Int)=  0.00226294
 Iteration  2 RMS(Cart)=  0.00202729 RMS(Int)=  0.00046433
 Iteration  3 RMS(Cart)=  0.00000363 RMS(Int)=  0.00046423
 Iteration  4 RMS(Cart)=  0.00000000 RMS(Int)=  0.00046423
 ClnCor:  largest displacement from symmetrization is 9.63D-03 for atom     6.
 Variable       Old X    -DE/DX   Delta X   Delta X   Delta X     New X
                                 (Linear)    (Quad)   (Total)
    R1        3.76305  -0.02300  -0.14616  -0.06109  -0.20726   3.55579
    R2        3.70974  -0.01479  -0.11301   0.01417  -0.10311   3.60663
    R3        3.70974  -0.01479  -0.11301   0.01417  -0.10311   3.60663
    R4        3.70974  -0.01479  -0.11301   0.01417  -0.10311   3.60663
    R5        3.70974  -0.01479  -0.11301   0.01417  -0.10311   3.60663
    A1        1.41632   0.00210   0.01188   0.01561   0.02938   1.44569
    A2        1.41632   0.00248   0.01188   0.01609   0.02938   1.44569
    A3        1.41632   0.00248   0.01188   0.01609   0.02938   1.44569
    A4        1.41632   0.00725   0.01188   0.02045   0.02938   1.44569
    A5        1.54712   0.00051   0.00376   0.00192   0.00811   1.55523
    A6        1.54712   0.00058   0.00376   0.00212   0.00811   1.55523
    A7        2.83263   0.00935   0.02375   0.03605   0.05876   2.89139
    A8        2.83263   0.00497   0.02375   0.03218   0.05876   2.89139
    A9        1.54712   0.00167   0.00376   0.00839   0.00811   1.55523
   A10        1.54712   0.00159   0.00376   0.00833   0.00811   1.55523
    D1        1.41813   0.00205   0.01143   0.01550   0.02854   1.44666
    D2       -1.41813  -0.00203  -0.01143  -0.01547  -0.02854  -1.44666
    D3        0.00000   0.00001   0.00000   0.00022   0.00000   0.00000
    D4        0.00000  -0.00100   0.00000  -0.01863   0.00000   0.00000
    D5        1.41813   0.00226   0.01143   0.01499   0.02854   1.44666
    D6       -1.41813  -0.00227  -0.01143  -0.01501  -0.02854  -1.44666
    D7        1.41813   0.00103   0.01143  -0.00316   0.02854   1.44666
    D8        1.41813   0.00225   0.01143   0.01477   0.02854   1.44666
    D9       -1.41813  -0.00227  -0.01143  -0.01523  -0.02854  -1.44666
   D10       -2.83625  -0.00452  -0.02286  -0.03000  -0.05707  -2.89332
         Item               Value     Threshold  Converged?
 Maximum Force            0.023002     0.000450     NO 
 RMS     Force            0.008105     0.000300     NO 
 Maximum Displacement     0.113556     0.001800     NO 
 RMS     Displacement     0.045713     0.001200     NO 
 Predicted change in Energy=-8.244177D-03
 GradGradGradGradGradGradGradGradGradGradGradGradGradGradGradGradGradGrad

                          Input orientation:                          
 ---------------------------------------------------------------------
 Center     Atomic      Atomic             Coordinates (Angstroms)
 Number     Number       Type             X           Y           Z
 ---------------------------------------------------------------------
      1         35           0        0.000000    0.000000    0.098252
      2          9           0        0.000000    0.000000    1.979896
      3          9           0        1.893632    0.000000    0.336393
      4          9           0        0.000000    1.893632    0.336393
      5          9           0        0.000000   -1.893632    0.336393
      6          9           0       -1.893632    0.000000    0.336393
 ---------------------------------------------------------------------
                    Distance matrix (angstroms):
                    1          2          3          4          5
     1  Br   0.000000
     2  F    1.881644   0.000000
     3  F    1.908548   2.507378   0.000000
     4  F    1.908548   2.507378   2.678000   0.000000
     5  F    1.908548   2.507378   2.678000   3.787264   0.000000
     6  F    1.908548   2.507378   3.787264   2.678000   2.678000
                    6
     6  F    0.000000
 Stoichiometry    BrF5
 Framework group  C4V[C4(FBr),2SGV(F2)]
 Deg. of freedom     3
 Full point group                 C4V     NOp   8
 Largest Abelian subgroup         C2V     NOp   4
 Largest concise Abelian subgroup C2V     NOp   4
                         Standard orientation:                         
 ---------------------------------------------------------------------
 Center     Atomic      Atomic             Coordinates (Angstroms)
 Number     Number       Type             X           Y           Z
 ---------------------------------------------------------------------
      1         35           0        0.000000    0.000000    0.318848
      2          9           0        0.000000    0.000000   -1.562796
      3          9           0        0.000000    1.893632    0.080708
      4          9           0        1.893632    0.000000    0.080708
      5          9           0       -1.893632    0.000000    0.080708
      6          9           0        0.000000   -1.893632    0.080708
 ---------------------------------------------------------------------
 Rotational constants (GHZ):      2.6438275      2.6438275      1.8545940
 Standard basis: LANL2DZ (5D, 7F)
 There are    23 symmetry adapted basis functions of A1  symmetry.
 There are     4 symmetry adapted basis functions of A2  symmetry.
 There are    13 symmetry adapted basis functions of B1  symmetry.
 There are    13 symmetry adapted basis functions of B2  symmetry.
 Integral buffers will be    131072 words long.
 Raffenetti 2 integral format.
 Two-electron integral symmetry is turned on.
    53 basis functions,   137 primitive gaussians,    53 cartesian basis functions
    26 alpha electrons       26 beta electrons
       nuclear repulsion energy       242.6268529880 Hartrees.



 Warning!  Br atom    1 may be hypervalent but has no d functions.



 NAtoms=    6 NActive=    6 NUniq=    3 SFac= 3.00D+00 NAtFMM=   80 NAOKFM=F Big=F
 One-electron integrals computed using PRISM.
   8 Symmetry operations used in ECPInt.
 ECPInt:  NShTT=     435 NPrTT=    3463 LenC2=     430 LenP2D=    2277.
 LDataN:  DoStor=T MaxTD1= 4 Len=   56
 NBasis=    53 RedAO= T  NBF=    23     4    13    13
 NBsUse=    53 1.00D-06 NBFU=    23     4    13    13
 Initial guess read from the read-write file.
 B after Tr=     0.000000    0.000000    0.000000
         Rot=    1.000000    0.000000    0.000000    0.000000 Ang=   0.00 deg.
 Initial guess orbital symmetries:
       Occupied  (A1) (E) (E) (B2) (A1) (A1) (E) (E) (A1) (B2)
                 (A1) (E) (E) (A1) (E) (E) (B1) (B2) (A1) (E) (E)
                 (B2) (E) (E) (A2) (A1)
       Virtual   (A1) (E) (E) (A1) (E) (E) (B1) (E) (E) (A1) (B2)
                 (A1) (E) (E) (B2) (E) (E) (A1) (A2) (E) (E) (A1)
                 (B2) (A1) (E) (E) (A1)
 Harris functional with IExCor=  402 diagonalized for initial guess.
 ExpMin= 1.38D-01 ExpMax= 1.00D+04 ExpMxC= 3.50D+02 IAcc=1 IRadAn=         1 AccDes= 0.00D+00
 HarFok:  IExCor=  402 AccDes= 0.00D+00 IRadAn=         1 IDoV= 1
 ScaDFX=  1.000000  1.000000  1.000000  1.000000
 FoFCou: FMM=F IPFlag=           0 FMFlag=      100000 FMFlg1=           0
         NFxFlg=           0 DoJE=T BraDBF=F KetDBF=T FulRan=T
         Omega=  0.000000  0.000000  1.000000  0.000000  0.000000 ICntrl=     500 IOpCl=  0
         NMat0=    1 NMatS0=    1 NMatT0=    0 NMatD0=    1 NMtDS0=    0 NMtDT0=    0
         I1Cent=           4 NGrid=           0.
 Petite list used in FoFCou.
 Requested convergence on RMS density matrix=1.00D-08 within 128 cycles.
 Requested convergence on MAX density matrix=1.00D-06.
 Requested convergence on             energy=1.00D-06.
 No special actions if energy rises.
 Keep R1 ints in memory in canonical form, NReq=1977707.
 Integral accuracy reduced to 1.0D-05 until final iterations.
 Initial convergence to 1.0D-05 achieved.  Increase integral accuracy.
 SCF Done:  E(RB3LYP) =  -512.067127594     A.U. after   13 cycles
             Convg  =    0.7431D-08             -V/T =  2.0220
   8 Symmetry operations used in ECPInt.
 ECPInt:  NShTT=     435 NPrTT=    3463 LenC2=     430 LenP2D=    2277.
 LDataN:  DoStor=T MaxTD1= 5 Len=  102
 Calling FoFJK, ICntrl=      2127 FMM=F ISym2X=1 I1Cent= 0 IOpClX= 0 NMat=1 NMatS=1 NMatT=0.
 ***** Axes restored to original set *****
 -------------------------------------------------------------------
 Center     Atomic                   Forces (Hartrees/Bohr)
 Number     Number              X              Y              Z
 -------------------------------------------------------------------
      1       35           0.000000000    0.000000000    0.005609290
      2        9           0.000000000    0.000000000    0.003014148
      3        9           0.002473393    0.000000000   -0.002155860
      4        9           0.000000000    0.002473393   -0.002155860
      5        9           0.000000000   -0.002473393   -0.002155860
      6        9          -0.002473393    0.000000000   -0.002155860
 -------------------------------------------------------------------
 Cartesian Forces:  Max     0.005609290 RMS     0.002155237

 GradGradGradGradGradGradGradGradGradGradGradGradGradGradGradGradGradGrad
 Berny optimization.
 Using GEDIIS/GDIIS optimizer.
 Internal  Forces:  Max     0.004956689 RMS     0.001947729
 Search for a local minimum.
 Step number   3 out of a maximum of   35
 All quantities printed in internal units (Hartrees-Bohrs-Radians)
 Mixed Optimization -- RFO/linear search
 Update second derivatives using D2CorX and points    2    3
 DE= -6.66D-03 DEPred=-8.24D-03 R= 8.08D-01
 SS=  1.41D+00  RLast= 3.24D-01 DXNew= 8.4853D-01 9.7238D-01
 Trust test= 8.08D-01 RLast= 3.24D-01 DXMaxT set to 8.49D-01
 Use linear search instead of GDIIS.
     Eigenvalues ---    0.00726   0.00958   0.08674   0.09963   0.10789
     Eigenvalues ---    0.12222   0.13160   0.13160   0.13160   0.17230
     Eigenvalues ---    0.24780   0.249181000.000001000.000001000.00000
     Eigenvalues --- 1000.000001000.000001000.000001000.000001000.00000
     Eigenvalues --- 1000.000001000.000001000.000001000.000001000.00000
 RFO step:  Lambda=-5.13765879D-04 EMin= 7.26337686D-03
 Quartic linear search produced a step of -0.03000.
 Iteration  1 RMS(Cart)=  0.01233197 RMS(Int)=  0.00011829
 Iteration  2 RMS(Cart)=  0.00010446 RMS(Int)=  0.00004821
 Iteration  3 RMS(Cart)=  0.00000000 RMS(Int)=  0.00004821
 ClnCor:  largest displacement from symmetrization is 2.40D-04 for atom     6.
 Variable       Old X    -DE/DX   Delta X   Delta X   Delta X     New X
                                 (Linear)    (Quad)   (Total)
    R1        3.55579   0.00301   0.00622   0.00588   0.01210   3.56789
    R2        3.60663   0.00219   0.00309   0.00375   0.00673   3.61336
    R3        3.60663   0.00219   0.00309   0.00375   0.00673   3.61336
    R4        3.60663   0.00219   0.00309   0.00375   0.00673   3.61336
    R5        3.60663   0.00219   0.00309   0.00375   0.00673   3.61336
    A1        1.44569   0.00111  -0.00088   0.01295   0.01211   1.45780
    A2        1.44569   0.00130  -0.00088   0.01296   0.01211   1.45780
    A3        1.44569   0.00130  -0.00088   0.01296   0.01211   1.45780
    A4        1.44569   0.00385  -0.00088   0.01304   0.01211   1.45780
    A5        1.55523   0.00021  -0.00024   0.00313   0.00286   1.55808
    A6        1.55523   0.00025  -0.00024   0.00314   0.00286   1.55808
    A7        2.89139   0.00496  -0.00176   0.02599   0.02421   2.91560
    A8        2.89139   0.00259  -0.00176   0.02592   0.02421   2.91560
    A9        1.55523   0.00072  -0.00024   0.00329   0.00286   1.55808
   A10        1.55523   0.00069  -0.00024   0.00329   0.00286   1.55808
    D1        1.44666   0.00109  -0.00086   0.01266   0.01185   1.45852
    D2       -1.44666  -0.00109   0.00086  -0.01266  -0.01185  -1.45852
    D3        0.00000   0.00000   0.00000   0.00003   0.00000   0.00000
    D4        0.00000  -0.00054   0.00000  -0.00057   0.00000   0.00000
    D5        1.44666   0.00122  -0.00086   0.01265   0.01185   1.45852
    D6       -1.44666  -0.00122   0.00086  -0.01265  -0.01185  -1.45852
    D7        1.44666   0.00055  -0.00086   0.01209   0.01185   1.45852
    D8        1.44666   0.00122  -0.00086   0.01262   0.01185   1.45852
    D9       -1.44666  -0.00122   0.00086  -0.01268  -0.01185  -1.45852
   D10       -2.89332  -0.00244   0.00171  -0.02531  -0.02371  -2.91703
         Item               Value     Threshold  Converged?
 Maximum Force            0.004957     0.000450     NO 
 RMS     Force            0.001948     0.000300     NO 
 Maximum Displacement     0.038445     0.001800     NO 
 RMS     Displacement     0.012316     0.001200     NO 
 Predicted change in Energy=-2.618600D-04
 GradGradGradGradGradGradGradGradGradGradGradGradGradGradGradGradGradGrad

                          Input orientation:                          
 ---------------------------------------------------------------------
 Center     Atomic      Atomic             Coordinates (Angstroms)
 Number     Number       Type             X           Y           Z
 ---------------------------------------------------------------------
      1         35           0        0.000000    0.000000    0.112194
      2          9           0        0.000000    0.000000    2.000240
      3          9           0        1.899915    0.000000    0.327793
      4          9           0        0.000000    1.899915    0.327793
      5          9           0        0.000000   -1.899915    0.327793
      6          9           0       -1.899915    0.000000    0.327793
 ---------------------------------------------------------------------
                    Distance matrix (angstroms):
                    1          2          3          4          5
     1  Br   0.000000
     2  F    1.888046   0.000000
     3  F    1.912108   2.531157   0.000000
     4  F    1.912108   2.531157   2.686885   0.000000
     5  F    1.912108   2.531157   2.686885   3.799829   0.000000
     6  F    1.912108   2.531157   3.799829   2.686885   2.686885
                    6
     6  F    0.000000
 Stoichiometry    BrF5
 Framework group  C4V[C4(FBr),2SGV(F2)]
 Deg. of freedom     3
 Full point group                 C4V     NOp   8
 Largest Abelian subgroup         C2V     NOp   4
 Largest concise Abelian subgroup C2V     NOp   4
                         Standard orientation:                         
 ---------------------------------------------------------------------
 Center     Atomic      Atomic             Coordinates (Angstroms)
 Number     Number       Type             X           Y           Z
 ---------------------------------------------------------------------
      1         35           0        0.000000    0.000000    0.309425
      2          9           0        0.000000    0.000000   -1.578621
      3          9           0        0.000000    1.899915    0.093826
      4          9           0        1.899915    0.000000    0.093826
      5          9           0       -1.899915    0.000000    0.093826
      6          9           0        0.000000   -1.899915    0.093826
 ---------------------------------------------------------------------
 Rotational constants (GHZ):      2.6224575      2.6224575      1.8423491
 Standard basis: LANL2DZ (5D, 7F)
 There are    23 symmetry adapted basis functions of A1  symmetry.
 There are     4 symmetry adapted basis functions of A2  symmetry.
 There are    13 symmetry adapted basis functions of B1  symmetry.
 There are    13 symmetry adapted basis functions of B2  symmetry.
 Integral buffers will be    131072 words long.
 Raffenetti 2 integral format.
 Two-electron integral symmetry is turned on.
    53 basis functions,   137 primitive gaussians,    53 cartesian basis functions
    26 alpha electrons       26 beta electrons
       nuclear repulsion energy       241.5077261210 Hartrees.



 Warning!  Br atom    1 may be hypervalent but has no d functions.



 NAtoms=    6 NActive=    6 NUniq=    3 SFac= 3.00D+00 NAtFMM=   80 NAOKFM=F Big=F
 One-electron integrals computed using PRISM.
   8 Symmetry operations used in ECPInt.
 ECPInt:  NShTT=     435 NPrTT=    3463 LenC2=     430 LenP2D=    2277.
 LDataN:  DoStor=T MaxTD1= 4 Len=   56
 NBasis=    53 RedAO= T  NBF=    23     4    13    13
 NBsUse=    53 1.00D-06 NBFU=    23     4    13    13
 Initial guess read from the read-write file.
 B after Tr=     0.000000    0.000000    0.000000
         Rot=    1.000000    0.000000    0.000000    0.000000 Ang=   0.00 deg.
 Initial guess orbital symmetries:
       Occupied  (A1) (E) (E) (B2) (A1) (A1) (A1) (E) (E) (B2)
                 (A1) (E) (E) (A1) (E) (E) (B1) (B2) (A1) (E) (E)
                 (B2) (E) (E) (A2) (A1)
       Virtual   (A1) (E) (E) (A1) (E) (E) (B1) (E) (E) (A1) (B2)
                 (E) (E) (A1) (B2) (E) (E) (A1) (A2) (E) (E) (A1)
                 (B2) (A1) (E) (E) (A1)
 Harris functional with IExCor=  402 diagonalized for initial guess.
 ExpMin= 1.38D-01 ExpMax= 1.00D+04 ExpMxC= 3.50D+02 IAcc=1 IRadAn=         1 AccDes= 0.00D+00
 HarFok:  IExCor=  402 AccDes= 0.00D+00 IRadAn=         1 IDoV= 1
 ScaDFX=  1.000000  1.000000  1.000000  1.000000
 FoFCou: FMM=F IPFlag=           0 FMFlag=      100000 FMFlg1=           0
         NFxFlg=           0 DoJE=T BraDBF=F KetDBF=T FulRan=T
         Omega=  0.000000  0.000000  1.000000  0.000000  0.000000 ICntrl=     500 IOpCl=  0
         NMat0=    1 NMatS0=    1 NMatT0=    0 NMatD0=    1 NMtDS0=    0 NMtDT0=    0
         I1Cent=           4 NGrid=           0.
 Petite list used in FoFCou.
 Requested convergence on RMS density matrix=1.00D-08 within 128 cycles.
 Requested convergence on MAX density matrix=1.00D-06.
 Requested convergence on             energy=1.00D-06.
 No special actions if energy rises.
 Keep R1 ints in memory in canonical form, NReq=1977707.
 Integral accuracy reduced to 1.0D-05 until final iterations.
 Initial convergence to 1.0D-05 achieved.  Increase integral accuracy.
 SCF Done:  E(RB3LYP) =  -512.067489007     A.U. after   13 cycles
             Convg  =    0.1613D-08             -V/T =  2.0221
   8 Symmetry operations used in ECPInt.
 ECPInt:  NShTT=     435 NPrTT=    3463 LenC2=     430 LenP2D=    2277.
 LDataN:  DoStor=T MaxTD1= 5 Len=  102
 Calling FoFJK, ICntrl=      2127 FMM=F ISym2X=1 I1Cent= 0 IOpClX= 0 NMat=1 NMatS=1 NMatT=0.
 ***** Axes restored to original set *****
 -------------------------------------------------------------------
 Center     Atomic                   Forces (Hartrees/Bohr)
 Number     Number              X              Y              Z
 -------------------------------------------------------------------
      1       35           0.000000000    0.000000000    0.003856916
      2        9           0.000000000    0.000000000   -0.000351336
      3        9           0.001266300    0.000000000   -0.000876395
      4        9           0.000000000    0.001266300   -0.000876395
      5        9           0.000000000   -0.001266300   -0.000876395
      6        9          -0.001266300    0.000000000   -0.000876395
 -------------------------------------------------------------------
 Cartesian Forces:  Max     0.003856916 RMS     0.001166323

 GradGradGradGradGradGradGradGradGradGradGradGradGradGradGradGradGradGrad
 Berny optimization.
 Using GEDIIS/GDIIS optimizer.
 Internal  Forces:  Max     0.002057227 RMS     0.000823582
 Search for a local minimum.
 Step number   4 out of a maximum of   35
 All quantities printed in internal units (Hartrees-Bohrs-Radians)
 Mixed Optimization -- En-DIIS/RFO-DIIS
 Update second derivatives using D2CorX and points    2    3    4
 DE= -3.61D-04 DEPred=-2.62D-04 R= 1.38D+00
 SS=  1.41D+00  RLast= 6.05D-02 DXNew= 1.4270D+00 1.8161D-01
 Trust test= 1.38D+00 RLast= 6.05D-02 DXMaxT set to 8.49D-01
 Use linear search instead of GDIIS.
     Eigenvalues ---    0.00638   0.00828   0.05752   0.09811   0.10799
     Eigenvalues ---    0.13160   0.13160   0.13160   0.13697   0.16055
     Eigenvalues ---    0.21825   0.248181000.000001000.000001000.00000
     Eigenvalues --- 1000.000001000.000001000.000001000.000001000.00000
     Eigenvalues --- 1000.000001000.000001000.000001000.000001000.00000
 RFO step:  Lambda=-6.94308408D-05 EMin= 6.37986673D-03
 Quartic linear search produced a step of  0.68761.
 Iteration  1 RMS(Cart)=  0.00925419 RMS(Int)=  0.00015893
 Iteration  2 RMS(Cart)=  0.00008917 RMS(Int)=  0.00009021
 Iteration  3 RMS(Cart)=  0.00000003 RMS(Int)=  0.00009021
 ClnCor:  largest displacement from symmetrization is 1.04D-03 for atom     6.
 Variable       Old X    -DE/DX   Delta X   Delta X   Delta X     New X
                                 (Linear)    (Quad)   (Total)
    R1        3.56789  -0.00035   0.00832  -0.02184  -0.01352   3.55437
    R2        3.61336   0.00116   0.00463   0.00404   0.00917   3.62254
    R3        3.61336   0.00116   0.00463   0.00404   0.00917   3.62254
    R4        3.61336   0.00116   0.00463   0.00404   0.00917   3.62254
    R5        3.61336   0.00116   0.00463   0.00404   0.00917   3.62254
    A1        1.45780   0.00046   0.00832   0.00288   0.01103   1.46883
    A2        1.45780   0.00054   0.00832   0.00284   0.01103   1.46883
    A3        1.45780   0.00054   0.00832   0.00284   0.01103   1.46883
    A4        1.45780   0.00160   0.00832   0.00246   0.01103   1.46883
    A5        1.55808   0.00008   0.00196   0.00102   0.00235   1.56044
    A6        1.55808   0.00009   0.00196   0.00098   0.00235   1.56044
    A7        2.91560   0.00206   0.01665   0.00534   0.02206   2.93767
    A8        2.91560   0.00107   0.01665   0.00568   0.02206   2.93767
    A9        1.55808   0.00027   0.00196   0.00024   0.00235   1.56044
   A10        1.55808   0.00026   0.00196   0.00024   0.00235   1.56044
    D1        1.45852   0.00045   0.00815   0.00279   0.01084   1.46936
    D2       -1.45852  -0.00045  -0.00815  -0.00279  -0.01084  -1.46936
    D3        0.00000   0.00000   0.00000  -0.00009   0.00000   0.00000
    D4        0.00000  -0.00022   0.00000   0.00320   0.00000   0.00000
    D5        1.45852   0.00051   0.00815   0.00283   0.01084   1.46936
    D6       -1.45852  -0.00051  -0.00815  -0.00283  -0.01084  -1.46936
    D7        1.45852   0.00023   0.00815   0.00599   0.01084   1.46936
    D8        1.45852   0.00051   0.00815   0.00292   0.01084   1.46936
    D9       -1.45852  -0.00051  -0.00815  -0.00274  -0.01084  -1.46936
   D10       -2.91703  -0.00102  -0.01630  -0.00566  -0.02169  -2.93872
         Item               Value     Threshold  Converged?
 Maximum Force            0.002057     0.000450     NO 
 RMS     Force            0.000824     0.000300     NO 
 Maximum Displacement     0.028193     0.001800     NO 
 RMS     Displacement     0.009317     0.001200     NO 
 Predicted change in Energy=-9.727082D-05
 GradGradGradGradGradGradGradGradGradGradGradGradGradGradGradGradGradGrad

                          Input orientation:                          
 ---------------------------------------------------------------------
 Center     Atomic      Atomic             Coordinates (Angstroms)
 Number     Number       Type             X           Y           Z
 ---------------------------------------------------------------------
      1         35           0        0.000000    0.000000    0.127113
      2          9           0        0.000000    0.000000    2.008004
      3          9           0        1.907007    0.000000    0.322234
      4          9           0        0.000000    1.907007    0.322234
      5          9           0        0.000000   -1.907007    0.322234
      6          9           0       -1.907007    0.000000    0.322234
 ---------------------------------------------------------------------
                    Distance matrix (angstroms):
                    1          2          3          4          5
     1  Br   0.000000
     2  F    1.880891   0.000000
     3  F    1.916963   2.545289   0.000000
     4  F    1.916963   2.545289   2.696916   0.000000
     5  F    1.916963   2.545289   2.696916   3.814015   0.000000
     6  F    1.916963   2.545289   3.814015   2.696916   2.696916
                    6
     6  F    0.000000
 Stoichiometry    BrF5
 Framework group  C4V[C4(FBr),2SGV(F2)]
 Deg. of freedom     3
 Full point group                 C4V     NOp   8
 Largest Abelian subgroup         C2V     NOp   4
 Largest concise Abelian subgroup C2V     NOp   4
                         Standard orientation:                         
 ---------------------------------------------------------------------
 Center     Atomic      Atomic             Coordinates (Angstroms)
 Number     Number       Type             X           Y           Z
 ---------------------------------------------------------------------
      1         35           0        0.000000    0.000000    0.299405
      2          9           0        0.000000    0.000000   -1.581486
      3          9           0        0.000000    1.907007    0.104284
      4          9           0        1.907007    0.000000    0.104284
      5          9           0       -1.907007    0.000000    0.104284
      6          9           0        0.000000   -1.907007    0.104284
 ---------------------------------------------------------------------
 Rotational constants (GHZ):      2.6106064      2.6106064      1.8286703
 Standard basis: LANL2DZ (5D, 7F)
 There are    23 symmetry adapted basis functions of A1  symmetry.
 There are     4 symmetry adapted basis functions of A2  symmetry.
 There are    13 symmetry adapted basis functions of B1  symmetry.
 There are    13 symmetry adapted basis functions of B2  symmetry.
 Integral buffers will be    131072 words long.
 Raffenetti 2 integral format.
 Two-electron integral symmetry is turned on.
    53 basis functions,   137 primitive gaussians,    53 cartesian basis functions
    26 alpha electrons       26 beta electrons
       nuclear repulsion energy       240.7009335753 Hartrees.



 Warning!  Br atom    1 may be hypervalent but has no d functions.



 NAtoms=    6 NActive=    6 NUniq=    3 SFac= 3.00D+00 NAtFMM=   80 NAOKFM=F Big=F
 One-electron integrals computed using PRISM.
   8 Symmetry operations used in ECPInt.
 ECPInt:  NShTT=     435 NPrTT=    3463 LenC2=     430 LenP2D=    2273.
 LDataN:  DoStor=T MaxTD1= 4 Len=   56
 NBasis=    53 RedAO= T  NBF=    23     4    13    13
 NBsUse=    53 1.00D-06 NBFU=    23     4    13    13
 Initial guess read from the read-write file.
 B after Tr=     0.000000    0.000000    0.000000
         Rot=    1.000000    0.000000    0.000000    0.000000 Ang=   0.00 deg.
 Initial guess orbital symmetries:
       Occupied  (A1) (E) (E) (B2) (A1) (A1) (A1) (E) (E) (B2)
                 (A1) (E) (E) (A1) (E) (E) (B1) (B2) (A1) (E) (E)
                 (B2) (E) (E) (A2) (A1)
       Virtual   (A1) (E) (E) (A1) (E) (E) (B1) (E) (E) (A1) (B2)
                 (E) (E) (A1) (B2) (E) (E) (A1) (A2) (E) (E) (A1)
                 (B2) (A1) (E) (E) (A1)
 Harris functional with IExCor=  402 diagonalized for initial guess.
 ExpMin= 1.38D-01 ExpMax= 1.00D+04 ExpMxC= 3.50D+02 IAcc=1 IRadAn=         1 AccDes= 0.00D+00
 HarFok:  IExCor=  402 AccDes= 0.00D+00 IRadAn=         1 IDoV= 1
 ScaDFX=  1.000000  1.000000  1.000000  1.000000
 FoFCou: FMM=F IPFlag=           0 FMFlag=      100000 FMFlg1=           0
         NFxFlg=           0 DoJE=T BraDBF=F KetDBF=T FulRan=T
         Omega=  0.000000  0.000000  1.000000  0.000000  0.000000 ICntrl=     500 IOpCl=  0
         NMat0=    1 NMatS0=    1 NMatT0=    0 NMatD0=    1 NMtDS0=    0 NMtDT0=    0
         I1Cent=           4 NGrid=           0.
 Petite list used in FoFCou.
 Requested convergence on RMS density matrix=1.00D-08 within 128 cycles.
 Requested convergence on MAX density matrix=1.00D-06.
 Requested convergence on             energy=1.00D-06.
 No special actions if energy rises.
 Keep R1 ints in memory in canonical form, NReq=1977707.
 Integral accuracy reduced to 1.0D-05 until final iterations.
 Initial convergence to 1.0D-05 achieved.  Increase integral accuracy.
 SCF Done:  E(RB3LYP) =  -512.067580881     A.U. after   13 cycles
             Convg  =    0.8199D-08             -V/T =  2.0221
   8 Symmetry operations used in ECPInt.
 ECPInt:  NShTT=     435 NPrTT=    3463 LenC2=     430 LenP2D=    2273.
 LDataN:  DoStor=T MaxTD1= 5 Len=  102
 Calling FoFJK, ICntrl=      2127 FMM=F ISym2X=1 I1Cent= 0 IOpClX= 0 NMat=1 NMatS=1 NMatT=0.
 ***** Axes restored to original set *****
 -------------------------------------------------------------------
 Center     Atomic                   Forces (Hartrees/Bohr)
 Number     Number              X              Y              Z
 -------------------------------------------------------------------
      1       35           0.000000000    0.000000000   -0.000939165
      2        9           0.000000000    0.000000000    0.000927549
      3        9          -0.000191382    0.000000000    0.000002904
      4        9           0.000000000   -0.000191382    0.000002904
      5        9           0.000000000    0.000191382    0.000002904
      6        9           0.000191382    0.000000000    0.000002904
 -------------------------------------------------------------------
 Cartesian Forces:  Max     0.000939165 RMS     0.000323944

 GradGradGradGradGradGradGradGradGradGradGradGradGradGradGradGradGradGrad
 Berny optimization.
 Using GEDIIS/GDIIS optimizer.
 Internal  Forces:  Max     0.000927549 RMS     0.000201046
 Search for a local minimum.
 Step number   5 out of a maximum of   35
 All quantities printed in internal units (Hartrees-Bohrs-Radians)
 Mixed Optimization -- En-DIIS/RFO-DIIS
 Swaping is turned off.
 Update second derivatives using D2CorX and points    2    3    4    5
 DE= -9.19D-05 DEPred=-9.73D-05 R= 9.45D-01
 SS=  1.41D+00  RLast= 5.74D-02 DXNew= 1.4270D+00 1.7222D-01
 Trust test= 9.45D-01 RLast= 5.74D-02 DXMaxT set to 8.49D-01
     Eigenvalues ---    0.00564   0.00722   0.05802   0.09820   0.10808
     Eigenvalues ---    0.13160   0.13160   0.13160   0.13959   0.15646
     Eigenvalues ---    0.21298   0.248511000.000001000.000001000.00000
     Eigenvalues --- 1000.000001000.000001000.000001000.000001000.00000
     Eigenvalues --- 1000.000001000.000001000.000001000.000001000.00000
 En-DIIS/RFO-DIIS IScMMF=        0 using points:     5    4
 RFO step:  Lambda=-2.73457490D-06.
 DIIS coeffs:      0.90047      0.09953
 Iteration  1 RMS(Cart)=  0.00119482 RMS(Int)=  0.00000474
 Iteration  2 RMS(Cart)=  0.00000022 RMS(Int)=  0.00000473
 ClnCor:  largest displacement from symmetrization is 4.45D-06 for atom     6.
 Variable       Old X    -DE/DX   Delta X   Delta X   Delta X     New X
                                  (DIIS)     (GDIIS)  (Total)
    R1        3.55437   0.00093   0.00135   0.00553   0.00687   3.56124
    R2        3.62254  -0.00019  -0.00091  -0.00033  -0.00124   3.62130
    R3        3.62254  -0.00019  -0.00091  -0.00033  -0.00124   3.62130
    R4        3.62254  -0.00019  -0.00091  -0.00033  -0.00124   3.62130
    R5        3.62254  -0.00019  -0.00091  -0.00033  -0.00124   3.62130
    A1        1.46883  -0.00001  -0.00110   0.00059  -0.00051   1.46832
    A2        1.46883  -0.00001  -0.00110   0.00059  -0.00051   1.46832
    A3        1.46883  -0.00001  -0.00110   0.00059  -0.00051   1.46832
    A4        1.46883  -0.00004  -0.00110   0.00059  -0.00051   1.46832
    A5        1.56044   0.00000  -0.00023   0.00012  -0.00010   1.56033
    A6        1.56044   0.00000  -0.00023   0.00012  -0.00010   1.56033
    A7        2.93767  -0.00005  -0.00220   0.00118  -0.00102   2.93665
    A8        2.93767  -0.00002  -0.00220   0.00118  -0.00102   2.93665
    A9        1.56044  -0.00001  -0.00023   0.00012  -0.00010   1.56033
   A10        1.56044  -0.00001  -0.00023   0.00012  -0.00010   1.56033
    D1        1.46936  -0.00001  -0.00108   0.00058  -0.00050   1.46886
    D2       -1.46936   0.00001   0.00108  -0.00058   0.00050  -1.46886
    D3        0.00000   0.00000   0.00000   0.00000   0.00000   0.00000
    D4        0.00000   0.00000   0.00000   0.00001   0.00000   0.00000
    D5        1.46936  -0.00001  -0.00108   0.00058  -0.00050   1.46886
    D6       -1.46936   0.00001   0.00108  -0.00058   0.00050  -1.46886
    D7        1.46936  -0.00001  -0.00108   0.00059  -0.00050   1.46886
    D8        1.46936  -0.00001  -0.00108   0.00058  -0.00050   1.46886
    D9       -1.46936   0.00001   0.00108  -0.00058   0.00050  -1.46886
   D10       -2.93872   0.00002   0.00216  -0.00116   0.00100  -2.93772
         Item               Value     Threshold  Converged?
 Maximum Force            0.000928     0.000450     NO 
 RMS     Force            0.000201     0.000300     YES
 Maximum Displacement     0.004592     0.001800     NO 
 RMS     Displacement     0.001195     0.001200     YES
 Predicted change in Energy=-3.741609D-06
 GradGradGradGradGradGradGradGradGradGradGradGradGradGradGradGradGradGrad

                          Input orientation:                          
 ---------------------------------------------------------------------
 Center     Atomic      Atomic             Coordinates (Angstroms)
 Number     Number       Type             X           Y           Z
 ---------------------------------------------------------------------
      1         35           0        0.000000    0.000000    0.125905
      2          9           0        0.000000    0.000000    2.010434
      3          9           0        1.906257    0.000000    0.321930
      4          9           0        0.000000    1.906257    0.321930
      5          9           0        0.000000   -1.906257    0.321930
      6          9           0       -1.906257    0.000000    0.321930
 ---------------------------------------------------------------------
                    Distance matrix (angstroms):
                    1          2          3          4          5
     1  Br   0.000000
     2  F    1.884529   0.000000
     3  F    1.916309   2.546539   0.000000
     4  F    1.916309   2.546539   2.695854   0.000000
     5  F    1.916309   2.546539   2.695854   3.812514   0.000000
     6  F    1.916309   2.546539   3.812514   2.695854   2.695854
                    6
     6  F    0.000000
 Stoichiometry    BrF5
 Framework group  C4V[C4(FBr),2SGV(F2)]
 Deg. of freedom     3
 Full point group                 C4V     NOp   8
 Largest Abelian subgroup         C2V     NOp   4
 Largest concise Abelian subgroup C2V     NOp   4
                         Standard orientation:                         
 ---------------------------------------------------------------------
 Center     Atomic      Atomic             Coordinates (Angstroms)
 Number     Number       Type             X           Y           Z
 ---------------------------------------------------------------------
      1         35           0        0.000000    0.000000    0.300220
      2          9           0        0.000000    0.000000   -1.584308
      3          9           0        0.000000    1.906257    0.104196
      4          9           0        1.906257    0.000000    0.104196
      5          9           0       -1.906257    0.000000    0.104196
      6          9           0        0.000000   -1.906257    0.104196
 ---------------------------------------------------------------------
 Rotational constants (GHZ):      2.6092835      2.6092835      1.8301104
 Standard basis: LANL2DZ (5D, 7F)
 There are    23 symmetry adapted basis functions of A1  symmetry.
 There are     4 symmetry adapted basis functions of A2  symmetry.
 There are    13 symmetry adapted basis functions of B1  symmetry.
 There are    13 symmetry adapted basis functions of B2  symmetry.
 Integral buffers will be    131072 words long.
 Raffenetti 2 integral format.
 Two-electron integral symmetry is turned on.
    53 basis functions,   137 primitive gaussians,    53 cartesian basis functions
    26 alpha electrons       26 beta electrons
       nuclear repulsion energy       240.6912767064 Hartrees.



 Warning!  Br atom    1 may be hypervalent but has no d functions.



 NAtoms=    6 NActive=    6 NUniq=    3 SFac= 3.00D+00 NAtFMM=   80 NAOKFM=F Big=F
 One-electron integrals computed using PRISM.
   8 Symmetry operations used in ECPInt.
 ECPInt:  NShTT=     435 NPrTT=    3463 LenC2=     430 LenP2D=    2273.
 LDataN:  DoStor=T MaxTD1= 4 Len=   56
 NBasis=    53 RedAO= T  NBF=    23     4    13    13
 NBsUse=    53 1.00D-06 NBFU=    23     4    13    13
 Initial guess read from the read-write file.
 B after Tr=     0.000000    0.000000    0.000000
         Rot=    1.000000    0.000000    0.000000    0.000000 Ang=   0.00 deg.
 Initial guess orbital symmetries:
       Occupied  (A1) (E) (E) (B2) (A1) (A1) (A1) (E) (E) (B2)
                 (A1) (E) (E) (A1) (E) (E) (B1) (B2) (A1) (E) (E)
                 (B2) (E) (E) (A2) (A1)
       Virtual   (A1) (E) (E) (A1) (E) (E) (B1) (E) (E) (A1) (B2)
                 (A1) (E) (E) (B2) (E) (E) (A1) (A2) (E) (E) (A1)
                 (B2) (A1) (E) (E) (A1)
 Requested convergence on RMS density matrix=1.00D-08 within 128 cycles.
 Requested convergence on MAX density matrix=1.00D-06.
 Requested convergence on             energy=1.00D-06.
 No special actions if energy rises.
 Keep R1 ints in memory in canonical form, NReq=1977707.
 SCF Done:  E(RB3LYP) =  -512.067583930     A.U. after    9 cycles
             Convg  =    0.6332D-09             -V/T =  2.0221
   8 Symmetry operations used in ECPInt.
 ECPInt:  NShTT=     435 NPrTT=    3463 LenC2=     430 LenP2D=    2273.
 LDataN:  DoStor=T MaxTD1= 5 Len=  102
 Calling FoFJK, ICntrl=      2127 FMM=F ISym2X=1 I1Cent= 0 IOpClX= 0 NMat=1 NMatS=1 NMatT=0.
 ***** Axes restored to original set *****
 -------------------------------------------------------------------
 Center     Atomic                   Forces (Hartrees/Bohr)
 Number     Number              X              Y              Z
 -------------------------------------------------------------------
      1       35           0.000000000    0.000000000    0.000138248
      2        9           0.000000000    0.000000000   -0.000216287
      3        9           0.000001044    0.000000000    0.000019510
      4        9           0.000000000    0.000001044    0.000019510
      5        9           0.000000000   -0.000001044    0.000019510
      6        9          -0.000001044    0.000000000    0.000019510
 -------------------------------------------------------------------
 Cartesian Forces:  Max     0.000216287 RMS     0.000061201

 GradGradGradGradGradGradGradGradGradGradGradGradGradGradGradGradGradGrad
 Berny optimization.
 Using GEDIIS/GDIIS optimizer.
 Internal  Forces:  Max     0.000216287 RMS     0.000045159
 Search for a local minimum.
 Step number   6 out of a maximum of   35
 All quantities printed in internal units (Hartrees-Bohrs-Radians)
 Mixed Optimization -- En-DIIS/RFO-DIIS
 Swaping is turned off.
 Update second derivatives using D2CorX and points    2    3    4    5    6
 DE= -3.05D-06 DEPred=-3.74D-06 R= 8.15D-01
 SS=  1.41D+00  RLast= 7.70D-03 DXNew= 1.4270D+00 2.3100D-02
 Trust test= 8.15D-01 RLast= 7.70D-03 DXMaxT set to 8.49D-01
     Eigenvalues ---    0.00568   0.00727   0.05821   0.09820   0.10807
     Eigenvalues ---    0.13160   0.13160   0.13160   0.15624   0.17187
     Eigenvalues ---    0.21705   0.248501000.000001000.000001000.00000
     Eigenvalues --- 1000.000001000.000001000.000001000.000001000.00000
     Eigenvalues --- 1000.000001000.000001000.000001000.000001000.00000
 En-DIIS/RFO-DIIS IScMMF=        0 using points:     6    5    4
 RFO step:  Lambda=-1.21150636D-07.
 DIIS coeffs:      0.79140      0.18761      0.02099
 Iteration  1 RMS(Cart)=  0.00028312 RMS(Int)=  0.00000094
 Iteration  2 RMS(Cart)=  0.00000001 RMS(Int)=  0.00000094
 ClnCor:  largest displacement from symmetrization is 7.57D-07 for atom     4.
 Variable       Old X    -DE/DX   Delta X   Delta X   Delta X     New X
                                  (DIIS)     (GDIIS)  (Total)
    R1        3.56124  -0.00022  -0.00115  -0.00004  -0.00119   3.56006
    R2        3.62130   0.00000   0.00007  -0.00006   0.00001   3.62131
    R3        3.62130   0.00000   0.00007  -0.00006   0.00001   3.62131
    R4        3.62130   0.00000   0.00007  -0.00006   0.00001   3.62131
    R5        3.62130   0.00000   0.00007  -0.00006   0.00001   3.62131
    A1        1.46832  -0.00001  -0.00013   0.00002  -0.00011   1.46822
    A2        1.46832  -0.00001  -0.00013   0.00002  -0.00011   1.46822
    A3        1.46832  -0.00001  -0.00013   0.00002  -0.00011   1.46822
    A4        1.46832  -0.00003  -0.00013   0.00002  -0.00011   1.46822
    A5        1.56033   0.00000  -0.00003   0.00000  -0.00002   1.56031
    A6        1.56033   0.00000  -0.00003   0.00000  -0.00002   1.56031
    A7        2.93665  -0.00004  -0.00025   0.00003  -0.00022   2.93643
    A8        2.93665  -0.00002  -0.00025   0.00003  -0.00022   2.93643
    A9        1.56033   0.00000  -0.00003   0.00000  -0.00002   1.56031
   A10        1.56033   0.00000  -0.00003   0.00000  -0.00002   1.56031
    D1        1.46886  -0.00001  -0.00012   0.00002  -0.00011   1.46875
    D2       -1.46886   0.00001   0.00012  -0.00002   0.00011  -1.46875
    D3        0.00000   0.00000   0.00000   0.00000   0.00000   0.00000
    D4        0.00000   0.00000   0.00000   0.00000   0.00000   0.00000
    D5        1.46886  -0.00001  -0.00012   0.00002  -0.00011   1.46875
    D6       -1.46886   0.00001   0.00012  -0.00002   0.00011  -1.46875
    D7        1.46886   0.00000  -0.00012   0.00001  -0.00011   1.46875
    D8        1.46886  -0.00001  -0.00012   0.00002  -0.00011   1.46875
    D9       -1.46886   0.00001   0.00012  -0.00002   0.00011  -1.46875
   D10       -2.93772   0.00002   0.00025  -0.00003   0.00021  -2.93750
         Item               Value     Threshold  Converged?
 Maximum Force            0.000216     0.000450     YES
 RMS     Force            0.000045     0.000300     YES
 Maximum Displacement     0.001251     0.001800     YES
 RMS     Displacement     0.000283     0.001200     YES
 Predicted change in Energy=-1.447803D-07
 Optimization completed.
    -- Stationary point found.
                           ----------------------------
                           !   Optimized Parameters   !
                           ! (Angstroms and Degrees)  !
 --------------------------                            --------------------------
 ! Name  Definition              Value          Derivative Info.                !
 --------------------------------------------------------------------------------
 ! R1    R(1,2)                  1.8845         -DE/DX =   -0.0002              !
 ! R2    R(1,3)                  1.9163         -DE/DX =    0.0                 !
 ! R3    R(1,4)                  1.9163         -DE/DX =    0.0                 !
 ! R4    R(1,5)                  1.9163         -DE/DX =    0.0                 !
 ! R5    R(1,6)                  1.9163         -DE/DX =    0.0                 !
 ! A1    A(2,1,3)               84.1288         -DE/DX =    0.0                 !
 ! A2    A(2,1,4)               84.1288         -DE/DX =    0.0                 !
 ! A3    A(2,1,5)               84.1288         -DE/DX =    0.0                 !
 ! A4    A(2,1,6)               84.1288         -DE/DX =    0.0                 !
 ! A5    A(3,1,4)               89.4005         -DE/DX =    0.0                 !
 ! A6    A(3,1,5)               89.4005         -DE/DX =    0.0                 !
 ! A7    A(3,1,6)              168.2576         -DE/DX =    0.0                 !
 ! A8    A(4,1,5)              168.2576         -DE/DX =    0.0                 !
 ! A9    A(4,1,6)               89.4005         -DE/DX =    0.0                 !
 ! A10   A(5,1,6)               89.4005         -DE/DX =    0.0                 !
 ! D1    D(2,1,4,3)             84.1594         -DE/DX =    0.0                 !
 ! D2    D(2,1,5,3)            -84.1594         -DE/DX =    0.0                 !
 ! D3    D(2,1,6,3)              0.0            -DE/DX =    0.0                 !
 ! D4    D(2,1,5,4)              0.0            -DE/DX =    0.0                 !
 ! D5    D(2,1,6,4)             84.1594         -DE/DX =    0.0                 !
 ! D6    D(2,1,6,5)            -84.1594         -DE/DX =    0.0                 !
 ! D7    D(3,1,5,4)             84.1594         -DE/DX =    0.0                 !
 ! D8    D(3,1,6,4)             84.1594         -DE/DX =    0.0                 !
 ! D9    D(3,1,6,5)            -84.1594         -DE/DX =    0.0                 !
 ! D10   D(4,1,6,5)           -168.3188         -DE/DX =    0.0                 !
 --------------------------------------------------------------------------------
 GradGradGradGradGradGradGradGradGradGradGradGradGradGradGradGradGradGrad

                          Input orientation:                          
 ---------------------------------------------------------------------
 Center     Atomic      Atomic             Coordinates (Angstroms)
 Number     Number       Type             X           Y           Z
 ---------------------------------------------------------------------
      1         35           0        0.000000    0.000000    0.125905
      2          9           0        0.000000    0.000000    2.010434
      3          9           0        1.906257    0.000000    0.321930
      4          9           0        0.000000    1.906257    0.321930
      5          9           0        0.000000   -1.906257    0.321930
      6          9           0       -1.906257    0.000000    0.321930
 ---------------------------------------------------------------------
                    Distance matrix (angstroms):
                    1          2          3          4          5
     1  Br   0.000000
     2  F    1.884529   0.000000
     3  F    1.916309   2.546539   0.000000
     4  F    1.916309   2.546539   2.695854   0.000000
     5  F    1.916309   2.546539   2.695854   3.812514   0.000000
     6  F    1.916309   2.546539   3.812514   2.695854   2.695854
                    6
     6  F    0.000000
 Stoichiometry    BrF5
 Framework group  C4V[C4(FBr),2SGV(F2)]
 Deg. of freedom     3
 Full point group                 C4V     NOp   8
 Largest Abelian subgroup         C2V     NOp   4
 Largest concise Abelian subgroup C2V     NOp   4
                         Standard orientation:                         
 ---------------------------------------------------------------------
 Center     Atomic      Atomic             Coordinates (Angstroms)
 Number     Number       Type             X           Y           Z
 ---------------------------------------------------------------------
      1         35           0        0.000000    0.000000    0.300220
      2          9           0        0.000000    0.000000   -1.584308
      3          9           0        0.000000    1.906257    0.104196
      4          9           0        1.906257    0.000000    0.104196
      5          9           0       -1.906257    0.000000    0.104196
      6          9           0        0.000000   -1.906257    0.104196
 ---------------------------------------------------------------------
 Rotational constants (GHZ):      2.6092835      2.6092835      1.8301104

 **********************************************************************

            Population analysis using the SCF density.

 **********************************************************************

 Orbital symmetries:
       Occupied  (A1) (E) (E) (B2) (A1) (A1) (A1) (E) (E) (B2)
                 (A1) (E) (E) (A1) (E) (E) (B1) (B2) (A1) (E) (E)
                 (B2) (E) (E) (A2) (A1)
       Virtual   (A1) (E) (E) (A1) (E) (E) (B1) (E) (E) (A1) (B2)
                 (E) (E) (A1) (B2) (E) (E) (A1) (A2) (E) (E) (A1)
                 (B2) (A1) (E) (E) (A1)
 The electronic state is 1-A1.
 Alpha  occ. eigenvalues --  -24.80420 -24.76363 -24.76363 -24.76363 -24.76363
 Alpha  occ. eigenvalues --   -1.30325  -1.23127  -1.22482  -1.22482  -1.20415
 Alpha  occ. eigenvalues --   -0.95756  -0.63878  -0.63878  -0.63228  -0.50255
 Alpha  occ. eigenvalues --   -0.50255  -0.48628  -0.47404  -0.46877  -0.45813
 Alpha  occ. eigenvalues --   -0.45813  -0.45737  -0.45212  -0.45212  -0.44043
 Alpha  occ. eigenvalues --   -0.42005
 Alpha virt. eigenvalues --   -0.26318  -0.20209  -0.20209   0.34353   0.39469
 Alpha virt. eigenvalues --    0.39469   0.58634   0.60612   0.60612   0.75716
 Alpha virt. eigenvalues --    0.80298   0.81186   0.81186   0.81187   0.84916
 Alpha virt. eigenvalues --    0.91099   0.91099   0.92791   0.97688   1.06299
 Alpha virt. eigenvalues --    1.06299   1.27479   1.29445   1.41154   1.79977
 Alpha virt. eigenvalues --    1.79977  20.24343
          Condensed to atoms (all electrons):
              1          2          3          4          5          6
     1  Br   5.218377   0.026259   0.015202   0.015202   0.015202   0.015202
     2  F    0.026259   9.311470  -0.020572  -0.020572  -0.020572  -0.020572
     3  F    0.015202  -0.020572   9.383403  -0.009686  -0.009686   0.001117
     4  F    0.015202  -0.020572  -0.009686   9.383403   0.001117  -0.009686
     5  F    0.015202  -0.020572  -0.009686   0.001117   9.383403  -0.009686
     6  F    0.015202  -0.020572   0.001117  -0.009686  -0.009686   9.383403
 Mulliken atomic charges:
              1
     1  Br   1.694554
     2  F   -0.255442
     3  F   -0.359778
     4  F   -0.359778
     5  F   -0.359778
     6  F   -0.359778
 Sum of Mulliken atomic charges =   0.00000
 Mulliken charges with hydrogens summed into heavy atoms:
              1
     1  Br   1.694554
     2  F   -0.255442
     3  F   -0.359778
     4  F   -0.359778
     5  F   -0.359778
     6  F   -0.359778
 Sum of Mulliken charges with hydrogens summed into heavy atoms =   0.00000
 Electronic spatial extent (au):  <R**2>=            650.4337
 Charge=              0.0000 electrons
 Dipole moment (field-independent basis, Debye):
    X=              0.0000    Y=              0.0000    Z=              2.5613  Tot=              2.5613
 Quadrupole moment (field-independent basis, Debye-Ang):
   XX=            -47.3727   YY=            -47.3727   ZZ=            -38.3542
   XY=              0.0000   XZ=              0.0000   YZ=              0.0000
 Traceless Quadrupole moment (field-independent basis, Debye-Ang):
   XX=             -3.0062   YY=             -3.0062   ZZ=              6.0123
   XY=              0.0000   XZ=              0.0000   YZ=              0.0000
 Octapole moment (field-independent basis, Debye-Ang**2):
  XXX=              0.0000  YYY=              0.0000  ZZZ=             10.4064  XYY=              0.0000
  XXY=              0.0000  XXZ=              1.3786  XZZ=              0.0000  YZZ=              0.0000
  YYZ=              1.3786  XYZ=              0.0000
 Hexadecapole moment (field-independent basis, Debye-Ang**3):
 XXXX=           -284.0566 YYYY=           -284.0566 ZZZZ=           -111.1975 XXXY=              0.0000
 XXXZ=              0.0000 YYYX=              0.0000 YYYZ=              0.0000 ZZZX=              0.0000
 ZZZY=              0.0000 XXYY=            -83.4894 XXZZ=            -60.0729 YYZZ=            -60.0729
 XXYZ=              0.0000 YYXZ=              0.0000 ZZXY=              0.0000
 N-N= 2.406912767064D+02 E-N=-1.697824422008D+03  KE= 5.009720043569D+02
 Symmetry A1   KE= 2.776759030456D+02
 Symmetry A2   KE= 1.270355843538D+01
 Symmetry B1   KE= 1.052962714380D+02
 Symmetry B2   KE= 1.052962714380D+02
 B after Tr=     0.000000    0.000000    0.729289
         Rot=    0.000000    0.707107    0.707107    0.000000 Ang= 180.00 deg.
 Final structure in terms of initial Z-matrix:
 Br
 F,1,B1
 F,1,B2,2,A1
 F,1,B3,3,A2,2,D1,0
 F,1,B4,3,A3,2,D2,0
 F,1,B5,5,A4,2,D3,0
      Variables:
 B1=1.88452867
 B2=1.91630906
 B3=1.91630906
 B4=1.91630906
 B5=1.91630906
 A1=84.12879647
 A2=89.40045894
 A3=89.40045894
 A4=89.40045894
 D1=84.15938126
 D2=-84.15938126
 D3=-84.15938126
 1\1\GINC-CX1-7-36-1\FOpt\RB3LYP\LANL2DZ\Br1F5\SCAN-USER-1\11-Mar-2010\
 0\\# opt rb3lyp/lanl2dz geom=connectivity\\BrF5 Optimisation 3\\0,1\Br
 ,0.,0.,0.1259053389\F,0.,0.,2.0104340064\F,1.9062567833,0.,0.321929561
 6\F,0.,1.9062567833,0.3219295616\F,0.,-1.9062567833,0.3219295616\F,-1.
 9062567833,0.,0.3219295616\\Version=EM64L-G09RevA.02\State=1-A1\HF=-51
 2.0675839\RMSD=6.332e-10\RMSF=6.120e-05\Dipole=0.,0.,-1.0077123\Quadru
 pole=-2.2350031,-2.2350031,4.4700061,0.,0.,0.\PG=C04V [C4(F1Br1),2SGV(
 F2)]\\@


 A COMPLEXITY IS MERELY A DISARRANGEMENT OF SIMPLICITIES.

                                    -- G. O. ABELL IN "EXPLORATION OF THE UNIVERSE"
 Job cpu time:  0 days  0 hours  0 minutes 15.0 seconds.
 File lengths (MBytes):  RWF=      5 Int=      0 D2E=      0 Chk=      1 Scr=      1
 Normal termination of Gaussian 09 at Thu Mar 11 13:27:12 2010.
