----- GAMESS execution script -----
This job is running on host cl017
under operating system Linux at Mon Jul 14 15:11:26 NDT 2014
Available scratch disk space (Kbyte units) at beginning of the job is
Filesystem           1K-blocks      Used Available Use% Mounted on
samqfs://scratch/ostueker
                     8586374784 7471405984 1114968800  88% /globalscratch/ostueker

 Distributed Data Interface kickoff program.
 Initiating 1 compute processes on 1 nodes to run the following command:
 /usr/local/gamess-12jan2009/gamess.01.x benzene_GAMESS_B3LYP_631G_OPT 

          ******************************************************
          *         GAMESS VERSION = 12 JAN 2009 (R1)          *
          *             FROM IOWA STATE UNIVERSITY             *
          * M.W.SCHMIDT, K.K.BALDRIDGE, J.A.BOATZ, S.T.ELBERT, *
          *   M.S.GORDON, J.H.JENSEN, S.KOSEKI, N.MATSUNAGA,   *
          *          K.A.NGUYEN, S.J.SU, T.L.WINDUS,           *
          *       TOGETHER WITH M.DUPUIS, J.A.MONTGOMERY       *
          *         J.COMPUT.CHEM.  14, 1347-1363(1993)        *
          **************** 64 BIT LINUX VERSION ****************

  SINCE 1993, STUDENTS AND POSTDOCS WORKING AT IOWA STATE UNIVERSITY
  AND ALSO IN THEIR VARIOUS JOBS AFTER LEAVING ISU HAVE MADE IMPORTANT
  CONTRIBUTIONS TO THE CODE:
     IVANA ADAMOVIC, CHRISTINE AIKENS, YURI ALEXEEV, POOJA ARORA,
     ANDREY ASADCHEV, ROB BELL, PRADIPTA BANDYOPADHYAY, JONATHAN BENTZ,
     BRETT BODE, GALINA CHABAN, WEI CHEN, CHEOL HO CHOI, PAUL DAY, TIM DUDLEY,
     DMITRI FEDOROV, GRAHAM FLETCHER, MARK FREITAG, KURT GLAESEMANN, DAN KEMP,
     GRANT MERRILL, JONATHAN MULLIN, TAKESHI NAGATA, SEAN NEDD,
     HEATHER NETZLOFF, BOSILJKA NJEGIC, RYAN OLSON, MIKE PAK, JIM SHOEMAKER,
     LYUDMILA SLIPCHENKO, SAROM SOK, JIE SONG, TETSUYA TAKETSUGU,
     SIMON WEBB, SOOHAENG YOO, FEDERICO ZAHARIEV

  ADDITIONAL CODE HAS BEEN PROVIDED BY COLLABORATORS IN OTHER GROUPS:
     IOWA STATE UNIVERSITY: JOE IVANIC, KLAUS RUEDENBERG
     UNIVERSITY OF TOKYO: KIMIHIKO HIRAO, TAKAHITO NAKAJIMA,
          TAKAO TSUNEDA, MUNEAKI KAMIYA, SUSUMU YANAGISAWA,
          KIYOSHI YAGI, MAHITO CHIBA, SEIKEN TOKURA, NAOAKI KAWAKAMI
     UNIVERSITY OF AARHUS: FRANK JENSEN
     UNIVERSITY OF IOWA: VISVALDAS KAIRYS, HUI LI
     NATIONAL INST. OF STANDARDS AND TECHNOLOGY: WALT STEVENS, DAVID GARMER
     UNIVERSITY OF PISA: BENEDETTA MENNUCCI, JACOPO TOMASI
     UNIVERSITY OF MEMPHIS: HENRY KURTZ, PRAKASHAN KORAMBATH
     UNIVERSITY OF ALBERTA: MARIUSZ KLOBUKOWSKI
     UNIVERSITY OF NEW ENGLAND: MARK SPACKMAN
     MIE UNIVERSITY: HIROAKI UMEDA
     MICHIGAN STATE UNIVERSITY:
          KAROL KOWALSKI, MARTA WLOCH, JEFFREY R. GOUR, PIOTR PIECUCH
     UNIVERSITY OF SILESIA: MONIKA MUSIAL, STANISLAW KUCHARSKI
     FACULTES UNIVERSITAIRES NOTRE-DAME DE LA PAIX:
          OLIVIER QUINET, BENOIT CHAMPAGNE
     UNIVERSITY OF CALIFORNIA - SANTA BARBARA: BERNARD KIRTMAN
     INSTITUTE FOR MOLECULAR SCIENCE: KAZUYA ISHIMURA AND SHIGERU NAGASE
     UNIVERSITY OF NOTRE DAME: DAN CHIPMAN
     KYUSHU UNIVERSITY:
          HARUYUKI NAKANO,
          FENG LONG GU, JACEK KORCHOWIEC, MARCIN MAKOWSKI, AND YURIKO AOKI,
          HIROTOSHI MORI AND EISAKU MIYOSHI
     PENNSYLVANIA STATE UNIVERSITY:
          TZVETELIN IORDANOV, CHET SWALINA, JONATHAN SKONE,
          SHARON HAMMES-SCHIFFER
     WASEDA UNIVERSITY:
          MASATO KOBAYASHI, TOMOKO AKAMA, HIROMI NAKAI

 EXECUTION OF GAMESS BEGUN Mon Jul 14 15:11:28 2014

            ECHO OF THE FIRST FEW INPUT CARDS -
 INPUT CARD> $BASIS GBASIS=N31 NGAUSS=6 $END                                                
 INPUT CARD> $CONTRL SCFTYP=RHF RUNTYP=OPTIMIZE DFTTYP=B3LYP $END                           
 INPUT CARD> $STATPT OPTTOL=0.0001 NSTEP=50 $END                                            
 INPUT CARD>                                                                                
 INPUT CARD> $DATA                                                                          
 INPUT CARD>benzene B3LYP/6-31G OPT                                                         
 INPUT CARD>C1                                                                              
 INPUT CARD>C      6.0      0.1640999900   -1.3726000000   -0.0002000000                    
 INPUT CARD>C      6.0     -1.1066000000   -0.8283999600    0.0001000000                    
 INPUT CARD>C      6.0     -1.2707000000    0.5442000000   -0.0000000000                    
 INPUT CARD>C      6.0     -0.1640999900    1.3726000000    0.0000000000                    
 INPUT CARD>C      6.0      1.1066000000    0.8283999600    0.0006000000                    
 INPUT CARD>C      6.0      1.2707000000   -0.5442000000   -0.0007000000                    
 INPUT CARD>H      1.0      0.2923000000   -2.4449000000    0.0044000000                    
 INPUT CARD>H      1.0     -1.9712000000   -1.4756000000    0.0000000000                    
 INPUT CARD>H      1.0     -2.2635000000    0.9693000000   -0.0005000000                    
 INPUT CARD>H      1.0     -0.2923000000    2.4449000000   -0.0008000000                    
 INPUT CARD>H      1.0      1.9712000000    1.4756000000   -0.0001000000                    
 INPUT CARD>H      1.0      2.2635000000   -0.9693000000    0.0002000000                    
 INPUT CARD> $END                                                                           
 INPUT CARD>                                                                                
 INPUT CARD>                                                                                
    1000000 WORDS OF MEMORY AVAILABLE

     BASIS OPTIONS
     -------------
     GBASIS=N31          IGAUSS=       6      POLAR=NONE    
     NDFUNC=       0     NFFUNC=       0     DIFFSP=       F
     NPFUNC=       0      DIFFS=       F


     RUN TITLE
     ---------
 benzene B3LYP/6-31G OPT                                                         

 THE POINT GROUP OF THE MOLECULE IS C1      
 THE ORDER OF THE PRINCIPAL AXIS IS     0

 ATOM      ATOMIC                      COORDINATES (BOHR)
           CHARGE         X                   Y                   Z
 C           6.0     0.3101040157       -2.5938378907       -0.0003779452
 C           6.0    -2.0911707780       -1.5654489326        0.0001889726
 C           6.0    -2.4012748126        1.0283888825        0.0000000000
 C           6.0    -0.3101040157        2.5938378907        0.0000000000
 C           6.0     2.0911707780        1.5654489326        0.0011338356
 C           6.0     2.4012748126       -1.0283888825       -0.0013228082
 H           1.0     0.5523669062       -4.6201910674        0.0083147943
 H           1.0    -3.7250278670       -2.7884796675        0.0000000000
 H           1.0    -4.2773947732        1.8317113999       -0.0009448630
 H           1.0    -0.5523669062        4.6201910674       -0.0015117808
 H           1.0     3.7250278670        2.7884796675       -0.0001889726
 H           1.0     4.2773947732       -1.8317113999        0.0003779452

          INTERNUCLEAR DISTANCES (ANGS.)
          ------------------------------

                1 C          2 C          3 C          4 C          5 C     

   1 C       0.0000000    1.3823286 *  2.3943211 *  2.7647492 *  2.3943074 *
   2 C       1.3823286 *  0.0000000    1.3823746 *  2.3943072 *  2.7646411 *
   3 C       2.3943211 *  1.3823746 *  0.0000000    1.3823206 *  2.3942275 *
   4 C       2.7647492 *  2.3943072 *  1.3823206 *  0.0000000    1.3823287 *
   5 C       2.3943074 *  2.7646411 *  2.3942275 *  1.3823287 *  0.0000000  
   6 C       1.3823207 *  2.3942275 *  2.7646571 *  2.3943211 *  1.3823752 *
   7 H       1.0799462 *  2.1377587 *  3.3730857    3.8446881    3.3730686  
   8 H       2.1377828 *  1.0800005 *  2.1378242 *  3.3731074    3.8446416  
   9 H       3.3730902    2.1377893 *  1.0799825 *  2.1377866 *  3.3730443  
  10 H       3.8446856    3.3730665    2.1377389 *  1.0799367 *  2.1377548 *
  11 H       3.3731074    3.8446416    3.3730434    2.1377827 *  1.0800007 *
  12 H       2.1377866 *  3.3730442    3.8446394    3.3730902    2.1377893 *

                6 C          7 H          8 H          9 H         10 H     

   1 C       1.3823207 *  1.0799462 *  2.1377828 *  3.3730902    3.8446856  
   2 C       2.3942275 *  2.1377587 *  1.0800005 *  2.1377893 *  3.3730665  
   3 C       2.7646571 *  3.3730857    2.1378242 *  1.0799825 *  2.1377389 *
   4 C       2.3943211 *  3.8446881    3.3731074    2.1377866 *  1.0799367 *
   5 C       1.3823752 *  3.3730686    3.8446416    3.3730443    2.1377548 *
   6 C       0.0000000    2.1377449 *  3.3730434    3.8446394    3.3730828  
   7 H       2.1377449 *  0.0000000    2.4623148 *  4.2648446    4.9246247  
   8 H       3.3730434    2.4623148 *  0.0000000    2.4623110 *  4.2648594  
   9 H       3.8446394    4.2648446    2.4623110 *  0.0000000    2.4623210 *
  10 H       3.3730828    4.9246247    4.2648594    2.4623210 *  0.0000000  
  11 H       2.1378243 *  4.2648617    4.9246420    4.2648592    2.4623110 *
  12 H       1.0799827 *  2.4623246 *  4.2648592    4.9246218    4.2648419  

               11 H         12 H     

   1 C       3.3731074    2.1377866 *
   2 C       3.8446416    3.3730442  
   3 C       3.3730434    3.8446394  
   4 C       2.1377827 *  3.3730902  
   5 C       1.0800007 *  2.1377893 *
   6 C       2.1378243 *  1.0799827 *
   7 H       4.2648617    2.4623246 *
   8 H       4.9246420    4.2648592  
   9 H       4.2648592    4.9246218  
  10 H       2.4623110 *  4.2648419  
  11 H       0.0000000    2.4623110 *
  12 H       2.4623110 *  0.0000000  

  * ... LESS THAN  3.000


     ATOMIC BASIS SET
     ----------------
 THE CONTRACTED PRIMITIVE FUNCTIONS HAVE BEEN UNNORMALIZED
 THE CONTRACTED BASIS FUNCTIONS ARE NOW NORMALIZED TO UNITY

  SHELL TYPE  PRIMITIVE        EXPONENT          CONTRACTION COEFFICIENT(S)

 C         

      1   S       1          3047.5248800    0.001834737132
      1   S       2           457.3695180    0.014037322813
      1   S       3           103.9486850    0.068842622264
      1   S       4            29.2101553    0.232184443216
      1   S       5             9.2866630    0.467941348435
      1   S       6             3.1639270    0.362311985337

      2   L       7             7.8682724   -0.119332419775    0.068999066591
      2   L       8             1.8812885   -0.160854151696    0.316423960957
      2   L       9             0.5442493    1.143456437840    0.744308290898

      3   L      10             0.1687145    1.000000000000    1.000000000000

 C         

      4   S      11          3047.5248800    0.001834737132
      4   S      12           457.3695180    0.014037322813
      4   S      13           103.9486850    0.068842622264
      4   S      14            29.2101553    0.232184443216
      4   S      15             9.2866630    0.467941348435
      4   S      16             3.1639270    0.362311985337

      5   L      17             7.8682724   -0.119332419775    0.068999066591
      5   L      18             1.8812885   -0.160854151696    0.316423960957
      5   L      19             0.5442493    1.143456437840    0.744308290898

      6   L      20             0.1687145    1.000000000000    1.000000000000

 C         

      7   S      21          3047.5248800    0.001834737132
      7   S      22           457.3695180    0.014037322813
      7   S      23           103.9486850    0.068842622264
      7   S      24            29.2101553    0.232184443216
      7   S      25             9.2866630    0.467941348435
      7   S      26             3.1639270    0.362311985337

      8   L      27             7.8682724   -0.119332419775    0.068999066591
      8   L      28             1.8812885   -0.160854151696    0.316423960957
      8   L      29             0.5442493    1.143456437840    0.744308290898

      9   L      30             0.1687145    1.000000000000    1.000000000000

 C         

     10   S      31          3047.5248800    0.001834737132
     10   S      32           457.3695180    0.014037322813
     10   S      33           103.9486850    0.068842622264
     10   S      34            29.2101553    0.232184443216
     10   S      35             9.2866630    0.467941348435
     10   S      36             3.1639270    0.362311985337

     11   L      37             7.8682724   -0.119332419775    0.068999066591
     11   L      38             1.8812885   -0.160854151696    0.316423960957
     11   L      39             0.5442493    1.143456437840    0.744308290898

     12   L      40             0.1687145    1.000000000000    1.000000000000

 C         

     13   S      41          3047.5248800    0.001834737132
     13   S      42           457.3695180    0.014037322813
     13   S      43           103.9486850    0.068842622264
     13   S      44            29.2101553    0.232184443216
     13   S      45             9.2866630    0.467941348435
     13   S      46             3.1639270    0.362311985337

     14   L      47             7.8682724   -0.119332419775    0.068999066591
     14   L      48             1.8812885   -0.160854151696    0.316423960957
     14   L      49             0.5442493    1.143456437840    0.744308290898

     15   L      50             0.1687145    1.000000000000    1.000000000000

 C         

     16   S      51          3047.5248800    0.001834737132
     16   S      52           457.3695180    0.014037322813
     16   S      53           103.9486850    0.068842622264
     16   S      54            29.2101553    0.232184443216
     16   S      55             9.2866630    0.467941348435
     16   S      56             3.1639270    0.362311985337

     17   L      57             7.8682724   -0.119332419775    0.068999066591
     17   L      58             1.8812885   -0.160854151696    0.316423960957
     17   L      59             0.5442493    1.143456437840    0.744308290898

     18   L      60             0.1687145    1.000000000000    1.000000000000

 H         

     19   S      61            18.7311370    0.033494604338
     19   S      62             2.8253944    0.234726953484
     19   S      63             0.6401217    0.813757326146

     20   S      64             0.1612778    1.000000000000

 H         

     21   S      65            18.7311370    0.033494604338
     21   S      66             2.8253944    0.234726953484
     21   S      67             0.6401217    0.813757326146

     22   S      68             0.1612778    1.000000000000

 H         

     23   S      69            18.7311370    0.033494604338
     23   S      70             2.8253944    0.234726953484
     23   S      71             0.6401217    0.813757326146

     24   S      72             0.1612778    1.000000000000

 H         

     25   S      73            18.7311370    0.033494604338
     25   S      74             2.8253944    0.234726953484
     25   S      75             0.6401217    0.813757326146

     26   S      76             0.1612778    1.000000000000

 H         

     27   S      77            18.7311370    0.033494604338
     27   S      78             2.8253944    0.234726953484
     27   S      79             0.6401217    0.813757326146

     28   S      80             0.1612778    1.000000000000

 H         

     29   S      81            18.7311370    0.033494604338
     29   S      82             2.8253944    0.234726953484
     29   S      83             0.6401217    0.813757326146

     30   S      84             0.1612778    1.000000000000

 TOTAL NUMBER OF BASIS SET SHELLS             =   30
 NUMBER OF CARTESIAN GAUSSIAN BASIS FUNCTIONS =   66
 NUMBER OF ELECTRONS                          =   42
 CHARGE OF MOLECULE                           =    0
 SPIN MULTIPLICITY                            =    1
 NUMBER OF OCCUPIED ORBITALS (ALPHA)          =   21
 NUMBER OF OCCUPIED ORBITALS (BETA )          =   21
 TOTAL NUMBER OF ATOMS                        =   12
 THE NUCLEAR REPULSION ENERGY IS      205.1680704076

     LEBEDEV GRID-BASED DFT OPTIONS
     ------------------------------
     DFTTYP=B3LYP   
     NRAD  =      96     NLEB  =     302
     NRAD0 =      24     NLEB0 =     110
     SWOFF =    5.00E-03 (PURE SCF -> DFT)
     SWITCH=    3.00E-04 (COARSE -> TIGHT GRID)
     THRESH=    0.00E+00 GTHRE=    1.00E+00

 GRIMME'S EMPIRICAL DISPERSION CORRECTION= F

     $CONTRL OPTIONS
     ---------------
 SCFTYP=RHF          RUNTYP=OPTIMIZE     EXETYP=RUN     
 MPLEVL=       0     CITYP =NONE         CCTYP =NONE         VBTYP =NONE    
 DFTTYP=B3LYP        TDDFT =NONE    
 MULT  =       1     ICHARG=       0     NZVAR =       0     COORD =UNIQUE  
 PP    =NONE         RELWFN=NONE         LOCAL =NONE         NUMGRD=       F
 ISPHER=      -1     NOSYM =       0     MAXIT =      30     UNITS =ANGS    
 PLTORB=       F     MOLPLT=       F     AIMPAC=       F     FRIEND=        
 NPRINT=       7     IREST =       0     GEOM  =INPUT   
 NORMF =       0     NORMP =       0     ITOL  =      20     ICUT  =       9
 INTTYP=BEST         GRDTYP=BEST         QMTTOL= 1.0E-06

     $SYSTEM OPTIONS
     ---------------
  REPLICATED MEMORY=     1000000 WORDS (ON EVERY NODE).
 DISTRIBUTED MEMDDI=           0 MILLION WORDS IN AGGREGATE,
 MEMDDI DISTRIBUTED OVER   1 PROCESSORS IS           0 WORDS/PROCESSOR.
 TOTAL MEMORY REQUESTED ON EACH PROCESSOR=     1000000 WORDS.
 TIMLIM=      525600.00 MINUTES, OR   365.00 DAYS.
 PARALL= F  BALTYP=  NXTVAL  KDIAG=    0  COREFL= F

          ----------------
          PROPERTIES INPUT
          ----------------

     MOMENTS            FIELD           POTENTIAL          DENSITY
 IEMOM =       1   IEFLD =       0   IEPOT =       0   IEDEN =       0
 WHERE =COMASS     WHERE =NUCLEI     WHERE =NUCLEI     WHERE =NUCLEI  
 OUTPUT=BOTH       OUTPUT=BOTH       OUTPUT=PUNCH      OUTPUT=BOTH    
 IEMINT=       0   IEFINT=       0                     IEDINT=       0
                                                       MORB  =       0
          EXTRAPOLATION IN EFFECT
          DIIS IN EFFECT
 ORBITAL PRINTING OPTION: NPREO=     1    66     2     1

     -------------------------------
     INTEGRAL TRANSFORMATION OPTIONS
     -------------------------------
     NWORD  =         0     CUTOFF = 1.0E-09
     MPTRAN =         0     DIRTRF =       F
     AOINTS =DUP     

          ----------------------
          INTEGRAL INPUT OPTIONS
          ----------------------
 NOPK  =       1 NORDER=       0 SCHWRZ=       T

     ------------------------------------------
     THE POINT GROUP IS C1 , NAXIS= 0, ORDER= 1
     ------------------------------------------

     DIMENSIONS OF THE SYMMETRY SUBSPACES ARE
 A   =   66

 ..... DONE SETTING UP THE RUN .....
 STEP CPU TIME =     0.02 TOTAL CPU TIME =        0.0 (    0.0 MIN)
 TOTAL WALL CLOCK TIME=        1.4 SECONDS, CPU UTILIZATION IS   1.39%


          -----------------------------
          STATIONARY POINT LOCATION RUN
          -----------------------------

 OBTAINING INITIAL HESSIAN, HESS=GUESS   
 CARTESIAN COORDINATE OPTIMIZATION USING BADGER'S RULE FORCE CONSTANT GUESS

          PARAMETERS CONTROLLING GEOMETRY SEARCH ARE
          METHOD =QA                  UPHESS =BFGS    
          NNEG   =         0          NFRZ   =         0
          NSTEP  =        50          IFOLOW =         1
          HESS   =GUESS               RESTAR =         F
          IHREP  =         0          HSSEND =         F
          NPRT   =         0          NPUN   =         0
          OPTTOL = 1.000E-04          RMIN   = 1.500E-03
          RMAX   = 1.000E-01          RLIM   = 7.000E-02
          DXMAX  = 3.000E-01          PURIFY =         F
          MOVIE  =         F          TRUPD  =         T
          TRMAX  = 5.000E-01          TRMIN  = 5.000E-02
          ITBMAT =         5          STPT   =         F
          STSTEP = 1.000E-02          PROJCT=          T

 BEGINNING GEOMETRY SEARCH POINT NSERCH=   0 ...

 COORDINATES OF ALL ATOMS ARE (ANGS)
   ATOM   CHARGE       X              Y              Z
 ------------------------------------------------------------
 C           6.0   0.1640999900  -1.3726000000  -0.0002000000
 C           6.0  -1.1066000000  -0.8283999600   0.0001000000
 C           6.0  -1.2707000000   0.5442000000   0.0000000000
 C           6.0  -0.1640999900   1.3726000000   0.0000000000
 C           6.0   1.1066000000   0.8283999600   0.0006000000
 C           6.0   1.2707000000  -0.5442000000  -0.0007000000
 H           1.0   0.2923000000  -2.4449000000   0.0044000000
 H           1.0  -1.9712000000  -1.4756000000   0.0000000000
 H           1.0  -2.2635000000   0.9693000000  -0.0005000000
 H           1.0  -0.2923000000   2.4449000000  -0.0008000000
 H           1.0   1.9712000000   1.4756000000  -0.0001000000
 H           1.0   2.2635000000  -0.9693000000   0.0002000000

          ********************
          1 ELECTRON INTEGRALS
          ********************
 ...... END OF ONE-ELECTRON INTEGRALS ......
 STEP CPU TIME =     0.01 TOTAL CPU TIME =        0.0 (    0.0 MIN)
 TOTAL WALL CLOCK TIME=        1.5 SECONDS, CPU UTILIZATION IS   2.03%

          -------------
          GUESS OPTIONS
          -------------
          GUESS =HUCKEL            NORB  =       0          NORDER=       0
          MIX   =       F          PRTMO =       F          PUNMO =       F
          TOLZ  = 1.0E-08          TOLE  = 1.0E-05
          SYMDEN=       F          PURIFY=       F

 INITIAL GUESS ORBITALS GENERATED BY HUCKEL   ROUTINE.
 HUCKEL GUESS REQUIRES     45504 WORDS.

 SYMMETRIES FOR INITIAL GUESS ORBITALS FOLLOW.   BOTH SET(S).
    21 ORBITALS ARE OCCUPIED (    6 CORE ORBITALS).
     7=A        8=A        9=A       10=A       11=A       12=A       13=A   
    14=A       15=A       16=A       17=A       18=A       19=A       20=A   
    21=A       22=A       23=A       24=A       25=A       26=A       27=A   
    28=A       29=A       30=A       31=A   
 ...... END OF INITIAL ORBITAL SELECTION ......
 STEP CPU TIME =     0.01 TOTAL CPU TIME =        0.0 (    0.0 MIN)
 TOTAL WALL CLOCK TIME=        1.5 SECONDS, CPU UTILIZATION IS   2.60%

                    ----------------------
                    AO INTEGRAL TECHNOLOGY
                    ----------------------
     S,P,L SHELL ROTATED AXIS INTEGRALS, REPROGRAMMED BY
        KAZUYA ISHIMURA (IMS) AND JOSE SIERRA (SYNSTAR).
     S,P,D,L SHELL ROTATED AXIS INTEGRALS PROGRAMMED BY
        KAZUYA ISHIMURA (INSTITUTE FOR MOLECULAR SCIENCE).
     S,P,D,F,G SHELL TO TOTAL QUARTET ANGULAR MOMENTUM SUM 5,
        ERIC PROGRAM BY GRAHAM FLETCHER (ELORET AND NASA ADVANCED
        SUPERCOMPUTING DIVISION, AMES RESEARCH CENTER).
     S,P,D,F,G,L SHELL GENERAL RYS QUADRATURE PROGRAMMED BY
        MICHEL DUPUIS (PACIFIC NORTHWEST NATIONAL LABORATORY).

          --------------------
          2 ELECTRON INTEGRALS
          --------------------

 THE -PK- OPTION IS OFF, THE INTEGRALS ARE NOT IN SUPERMATRIX FORM.
 STORING   15000 INTEGRALS/RECORD ON DISK, USING 12 BYTES/INTEGRAL.
 TWO ELECTRON INTEGRAL EVALUATION REQUIRES   89821 WORDS OF MEMORY.
 SCHWARZ INEQUALITY OVERHEAD:      2208 INTEGRALS, T=        0.00
 II,JST,KST,LST =  1  1  1  1 NREC =         1 INTLOC =    1
 II,JST,KST,LST =  2  1  1  1 NREC =         1 INTLOC =    2
 II,JST,KST,LST =  3  1  1  1 NREC =         1 INTLOC =   34
 II,JST,KST,LST =  4  1  1  1 NREC =         1 INTLOC =  214
 II,JST,KST,LST =  5  1  1  1 NREC =         1 INTLOC =  702
 II,JST,KST,LST =  6  1  1  1 NREC =         1 INTLOC = 4620
 II,JST,KST,LST =  7  1  1  1 NREC =         1 INTLOC =13000
 II,JST,KST,LST =  8  1  1  1 NREC =         2 INTLOC =  940
 II,JST,KST,LST =  9  1  1  1 NREC =         3 INTLOC = 5317
 II,JST,KST,LST = 10  1  1  1 NREC =         5 INTLOC = 7478
 II,JST,KST,LST = 11  1  1  1 NREC =         6 INTLOC =  382
 II,JST,KST,LST = 12  1  1  1 NREC =         9 INTLOC = 5968
 II,JST,KST,LST = 13  1  1  1 NREC =        14 INTLOC = 6072
 II,JST,KST,LST = 14  1  1  1 NREC =        15 INTLOC = 9983
 II,JST,KST,LST = 15  1  1  1 NREC =        23 INTLOC = 4332
 II,JST,KST,LST = 16  1  1  1 NREC =        33 INTLOC =13652
 II,JST,KST,LST = 17  1  1  1 NREC =        36 INTLOC = 6804
 II,JST,KST,LST = 18  1  1  1 NREC =        50 INTLOC =10603
 II,JST,KST,LST = 19  1  1  1 NREC =        69 INTLOC = 6741
 II,JST,KST,LST = 20  1  1  1 NREC =        73 INTLOC =13994
 II,JST,KST,LST = 21  1  1  1 NREC =        79 INTLOC = 8417
 II,JST,KST,LST = 22  1  1  1 NREC =        84 INTLOC = 4738
 II,JST,KST,LST = 23  1  1  1 NREC =        90 INTLOC = 5894
 II,JST,KST,LST = 24  1  1  1 NREC =        95 INTLOC =10215
 II,JST,KST,LST = 25  1  1  1 NREC =       102 INTLOC = 7254
 II,JST,KST,LST = 26  1  1  1 NREC =       108 INTLOC = 2990
 II,JST,KST,LST = 27  1  1  1 NREC =       115 INTLOC = 9347
 II,JST,KST,LST = 28  1  1  1 NREC =       121 INTLOC =10758
 II,JST,KST,LST = 29  1  1  1 NREC =       129 INTLOC =11725
 II,JST,KST,LST = 30  1  1  1 NREC =       136 INTLOC = 7491
 SCHWARZ INEQUALITY TEST SKIPPED     18090 INTEGRAL BLOCKS.
 TOTAL NUMBER OF NONZERO TWO-ELECTRON INTEGRALS =             2164463
        145 INTEGRAL RECORDS WERE STORED ON DISK FILE  8.
  ...... END OF TWO-ELECTRON INTEGRALS .....
 STEP CPU TIME =     0.59 TOTAL CPU TIME =        0.6 (    0.0 MIN)
 TOTAL WALL CLOCK TIME=        2.2 SECONDS, CPU UTILIZATION IS  29.03%

          --------------------------
             R-B3LYP SCF CALCULATION
          --------------------------

     NUCLEAR ENERGY =       205.1680704076
     MAXIT =   30     NPUNCH=    2
     EXTRAP=T  DAMP=F  SHIFT=F  RSTRCT=F  DIIS=T  DEM=F  SOSCF=F
         DENSITY MATRIX CONVERGENCE THRESHOLD=  1.00E-05
     COARSE -> FINE DFT GRID SWITCH THRESHOLD=  3.00E-04 (SWITCH IN $DFT)
                   HF -> DFT SWITCH THRESHOLD=  5.00E-03 (SWOFF IN $DFT)
     MEMORY REQUIRED FOR RHF ITERS=    471099 WORDS.

 DFT CODE IS SWITCHING FROM THE FINE GRID NRAD= 96,  NLEB=  302
                      TO THE COARSE GRID NRAD0= 24, NLEB0=  110

     EXCHANGE FUNCTIONAL   =B88&HFX   
     CORRELATION FUNCTIONAL=LYP88&VWN5
     DFT THRESHOLD         =.115E-07
     GRID CHANGE THRESHOLD =.300E-03
 FOR AN EULER-MACLAURIN QUADRATURE USING  96 RADIAL POINTS:
 SMALLEST GAUSSIAN PRIMITIVE EXPONENT=        0.1612777588 OF TYPE -S-
 ON ATOM NUMBER   7 HAS RADIAL NORMALIZATION=  1.000000
  LARGEST GAUSSIAN PRIMITIVE EXPONENT=     3047.5248800000 OF TYPE -S-
 ON ATOM NUMBER   1 HAS RADIAL NORMALIZATION=  1.000000
 DFT IS SWITCHED OFF, PERFORMING PURE SCF UNTIL SWOFF THRESHOLD IS REACHED.

 ITER EX DEM     TOTAL ENERGY        E CHANGE  DENSITY CHANGE    DIIS ERROR
   1  0  0     -230.2168008067  -230.2168008067   0.204136674   0.582267287
          * * *   INITIATING DIIS PROCEDURE   * * *
   2  1  0     -230.6019418290    -0.3851410223   0.051122584   0.107865846
   3  2  0     -230.6220108448    -0.0200690158   0.011671816   0.027271990
   4  3  0     -230.6238790632    -0.0018682185   0.005146795   0.009414542
   5  4  0     -230.6240620971    -0.0001830339   0.000286968   0.000619670
 CONVERGED TO SWOFF, SO DFT CALCULATION IS NOW SWITCHED ON.
 DFT CODE IS SWITCHING BACK TO THE FINE GRID
          * * *   INITIATING DIIS PROCEDURE   * * *
   6  5  0     -232.0244074459    -1.4003453487   0.097433812   0.093202388
   7  6  0     -232.0385507704    -0.0141433245   0.029584090   0.030494233
   8  7  0     -232.0406991743    -0.0021484039   0.010737828   0.021129406
   9  8  0     -232.0422364521    -0.0015372778   0.000411555   0.000527121
  10  9  0     -232.0422373451    -0.0000008930   0.000033391   0.000027783
  11 10  0     -232.0422373488    -0.0000000038   0.000003332   0.000001970
  12 11  0     -232.0422373489     0.0000000000   0.000001533   0.000002341

          -----------------
          DENSITY CONVERGED
          -----------------
     TIME TO FORM FOCK OPERATORS=      32.5 SECONDS (       2.7 SEC/ITER)
     TIME TO SOLVE SCF EQUATIONS=       0.0 SECONDS (       0.0 SEC/ITER)

 FINAL R-B3LYP ENERGY IS     -232.0422373489 AFTER  12 ITERATIONS
 DFT EXCHANGE + CORRELATION ENERGY =       -28.0526296918
 TOTAL ELECTRON NUMBER             =        41.9997250343

          ------------
          EIGENVECTORS
          ------------

                      1          2          3          4          5
                  -10.1767   -10.1765   -10.1765   -10.1760   -10.1760
                     A          A          A          A          A   
    1  C  1  S    0.405054  -0.158275  -0.550963  -0.145336   0.557236
    2  C  1  S    0.012763  -0.005477  -0.019089  -0.005622   0.021578
    3  C  1  X    0.000051   0.001065  -0.000295  -0.000613  -0.000243
    4  C  1  Y   -0.000437   0.000102  -0.000129  -0.000245   0.000636
    5  C  1  Z    0.000002  -0.000001  -0.000002   0.000000   0.000002
    6  C  1  S   -0.005120   0.003226   0.011451   0.006527  -0.025135
    7  C  1  X   -0.000111  -0.003441   0.000855   0.003355   0.001704
    8  C  1  Y    0.000977  -0.000131   0.001189   0.002115  -0.006418
    9  C  1  Z   -0.000005   0.000000   0.000004  -0.000001  -0.000001
   10  C  2  S    0.406426   0.397447  -0.414372  -0.410424  -0.402806
   11  C  2  S    0.012815   0.013765  -0.014370  -0.015889  -0.015609
   12  C  2  X   -0.000350   0.000534   0.000405  -0.000111  -0.000666
   13  C  2  Y   -0.000264  -0.000603  -0.000662  -0.000661   0.000088
   14  C  2  Z    0.000000  -0.000001   0.000000   0.000001   0.000001
   15  C  2  S   -0.005173  -0.008226   0.008749   0.018478   0.018220
   16  C  2  X    0.000772  -0.002152  -0.000780   0.002308   0.005402
   17  C  2  Y    0.000590   0.001604   0.002514   0.004970   0.000753
   18  C  2  Z    0.000001   0.000002  -0.000001  -0.000001  -0.000003
   19  C  3  S    0.407854   0.558819   0.139779   0.552810  -0.151379
   20  C  3  S    0.012874   0.019376   0.004853   0.021418  -0.005869
   21  C  3  X   -0.000400   0.000194  -0.000402   0.000537  -0.000418
   22  C  3  Y    0.000174   0.000208  -0.001003  -0.000420  -0.000513
   23  C  3  Z    0.000000   0.000000   0.000000   0.000000   0.000000
   24  C  3  S   -0.005260  -0.011778  -0.003009  -0.024969   0.006841
   25  C  3  X    0.000864  -0.001421   0.001065  -0.005620   0.003049
   26  C  3  Y   -0.000381  -0.000327   0.003314   0.003477   0.002577
   27  C  3  Z    0.000001  -0.000001   0.000001  -0.000001   0.000001
   28  C  4  S    0.403875   0.157951   0.551033  -0.145642   0.557100
   29  C  4  S    0.012720   0.005464   0.019086  -0.005633   0.021567
   30  C  4  X   -0.000051   0.001066  -0.000296   0.000613   0.000243
   31  C  4  Y    0.000438   0.000102  -0.000127   0.000245  -0.000634
   32  C  4  Z    0.000000   0.000000   0.000000   0.000000   0.000000
   33  C  4  S   -0.005081  -0.003212  -0.011430   0.006533  -0.025065
   34  C  4  X    0.000110  -0.003442   0.000855  -0.003355  -0.001701
   35  C  4  Y   -0.000987  -0.000135   0.001179  -0.002115   0.006384
   36  C  4  Z   -0.000001   0.000001  -0.000001  -0.000001  -0.000002
   37  C  5  S    0.405782  -0.397406   0.415405  -0.410468  -0.401702
   38  C  5  S    0.012794  -0.013764   0.014404  -0.015890  -0.015564
   39  C  5  X    0.000349   0.000533   0.000405   0.000111   0.000665
   40  C  5  Y    0.000265  -0.000603  -0.000661   0.000661  -0.000089
   41  C  5  Z   -0.000001   0.000001  -0.000001   0.000002   0.000001
   42  C  5  S   -0.005173   0.008223  -0.008771   0.018481   0.018131
   43  C  5  X   -0.000765  -0.002151  -0.000777  -0.002307  -0.005376
   44  C  5  Y   -0.000590   0.001604   0.002511  -0.004972  -0.000728
   45  C  5  Z    0.000004  -0.000003   0.000004  -0.000007  -0.000004
   46  C  6  S    0.407930  -0.558604  -0.138603   0.553022  -0.152615
   47  C  6  S    0.012875  -0.019368  -0.004812   0.021426  -0.005919
   48  C  6  X    0.000401   0.000194  -0.000402  -0.000536   0.000419
   49  C  6  Y   -0.000172   0.000208  -0.001004   0.000421   0.000511
   50  C  6  Z    0.000001  -0.000001  -0.000001   0.000002   0.000000
   51  C  6  S   -0.005247   0.011767   0.002980  -0.024974   0.006935
   52  C  6  X   -0.000873  -0.001418   0.001070   0.005620  -0.003081
   53  C  6  Y    0.000378  -0.000327   0.003316  -0.003479  -0.002560
   54  C  6  Z   -0.000003   0.000005   0.000000  -0.000007   0.000000
   55  H  7  S   -0.000527   0.000223   0.000776   0.000182  -0.000698
   56  H  7  S    0.002228  -0.000526  -0.001810  -0.000236   0.000891
   57  H  8  S   -0.000529  -0.000560   0.000584   0.000514   0.000504
   58  H  8  S    0.002231   0.001309  -0.001347  -0.000660  -0.000638
   59  H  9  S   -0.000531  -0.000788  -0.000197  -0.000692   0.000189
   60  H  9  S    0.002231   0.001820   0.000450   0.000879  -0.000240
   61  H 10  S   -0.000525  -0.000222  -0.000776   0.000182  -0.000697
   62  H 10  S    0.002226   0.000526   0.001813  -0.000237   0.000897
   63  H 11  S   -0.000528   0.000560  -0.000586   0.000514   0.000503
   64  H 11  S    0.002228  -0.001309   0.001352  -0.000660  -0.000641
   65  H 12  S   -0.000531   0.000788   0.000196  -0.000692   0.000191
   66  H 12  S    0.002233  -0.001819  -0.000445   0.000880  -0.000238

                      6          7          8          9         10
                  -10.1757    -0.8569    -0.7451    -0.7451    -0.6000
                     A          A          A          A          A   
    1  C  1  S   -0.407679  -0.093929  -0.129544  -0.018685   0.034513
    2  C  1  S   -0.017588   0.180530   0.258965   0.037360  -0.070947
    3  C  1  X    0.000089  -0.007788   0.013131  -0.115288   0.195103
    4  C  1  Y   -0.000730   0.065163   0.030628  -0.009591   0.045649
    5  C  1  Z    0.000001   0.000066   0.000161   0.000042  -0.000159
    6  C  1  S    0.042291   0.105734   0.187155   0.026944  -0.054329
    7  C  1  X   -0.002127  -0.001161   0.002627  -0.010823   0.043690
    8  C  1  Y    0.017750   0.009579  -0.008322  -0.002571   0.022300
    9  C  1  Z   -0.000013   0.000012   0.000078   0.000018  -0.000069
   10  C  2  S    0.406160  -0.093923  -0.048591  -0.121528   0.065704
   11  C  2  S    0.017536   0.180511   0.097135   0.242948  -0.135044
   12  C  2  X    0.000591   0.052538   0.073657  -0.004317  -0.063122
   13  C  2  Y    0.000438   0.039316  -0.080335   0.050921   0.154742
   14  C  2  Z    0.000000  -0.000018   0.000002  -0.000025  -0.000009
   15  C  2  S   -0.042260   0.105843   0.070241   0.175615  -0.103600
   16  C  2  X   -0.014315   0.007792   0.003648  -0.008912   0.003383
   17  C  2  Y   -0.010702   0.005836  -0.010226  -0.001505   0.049238
   18  C  2  Z    0.000006   0.000002  -0.000016  -0.000004  -0.000007
   19  C  3  S   -0.404773  -0.093925   0.080953  -0.102844  -0.100217
   20  C  3  S   -0.017490   0.180518  -0.161826   0.205594   0.205976
   21  C  3  X   -0.000678   0.060328  -0.052706  -0.007388  -0.044444
   22  C  3  Y    0.000287  -0.025824  -0.077272  -0.075417   0.059754
   23  C  3  Z    0.000000  -0.000002   0.000011  -0.000009  -0.000041
   24  C  3  S    0.042246   0.105735  -0.116970   0.148586   0.157980
   25  C  3  X    0.016438   0.008862   0.001468  -0.009016  -0.041785
   26  C  3  Y   -0.007027  -0.003812  -0.010160  -0.003672   0.027296
   27  C  3  Z    0.000000  -0.000007   0.000005  -0.000006  -0.000024
   28  C  4  S    0.408956  -0.093931   0.129544   0.018685   0.034514
   29  C  4  S    0.017637   0.180517  -0.258964  -0.037358  -0.070942
   30  C  4  X    0.000090   0.007789   0.013132  -0.115287  -0.195103
   31  C  4  Y   -0.000731  -0.065160   0.030626  -0.009592  -0.045650
   32  C  4  Z    0.000001   0.000006  -0.000001  -0.000014  -0.000038
   33  C  4  S   -0.042344   0.105899  -0.187170  -0.026953  -0.054396
   34  C  4  X   -0.002131   0.001146   0.002611  -0.010824  -0.043696
   35  C  4  Y    0.017763  -0.009682  -0.008321  -0.002557  -0.022250
   36  C  4  Z   -0.000006   0.000004   0.000006  -0.000003  -0.000001
   37  C  5  S   -0.406838  -0.093922   0.048591   0.121528   0.065703
   38  C  5  S   -0.017563   0.180518  -0.097135  -0.242948  -0.135048
   39  C  5  X    0.000592  -0.052539   0.073657  -0.004317   0.063122
   40  C  5  Y    0.000438  -0.039317  -0.080336   0.050922  -0.154741
   41  C  5  Z    0.000001  -0.000093   0.000038   0.000136   0.000038
   42  C  5  S    0.042296   0.105733  -0.070238  -0.175615  -0.103528
   43  C  5  X   -0.014327  -0.007710   0.003637  -0.008914  -0.003424
   44  C  5  Y   -0.010704  -0.005775  -0.010210  -0.001504  -0.049271
   45  C  5  Z   -0.000016  -0.000022   0.000009   0.000039  -0.000009
   46  C  6  S    0.404644  -0.093926  -0.080954   0.102844  -0.100216
   47  C  6  S    0.017484   0.180507   0.161825  -0.205595   0.205979
   48  C  6  X   -0.000677  -0.060327  -0.052706  -0.007387   0.044443
   49  C  6  Y    0.000288   0.025824  -0.077272  -0.075418  -0.059753
   50  C  6  Z    0.000001   0.000097   0.000089  -0.000117   0.000093
   51  C  6  S   -0.042235   0.105898   0.116981  -0.148576   0.157909
   52  C  6  X    0.016431  -0.008962   0.001469  -0.009027   0.041833
   53  C  6  Y   -0.007032   0.003825  -0.010146  -0.003667  -0.027319
   54  C  6  Z   -0.000010   0.000023   0.000010  -0.000040   0.000036
   55  H  7  S    0.000739   0.035674   0.077346   0.011157  -0.038786
   56  H  7  S    0.001975   0.006721   0.015427   0.002214  -0.013679
   57  H  8  S   -0.000737   0.035670   0.029008   0.072561  -0.073830
   58  H  8  S   -0.001979   0.006747   0.005784   0.014473  -0.026049
   59  H  9  S    0.000735   0.035669  -0.048330   0.061406   0.112620
   60  H  9  S    0.001985   0.006721  -0.009642   0.012237   0.039742
   61  H 10  S   -0.000741   0.035677  -0.077347  -0.011157  -0.038788
   62  H 10  S   -0.001972   0.006749  -0.015425  -0.002221  -0.013695
   63  H 11  S    0.000737   0.035666  -0.029008  -0.072561  -0.073829
   64  H 11  S    0.001978   0.006713  -0.005785  -0.014473  -0.026032
   65  H 12  S   -0.000734   0.035671   0.048330  -0.061406   0.112618
   66  H 12  S   -0.001984   0.006746   0.009643  -0.012231   0.039723

                     11         12         13         14         15
                   -0.6000    -0.5244    -0.4543    -0.4451    -0.4201
                     A          A          A          A          A   
    1  C  1  S   -0.095791  -0.010632  -0.058454   0.000033  -0.021745
    2  C  1  S    0.196888   0.024224   0.121925  -0.000068   0.051780
    3  C  1  X    0.078553   0.023574   0.016013   0.276107  -0.020362
    4  C  1  Y   -0.052596  -0.197297  -0.132628   0.033074   0.305894
    5  C  1  Z    0.000278   0.000402   0.000698  -0.000146  -0.001249
    6  C  1  S    0.150927   0.037145   0.130803  -0.000138   0.104104
    7  C  1  X    0.022032   0.008275   0.007166   0.088012  -0.018308
    8  C  1  Y   -0.044706  -0.068779  -0.059867   0.010514   0.089765
    9  C  1  Z    0.000137   0.000148   0.000303  -0.000046  -0.000470
   10  C  2  S    0.077786  -0.010637   0.058465  -0.000028  -0.007132
   11  C  2  S   -0.159883   0.024239  -0.121945   0.000061   0.016989
   12  C  2  X    0.121836  -0.159060   0.106756  -0.166720   0.127606
   13  C  2  Y   -0.079399  -0.119060   0.080105   0.222539  -0.002503
   14  C  2  Z    0.000058   0.000088   0.000227  -0.000008  -0.000655
   15  C  2  S   -0.122557   0.037053  -0.130877   0.000040   0.034132
   16  C  2  X    0.049469  -0.055512   0.048207  -0.053152   0.002033
   17  C  2  Y   -0.002383  -0.041566   0.036176   0.070982   0.047326
   18  C  2  Z   -0.000016   0.000018   0.000087  -0.000028  -0.000337
   19  C  3  S    0.018008  -0.010629  -0.058459   0.000034   0.014584
   20  C  3  S   -0.037009   0.024221   0.121934  -0.000070  -0.034739
   21  C  3  X    0.092638  -0.182654  -0.122787  -0.109415  -0.213534
   22  C  3  Y    0.186955   0.078196   0.052440  -0.255626   0.023572
   23  C  3  Z    0.000002  -0.000033   0.000063   0.000045  -0.000527
   24  C  3  S   -0.028393   0.037071   0.130808  -0.000124  -0.069803
   25  C  3  X    0.027101  -0.063752  -0.055442  -0.034938  -0.044884
   26  C  3  Y    0.040838   0.027274   0.023673  -0.081573   0.050918
   27  C  3  Z    0.000015  -0.000007   0.000033   0.000029  -0.000248
   28  C  4  S   -0.095790  -0.010631   0.058454  -0.000033   0.021745
   29  C  4  S    0.196887   0.024233  -0.121921   0.000069  -0.051782
   30  C  4  X   -0.078553  -0.023575   0.016012   0.276106  -0.020362
   31  C  4  Y    0.052599   0.197302  -0.132629   0.033074   0.305895
   32  C  4  Z   -0.000031  -0.000075   0.000164   0.000124  -0.000580
   33  C  4  S    0.150924   0.037019  -0.130817   0.000133  -0.104099
   34  C  4  X   -0.022040  -0.008250   0.007174   0.088014  -0.018323
   35  C  4  Y    0.044720   0.068860  -0.059858   0.010514   0.089751
   36  C  4  Z   -0.000033  -0.000017   0.000080   0.000044  -0.000295
   37  C  5  S    0.077787  -0.010637  -0.058465   0.000028   0.007132
   38  C  5  S   -0.159886   0.024235   0.121942  -0.000061  -0.016990
   39  C  5  X   -0.121836   0.159063   0.106756  -0.166720   0.127607
   40  C  5  Y    0.079398   0.119060   0.080110   0.222541  -0.002506
   41  C  5  Z    0.000123   0.000026   0.000067   0.000101  -0.000485
   42  C  5  S   -0.122542   0.037116   0.130894  -0.000035  -0.034126
   43  C  5  X   -0.049476   0.055454   0.048204  -0.053157   0.002023
   44  C  5  Y    0.002377   0.041517   0.036163   0.070976   0.047333
   45  C  5  Z    0.000034  -0.000002   0.000045   0.000017  -0.000205
   46  C  6  S    0.018007  -0.010629   0.058459  -0.000034  -0.014584
   47  C  6  S   -0.037008   0.024232  -0.121933   0.000071   0.034741
   48  C  6  X   -0.092638   0.182653  -0.122785  -0.109415  -0.213537
   49  C  6  Y   -0.186955  -0.078197   0.052435  -0.255627   0.023576
   50  C  6  Z   -0.000019   0.000094   0.000157  -0.000116  -0.000633
   51  C  6  S   -0.028396   0.036939  -0.130812   0.000123   0.069791
   52  C  6  X   -0.027096   0.063830  -0.055446  -0.034934  -0.044866
   53  C  6  Y   -0.040847  -0.027274   0.023656  -0.081579   0.050926
   54  C  6  Z   -0.000024   0.000036   0.000066  -0.000016  -0.000290
   55  H  7  S    0.107659   0.107827   0.145555  -0.000077  -0.166168
   56  H  7  S    0.037990   0.062312   0.091030  -0.000060  -0.152330
   57  H  8  S   -0.087408   0.107820  -0.145486   0.000102  -0.054652
   58  H  8  S   -0.030842   0.062288  -0.090966   0.000089  -0.050102
   59  H  9  S   -0.020238   0.107816   0.145511  -0.000061   0.111596
   60  H  9  S   -0.007143   0.062286   0.090990  -0.000042   0.102294
   61  H 10  S    0.107661   0.107830  -0.145555   0.000077   0.166167
   62  H 10  S    0.037982   0.062292  -0.091030   0.000061   0.152335
   63  H 11  S   -0.087409   0.107823   0.145487  -0.000102   0.054651
   64  H 11  S   -0.030839   0.062317   0.090971  -0.000085   0.050103
   65  H 12  S   -0.020237   0.107816  -0.145510   0.000061  -0.111599
   66  H 12  S   -0.007147   0.062269  -0.090989   0.000037  -0.102304

                     16         17         18         19         20
                   -0.4201    -0.3640    -0.3383    -0.3383    -0.2471
                     A          A          A          A          A   
    1  C  1  S   -0.004307   0.000092  -0.003510  -0.000228  -0.000134
    2  C  1  S    0.010267  -0.000250   0.013402   0.000867   0.000302
    3  C  1  X   -0.087914  -0.000214  -0.009874  -0.270584  -0.000087
    4  C  1  Y    0.050488   0.000435   0.228720  -0.017616  -0.001418
    5  C  1  Z   -0.000153   0.223579  -0.000341  -0.000110  -0.335720
    6  C  1  S    0.020551   0.000536  -0.015636  -0.000977  -0.000118
    7  C  1  X    0.035602  -0.000151  -0.000804  -0.099412   0.000047
    8  C  1  Y    0.022381   0.000479   0.060669  -0.007982  -0.001391
    9  C  1  Z   -0.000074   0.127439   0.000004  -0.000068  -0.240647
   10  C  2  S   -0.020975  -0.000111   0.001950  -0.002924   0.000045
   11  C  2  S    0.049964   0.000283  -0.007452   0.011174  -0.000155
   12  C  2  X    0.220492   0.000426   0.033807   0.242554  -0.000202
   13  C  2  Y    0.198491   0.001094  -0.256770  -0.006320   0.000555
   14  C  2  Z   -0.000075   0.223566   0.000639  -0.000278  -0.106753
   15  C  2  S    0.100455   0.000004   0.008688  -0.013042   0.000483
   16  C  2  X    0.078019  -0.000242   0.022978   0.073450   0.000404
   17  C  2  Y    0.042816   0.000497  -0.086656  -0.014150   0.000400
   18  C  2  Z   -0.000043   0.127413   0.000374  -0.000154  -0.076506
   19  C  3  S   -0.016686   0.000082   0.001559   0.003152  -0.000058
   20  C  3  S    0.039751  -0.000194  -0.005959  -0.012039   0.000161
   21  C  3  X    0.194380  -0.000651   0.002428  -0.235831  -0.000028
   22  C  3  Y   -0.142680  -0.001118   0.263480  -0.029939  -0.000562
   23  C  3  Z    0.000024   0.223566   0.001271  -0.000310   0.228977
   24  C  3  S    0.079818  -0.000202   0.006975   0.014013  -0.000220
   25  C  3  X    0.074392   0.000025   0.010599  -0.067281  -0.000444
   26  C  3  Y   -0.004093  -0.000235   0.092820  -0.019387  -0.000152
   27  C  3  Z   -0.000005   0.127438   0.000791  -0.000165   0.164131
   28  C  4  S    0.004308   0.000053  -0.003509  -0.000228   0.000001
   29  C  4  S   -0.010264  -0.000130   0.013404   0.000863  -0.000056
   30  C  4  X   -0.087915  -0.000006   0.009871   0.270584  -0.000158
   31  C  4  Y    0.050486   0.002010  -0.228712   0.017616   0.000478
   32  C  4  Z   -0.000067   0.223574   0.001787  -0.000087   0.335720
   33  C  4  S   -0.020579  -0.000546  -0.015677  -0.000932   0.000650
   34  C  4  X    0.035621  -0.000050   0.000797   0.099424  -0.000044
   35  C  4  Y    0.022413   0.000796  -0.060630   0.007957  -0.000087
   36  C  4  Z   -0.000012   0.127438   0.001000  -0.000070   0.240647
   37  C  5  S    0.020975   0.000006   0.001950  -0.002924  -0.000072
   38  C  5  S   -0.049966  -0.000027  -0.007456   0.011176   0.000197
   39  C  5  X    0.220491   0.000243  -0.033804  -0.242554   0.000086
   40  C  5  Y    0.198490  -0.001220   0.256769   0.006320  -0.000676
   41  C  5  Z    0.000046   0.223564   0.001507  -0.000119   0.106752
   42  C  5  S   -0.100448  -0.000003   0.008736  -0.013081  -0.000097
   43  C  5  X    0.078021  -0.000282  -0.023004  -0.073423   0.000427
   44  C  5  Y    0.042802  -0.000351   0.086635   0.014154  -0.000192
   45  C  5  Z    0.000045   0.127412   0.000900  -0.000063   0.076505
   46  C  6  S    0.016685  -0.000046   0.001559   0.003152  -0.000024
   47  C  6  S   -0.039755   0.000144  -0.005955  -0.012040   0.000022
   48  C  6  X    0.194379  -0.000317  -0.002431   0.235832   0.000193
   49  C  6  Y   -0.142679   0.001064  -0.263479   0.029939   0.000771
   50  C  6  Z   -0.000110   0.223567   0.000598  -0.000096  -0.228978
   51  C  6  S   -0.079790  -0.000040   0.006934   0.014033   0.000634
   52  C  6  X    0.074366   0.000310  -0.010568   0.067256  -0.000296
   53  C  6  Y   -0.004106   0.000508  -0.092837   0.019394   0.000356
   54  C  6  Z   -0.000063   0.127440   0.000365  -0.000073  -0.164133
   55  H  7  S   -0.032867   0.000163  -0.178429  -0.011430   0.000368
   56  H  7  S   -0.030159   0.000079  -0.184365  -0.011807   0.000293
   57  H  8  S   -0.160387  -0.000581   0.099112  -0.148817  -0.000315
   58  H  8  S   -0.147049  -0.000645   0.102403  -0.153772  -0.000193
   59  H  9  S   -0.127469  -0.000075   0.079319   0.160238  -0.000219
   60  H  9  S   -0.116888   0.000045   0.081972   0.165556  -0.000423
   61  H 10  S    0.032866   0.001294  -0.178424  -0.011430   0.000273
   62  H 10  S    0.030144   0.001247  -0.184370  -0.011799   0.000418
   63  H 11  S    0.160386  -0.000495   0.099112  -0.148817  -0.000292
   64  H 11  S    0.147049  -0.000308   0.102415  -0.153778  -0.000491
   65  H 12  S    0.127468  -0.000338   0.079318   0.160238  -0.000289
   66  H 12  S    0.116893  -0.000510   0.081957   0.165567  -0.000207

                     21         22         23         24         25
                   -0.2471     0.0113     0.0113     0.0968     0.1484
                     A          A          A          A          A   
    1  C  1  S    0.000029  -0.000045   0.000219   0.038786  -0.036732
    2  C  1  S   -0.000108   0.000182  -0.000538  -0.063832   0.037321
    3  C  1  X   -0.000064   0.000032  -0.000012  -0.015023   0.021072
    4  C  1  Y    0.000300   0.000110   0.001194   0.125560  -0.238931
    5  C  1  Z    0.070576  -0.003448   0.368627  -0.000625  -0.000113
    6  C  1  S    0.000699  -0.000238   0.000707  -0.530085   0.933573
    7  C  1  X   -0.000140   0.000230   0.000047  -0.034574   0.123805
    8  C  1  Y    0.000752  -0.000294   0.003593   0.288945  -0.591572
    9  C  1  Z    0.050585  -0.004750   0.509321  -0.001935   0.001328
   10  C  2  S   -0.000013   0.000022  -0.000013   0.038810  -0.026942
   11  C  2  S    0.000073  -0.000047   0.000209  -0.063813   0.027300
   12  C  2  X    0.000134  -0.000016   0.000204   0.101252  -0.128567
   13  C  2  Y   -0.000167  -0.000022   0.000036   0.075790  -0.121540
   14  C  2  Z    0.326042  -0.317544  -0.187303  -0.000089   0.001017
   15  C  2  S   -0.000616   0.000287  -0.001965  -0.530721   0.685251
   16  C  2  X   -0.000355   0.000223  -0.001129   0.232709  -0.438384
   17  C  2  Y   -0.000295   0.000176  -0.000600   0.174263  -0.149932
   18  C  2  Z    0.233692  -0.438689  -0.258778   0.000334   0.000936
   19  C  3  S   -0.000008  -0.000019   0.000068   0.038800   0.009811
   20  C  3  S   -0.000024   0.000076  -0.000226  -0.063828  -0.009947
   21  C  3  X   -0.000112  -0.000077   0.000090   0.116256   0.047949
   22  C  3  Y    0.000207   0.000078   0.000205  -0.049799  -0.050656
   23  C  3  Z    0.255462   0.320959  -0.181343   0.000527  -0.001287
   24  C  3  S    0.000617  -0.000070   0.000866  -0.530421  -0.249635
   25  C  3  X    0.000331  -0.000292   0.001332   0.267422   0.224402
   26  C  3  Y   -0.000035   0.000222  -0.000284  -0.114613   0.116468
   27  C  3  Z    0.183125   0.443450  -0.250554   0.000734  -0.002081
   28  C  4  S   -0.000001  -0.000029   0.000011   0.038788   0.036742
   29  C  4  S    0.000052   0.000107   0.000094  -0.063819  -0.037298
   30  C  4  X    0.000129   0.000113  -0.000123   0.015016   0.021075
   31  C  4  Y   -0.000135  -0.000063   0.000223  -0.125565  -0.238926
   32  C  4  Z   -0.070576  -0.003447   0.368628  -0.000460   0.001428
   33  C  4  S   -0.000765   0.000152  -0.002111  -0.530282  -0.933946
   34  C  4  X   -0.000029   0.000136  -0.000548   0.034531   0.123633
   35  C  4  Y    0.000439  -0.000039   0.001474  -0.288897  -0.591525
   36  C  4  Z   -0.050586  -0.004749   0.509326  -0.000760   0.002635
   37  C  5  S    0.000101   0.000075   0.000153   0.038809   0.026939
   38  C  5  S   -0.000305  -0.000087  -0.000441  -0.063826  -0.027290
   39  C  5  X   -0.000092  -0.000061  -0.000117  -0.101257  -0.128570
   40  C  5  Y    0.000330  -0.000041   0.000404  -0.075794  -0.121533
   41  C  5  Z   -0.326041  -0.317545  -0.187299   0.000669  -0.001215
   42  C  5  S    0.000559  -0.000973   0.000525  -0.530603  -0.685183
   43  C  5  X   -0.000602  -0.000100  -0.001772  -0.232845  -0.438555
   44  C  5  Y   -0.000298   0.000003  -0.000175  -0.174313  -0.149667
   45  C  5  Z   -0.233692  -0.438690  -0.258776   0.001147  -0.001739
   46  C  6  S   -0.000086   0.000088  -0.000108   0.038801  -0.009822
   47  C  6  S    0.000270  -0.000139   0.000435  -0.063822   0.009945
   48  C  6  X    0.000023  -0.000112  -0.000169  -0.116260   0.047952
   49  C  6  Y   -0.000044   0.000040   0.000153   0.049795  -0.050661
   50  C  6  Z   -0.255462   0.320959  -0.181346  -0.000358   0.001064
   51  C  6  S   -0.000614  -0.000707  -0.001559  -0.530512   0.249941
   52  C  6  X    0.000668  -0.000421   0.001831  -0.267351   0.224382
   53  C  6  Y   -0.000336   0.000125   0.000177   0.114582   0.116614
   54  C  6  Z   -0.183125   0.443451  -0.250557  -0.000349   0.001101
   55  H  7  S   -0.000097  -0.000013   0.000678   0.060653  -0.043692
   56  H  7  S    0.000055  -0.000190   0.002392   0.754533  -1.210258
   57  H  8  S    0.000012   0.000040   0.000225   0.060656  -0.032030
   58  H  8  S   -0.000116   0.000191   0.000208   0.754499  -0.886983
   59  H  9  S    0.000100  -0.000044   0.000100   0.060660   0.011666
   60  H  9  S    0.000241  -0.000172   0.000852   0.754585   0.323027
   61  H 10  S   -0.000109  -0.000018  -0.000117   0.060656   0.043683
   62  H 10  S   -0.000279  -0.000065  -0.000511   0.754559   1.210329
   63  H 11  S    0.000092   0.000187   0.000193   0.060665   0.032024
   64  H 11  S    0.000337   0.000484   0.001242   0.754591   0.886936
   65  H 12  S    0.000045   0.000212   0.000058   0.060663  -0.011671
   66  H 12  S   -0.000184   0.000660  -0.000358   0.754565  -0.323078

                     26         27         28         29         30
                    0.1484     0.1733     0.1889     0.1889     0.1987
                     A          A          A          A          A   
    1  C  1  S   -0.009878  -0.000524   0.037111  -0.078267   0.054255
    2  C  1  S    0.010057   0.001186  -0.053528   0.112909  -0.148194
    3  C  1  X    0.035116   0.000273   0.064917   0.047398  -0.009286
    4  C  1  Y   -0.060757  -0.000529   0.062298  -0.109364   0.077821
    5  C  1  Z    0.000376  -0.293923  -0.000900   0.002427  -0.001680
    6  C  1  S    0.250983   0.002262  -0.694460   1.463897   0.180040
    7  C  1  X   -0.174632   0.000750   0.368319   0.249460  -0.147067
    8  C  1  Y   -0.184127  -0.005962   0.288709  -0.487127   1.231708
    9  C  1  Z    0.000868  -0.566052  -0.002159   0.006439  -0.004934
   10  C  2  S    0.026875   0.000473  -0.086322   0.006983  -0.054269
   11  C  2  S   -0.027281  -0.000897   0.124492  -0.010105   0.148214
   12  C  2  X    0.152587   0.000812  -0.104692  -0.039348  -0.062769
   13  C  2  Y    0.088853   0.001316  -0.070317   0.069549  -0.046970
   14  C  2  Z   -0.000208   0.293940   0.000471  -0.001508   0.000614
   15  C  2  S   -0.683062  -0.005785   1.614867  -0.130387  -0.179918
   16  C  2  X    0.266774   0.005600  -0.474351  -0.227734  -0.992986
   17  C  2  Y    0.378390   0.004744  -0.310315   0.380931  -0.743395
   18  C  2  Z   -0.000582   0.566036   0.001182  -0.004221   0.002327
   19  C  3  S    0.036763   0.000148   0.049203   0.071276   0.054270
   20  C  3  S   -0.037294  -0.000019  -0.070965  -0.102775  -0.148217
   21  C  3  X    0.223440   0.000317   0.091762   0.077837   0.072084
   22  C  3  Y   -0.087645  -0.000609   0.031893  -0.082465  -0.030837
   23  C  3  Z    0.000243  -0.293930  -0.000433   0.001543  -0.000477
   24  C  3  S   -0.934796  -0.005107  -0.920498  -1.333612   0.179790
   25  C  3  X    0.532819  -0.001697   0.440107   0.330097   1.140275
   26  C  3  Y   -0.284967  -0.002702   0.208271  -0.415310  -0.488418
   27  C  3  Z    0.000594  -0.566052  -0.001000   0.003666  -0.000896
   28  C  4  S    0.009891  -0.000496   0.037141  -0.078261  -0.054251
   29  C  4  S   -0.010052   0.000638  -0.053564   0.112846   0.148187
   30  C  4  X    0.035115  -0.000108  -0.064926  -0.047400  -0.009328
   31  C  4  Y   -0.060764   0.001456  -0.062316   0.109314   0.077805
   32  C  4  Z   -0.000069   0.293930   0.000635  -0.001666   0.000466
   33  C  4  S   -0.251337   0.012665  -0.694790   1.464365  -0.180097
   34  C  4  X   -0.174846  -0.000769  -0.368434  -0.249478  -0.147544
   35  C  4  Y   -0.184084   0.003100  -0.289128   0.486535   1.231646
   36  C  4  Z    0.000019   0.566072   0.001523  -0.003606   0.000248
   37  C  5  S   -0.026883   0.000004  -0.086351   0.006985   0.054231
   38  C  5  S    0.027276   0.000318   0.124534  -0.010067  -0.148154
   39  C  5  X    0.152584   0.000616   0.104702   0.039336  -0.062707
   40  C  5  Y    0.088858  -0.000342   0.070343  -0.069551  -0.046938
   41  C  5  Z   -0.000079  -0.293940  -0.000814   0.001531  -0.000294
   42  C  5  S    0.683282  -0.002124   1.615104  -0.130944   0.180572
   43  C  5  X    0.266606   0.004410   0.474551   0.228095  -0.992915
   44  C  5  Y    0.378589  -0.000692   0.310730  -0.380564  -0.743065
   45  C  5  Z   -0.000625  -0.566036  -0.002183   0.003902  -0.001516
   46  C  6  S   -0.036765   0.000546   0.049232   0.071269  -0.054238
   47  C  6  S    0.037279  -0.000908  -0.071025  -0.102819   0.148167
   48  C  6  X    0.223436  -0.000725  -0.091819  -0.077822   0.072023
   49  C  6  Y   -0.087651   0.000998  -0.031868   0.082454  -0.030841
   50  C  6  Z    0.000077   0.293925   0.000324  -0.001861   0.001016
   51  C  6  S    0.934900  -0.006102  -0.920519  -1.332862  -0.180369
   52  C  6  X    0.532786  -0.006064  -0.440518  -0.330567   1.140140
   53  C  6  Y   -0.284859   0.002640  -0.208037   0.415502  -0.488131
   54  C  6  Z    0.000571   0.566037   0.001168  -0.005246   0.002422
   55  H  7  S   -0.011757  -0.000868   0.005279  -0.011170   0.044195
   56  H  7  S   -0.325646  -0.005252   0.553266  -1.167429   1.235901
   57  H  8  S    0.031955   0.000140  -0.012323   0.000984  -0.044216
   58  H  8  S    0.885240   0.010830  -1.287188   0.104180  -1.235911
   59  H  9  S    0.043708   0.000019   0.007022   0.010155   0.044210
   60  H  9  S    1.210776   0.001880   0.733835   1.062798   1.235995
   61  H 10  S    0.011763  -0.000131   0.005295  -0.011161  -0.044198
   62  H 10  S    0.325717  -0.008749   0.553779  -1.167012  -1.235845
   63  H 11  S   -0.031952   0.000054  -0.012339   0.000978   0.044215
   64  H 11  S   -0.885302  -0.002708  -1.287704   0.103968   1.235323
   65  H 12  S   -0.043702   0.000350   0.007048   0.010161  -0.044208
   66  H 12  S   -1.210744   0.009450   0.734448   1.062962  -1.235486

                     31         32         33         34         35
                    0.3139     0.3139     0.3344     0.3345     0.4937
                     A          A          A          A          A   
    1  C  1  S    0.052650   0.056412  -0.052250  -0.005846  -0.000034
    2  C  1  S   -0.052706  -0.056422   0.035341   0.003975  -0.000040
    3  C  1  X    0.029930   0.014404  -0.038800   0.294421  -0.347223
    4  C  1  Y   -0.175830  -0.190561   0.044301   0.040710  -0.041476
    5  C  1  Z    0.000795   0.000893  -0.000747  -0.000127   0.000151
    6  C  1  S   -1.513691  -1.622089   2.136233   0.239063   0.001302
    7  C  1  X    0.812149  -0.487037  -0.269107   2.133150   0.533043
    8  C  1  Y   -1.052299  -1.289988   0.225354   0.283444   0.064456
    9  C  1  Z    0.001567   0.002236  -0.000987  -0.000610  -0.000097
   10  C  2  S   -0.075180   0.017389  -0.021056  -0.048219   0.000005
   11  C  2  S    0.075251  -0.017415   0.014170   0.032610   0.000019
   12  C  2  X    0.205261  -0.039993  -0.148544   0.107589   0.209593
   13  C  2  Y    0.150399  -0.044799   0.231068  -0.068841  -0.279950
   14  C  2  Z   -0.000082  -0.000025   0.000412   0.000068   0.000132
   15  C  2  S    2.161418  -0.499269   0.861304   1.971382  -0.000490
   16  C  2  X    1.430055   0.243205  -1.105877   0.708876  -0.322393
   17  C  2  Y    0.808757  -0.953928   1.650132  -0.551455   0.429507
   18  C  2  Z   -0.001134  -0.001091   0.000548  -0.000291  -0.000117
   19  C  3  S    0.022557  -0.073845   0.031232  -0.042261  -0.000023
   20  C  3  S   -0.022557   0.073885  -0.021066   0.028617   0.000017
   21  C  3  X   -0.065537   0.231055   0.067981   0.105802   0.137784
   22  C  3  Y    0.040744  -0.094938   0.232563   0.147608   0.321701
   23  C  3  Z   -0.000057   0.000261  -0.000052   0.000026  -0.000099
   24  C  3  S   -0.648249   2.123496  -1.276928   1.728541   0.001123
   25  C  3  X   -0.096857   1.579007   0.544362   0.695714  -0.210541
   26  C  3  Y    1.013452  -0.378041   1.661933   1.100862  -0.493178
   27  C  3  Z    0.000437   0.000909  -0.000145   0.000063   0.000073
   28  C  4  S    0.052682   0.056452   0.052192   0.005847   0.000033
   29  C  4  S   -0.052614  -0.056383  -0.035234  -0.003978   0.000034
   30  C  4  X   -0.030145  -0.014230  -0.038777   0.294385  -0.347212
   31  C  4  Y    0.175841   0.190635   0.044078   0.040693  -0.041465
   32  C  4  Z   -0.000277  -0.000276  -0.000062  -0.000023  -0.000155
   33  C  4  S   -1.515755  -1.624010  -2.134716  -0.239069  -0.001289
   34  C  4  X   -0.814152   0.488392  -0.270748   2.133221   0.533428
   35  C  4  Y    1.053119   1.290486   0.224082   0.283503   0.064467
   36  C  4  Z   -0.000913  -0.000913  -0.000855   0.000195   0.000095
   37  C  5  S   -0.075228   0.017436   0.021077   0.048142  -0.000007
   38  C  5  S    0.075165  -0.017421  -0.014216  -0.032504   0.000000
   39  C  5  X   -0.205403   0.039978  -0.148530   0.107398   0.209596
   40  C  5  Y   -0.150268   0.044904   0.231117  -0.069009  -0.279976
   41  C  5  Z    0.000049   0.000038   0.000050   0.000076  -0.000060
   42  C  5  S    2.164130  -0.501217  -0.861779  -1.969374   0.000493
   43  C  5  X   -1.431850  -0.243605  -1.106144   0.708582  -0.322146
   44  C  5  Y   -0.808230   0.954680   1.651062  -0.553579   0.429193
   45  C  5  Z   -0.000662   0.001248   0.001023   0.001295   0.000029
   46  C  6  S    0.022533  -0.073833  -0.031197   0.042337   0.000025
   47  C  6  S   -0.022479   0.073866   0.021010  -0.028724  -0.000025
   48  C  6  X    0.065465  -0.230957   0.068159   0.105997   0.137791
   49  C  6  Y   -0.040765   0.095207   0.232528   0.147485   0.321686
   50  C  6  Z   -0.000033  -0.000092   0.000448  -0.000042   0.000016
   51  C  6  S   -0.647719   2.123009   1.275893  -1.730549  -0.001147
   52  C  6  X    0.097430  -1.578000   0.545865   0.696475  -0.210691
   53  C  6  Y   -1.014081   0.380032   1.663579   1.098897  -0.493567
   54  C  6  Z   -0.001406  -0.000061   0.001713  -0.000796   0.000026
   55  H  7  S   -0.013202  -0.014073   0.144805   0.016236  -0.000007
   56  H  7  S   -0.683238  -0.732109  -0.108902  -0.012377   0.000185
   57  H  8  S    0.018841  -0.004270   0.058317   0.133540   0.000047
   58  H  8  S    0.975459  -0.225687  -0.043751  -0.099908  -0.000333
   59  H  9  S   -0.005693   0.018566  -0.086469   0.117318  -0.000017
   60  H  9  S   -0.292058   0.957684   0.064604  -0.088679   0.000134
   61  H 10  S   -0.013232  -0.014172  -0.144796  -0.016242   0.000005
   62  H 10  S   -0.683569  -0.732115   0.109567   0.012359  -0.000170
   63  H 11  S    0.018908  -0.004394  -0.058328  -0.133527  -0.000045
   64  H 11  S    0.975734  -0.225557   0.043594   0.100790   0.000333
   65  H 12  S   -0.005579   0.018540   0.086459  -0.117344   0.000018
   66  H 12  S   -0.292460   0.957704  -0.065113   0.087851  -0.000146

                     36         37         38         39         40
                    0.5280     0.5657     0.5784     0.5977     0.6132
                     A          A          A          A          A   
    1  C  1  S    0.000441   0.114464   0.000369  -0.006594  -0.000316
    2  C  1  S   -0.000509  -0.099935  -0.000636   0.478496  -0.001968
    3  C  1  X    0.000056   0.018920   0.301789  -0.031548   0.000833
    4  C  1  Y    0.000705  -0.166471   0.035402   0.265233   0.003787
    5  C  1  Z    0.425484   0.003869  -0.000530   0.000531   0.509338
    6  C  1  S   -0.014183  -4.313628  -0.011838  -0.284562   0.011272
    7  C  1  X    0.001206   0.368044   3.599681   0.029584  -0.000876
    8  C  1  Y   -0.011033  -3.174170   0.421293  -0.243996   0.000823
    9  C  1  Z   -0.303894  -0.002197  -0.001489  -0.000316  -0.499953
   10  C  2  S   -0.000357  -0.114453  -0.000345  -0.006634   0.000186
   11  C  2  S    0.000186   0.099702   0.000325   0.478429  -0.002175
   12  C  2  X    0.000292   0.133696   0.182700   0.213906  -0.001451
   13  C  2  Y   -0.000005   0.101171  -0.243142   0.160013   0.000396
   14  C  2  Z    0.425380   0.002143   0.000518  -0.000216  -0.048400
   15  C  2  S    0.014078   4.313241   0.012335  -0.284172  -0.004675
   16  C  2  X    0.008237   2.550909   2.178813  -0.195983  -0.003049
   17  C  2  Y    0.006550   1.923367  -2.895838  -0.147401  -0.003203
   18  C  2  Z   -0.303733  -0.002771  -0.000632   0.000253   0.047525
   19  C  3  S    0.000335   0.114462   0.000314  -0.006617  -0.000135
   20  C  3  S   -0.000317  -0.099673  -0.000307   0.478495  -0.001379
   21  C  3  X   -0.000616  -0.153761  -0.120114   0.245596   0.000176
   22  C  3  Y    0.000421   0.066807  -0.279069  -0.105046  -0.000277
   23  C  3  Z    0.425514  -0.001516   0.000470   0.000310  -0.557691
   24  C  3  S   -0.013938  -4.313459  -0.012343  -0.284111   0.008576
   25  C  3  X   -0.009190  -2.932691  -1.434675  -0.225761   0.004318
   26  C  3  Y    0.003532   1.267716  -3.328099   0.095969  -0.002266
   27  C  3  Z   -0.303922   0.001207   0.000204  -0.000400   0.547392
   28  C  4  S   -0.000361  -0.114469  -0.000324  -0.006589   0.000113
   29  C  4  S    0.000154   0.099774   0.000334   0.478516  -0.001541
   30  C  4  X   -0.000067   0.020691  -0.301566   0.031534  -0.000410
   31  C  4  Y   -0.000317  -0.166302  -0.036475  -0.265216  -0.000800
   32  C  4  Z    0.425477  -0.003387  -0.000599  -0.000216  -0.509341
   33  C  4  S    0.014012   4.313911   0.011943  -0.284820  -0.007022
   34  C  4  X    0.001313   0.390595  -3.597553  -0.029578  -0.001413
   35  C  4  Y   -0.010086  -3.171586  -0.439201   0.244140   0.007794
   36  C  4  Z   -0.303888   0.003392  -0.001099   0.000254   0.499960
   37  C  5  S    0.000304   0.114459   0.000336  -0.006641  -0.000287
   38  C  5  S   -0.000014  -0.099565  -0.000479   0.478460  -0.000868
   39  C  5  X    0.000574   0.134700  -0.181662  -0.213904   0.000557
   40  C  5  Y    0.000424   0.099655   0.243632  -0.160009  -0.000858
   41  C  5  Z    0.425368  -0.005867   0.000055   0.000882   0.048396
   42  C  5  S   -0.013761  -4.313549  -0.011601  -0.284012   0.009544
   43  C  5  X    0.007812   2.564829  -2.164586   0.195827  -0.007241
   44  C  5  Y    0.005463   1.905445   2.906630   0.147289  -0.002475
   45  C  5  Z   -0.303713   0.007802   0.001301  -0.000907  -0.047524
   46  C  6  S   -0.000304  -0.114460  -0.000348  -0.006613   0.000413
   47  C  6  S   -0.000184   0.099639   0.000199   0.478501  -0.002048
   48  C  6  X   -0.000458  -0.154353   0.119005  -0.245586   0.000707
   49  C  6  Y   -0.000108   0.065273   0.279497   0.105037   0.000287
   50  C  6  Z    0.425511  -0.002810   0.000076  -0.000803   0.557705
   51  C  6  S    0.013852   4.313587   0.012007  -0.284350  -0.005381
   52  C  6  X   -0.009101  -2.941863   1.418556   0.225899   0.007169
   53  C  6  Y    0.004272   1.246757   3.334956  -0.096006  -0.001324
   54  C  6  Z   -0.303912   0.004608   0.001740   0.000813  -0.547415
   55  H  7  S    0.000937   0.166408   0.000514  -0.125992  -0.002035
   56  H  7  S   -0.003436  -1.264006  -0.003682   0.095928   0.001584
   57  H  8  S   -0.000385  -0.166581  -0.000529  -0.126119  -0.001083
   58  H  8  S    0.003682   1.263675   0.003573   0.096221  -0.002099
   59  H  9  S    0.000392   0.166548   0.000558  -0.126045  -0.001368
   60  H  9  S   -0.003780  -1.263755  -0.003572   0.096174   0.002444
   61  H 10  S   -0.000443  -0.166483  -0.000417  -0.125978  -0.001130
   62  H 10  S    0.003836   1.264076   0.003631   0.095875  -0.002765
   63  H 11  S    0.000372   0.166596   0.000517  -0.126118  -0.001742
   64  H 11  S   -0.003740  -1.263813  -0.003700   0.096304   0.003433
   65  H 12  S   -0.000274  -0.166550  -0.000656  -0.126032  -0.000280
   66  H 12  S    0.003662   1.263807   0.003540   0.096121  -0.003092

                     41         42         43         44         45
                    0.6132     0.6358     0.6359     0.6398     0.6730
                     A          A          A          A          A   
    1  C  1  S   -0.000855  -0.029195   0.068809  -0.008355   0.002577
    2  C  1  S   -0.000503   0.017987  -0.046421  -0.416823   0.031247
    3  C  1  X   -0.001456  -0.535532  -0.197126  -0.005338  -0.003122
    4  C  1  Y    0.003810   0.027321  -0.238328   0.063399  -0.002867
    5  C  1  Z    0.349927   0.000442   0.000087  -0.000310  -0.632916
    6  C  1  S    0.024985   0.045649  -0.102014   0.561520  -0.027917
    7  C  1  X   -0.002535   0.498132   0.226708   0.028313   0.000269
    8  C  1  Y    0.013365   0.108458  -0.090960  -0.256240   0.003960
    9  C  1  Z   -0.343514  -0.000629  -0.000317   0.001140   1.035848
   10  C  2  S    0.000913   0.074166  -0.009205  -0.008303   0.001167
   11  C  2  S   -0.002317  -0.049065   0.004269  -0.416845   0.017848
   12  C  2  X   -0.002082  -0.141856   0.364303   0.049323   0.018234
   13  C  2  Y   -0.001048  -0.194046  -0.438822   0.040001  -0.021503
   14  C  2  Z    0.616015  -0.001762   0.001281  -0.003691   0.281711
   15  C  2  S   -0.022574  -0.110729   0.016441   0.561267  -0.011081
   16  C  2  X   -0.015332  -0.141453  -0.316758  -0.204996  -0.016994
   17  C  2  Y   -0.009033  -0.020998   0.447547  -0.156417   0.023856
   18  C  2  Z   -0.604635   0.002132  -0.001776   0.004335  -0.461037
   19  C  3  S   -0.000885  -0.045044  -0.059692  -0.007808  -0.000829
   20  C  3  S    0.000509   0.028284   0.036936  -0.417205  -0.015950
   21  C  3  X    0.001086  -0.051812   0.306426   0.056884  -0.013278
   22  C  3  Y   -0.001019  -0.476279   0.245029  -0.024589  -0.029097
   23  C  3  Z    0.266185  -0.000882  -0.001950   0.002206   0.351230
   24  C  3  S    0.024242   0.069171   0.092340   0.560938   0.010160
   25  C  3  X    0.018122   0.242472  -0.038972  -0.237831   0.008642
   26  C  3  Y   -0.005708   0.375297  -0.343584   0.102124   0.032702
   27  C  3  Z   -0.261325   0.000921   0.002410  -0.002356  -0.574822
   28  C  4  S    0.000725  -0.029188   0.068797  -0.008354  -0.002864
   29  C  4  S   -0.001410   0.017977  -0.046346  -0.416890  -0.033182
   30  C  4  X    0.001400   0.535566   0.197136   0.005320  -0.001687
   31  C  4  Y    0.000950  -0.027289   0.238290  -0.063402  -0.001345
   32  C  4  Z   -0.349946   0.001115  -0.001151   0.004642  -0.632843
   33  C  4  S   -0.022826   0.045518  -0.101780   0.561549   0.032599
   34  C  4  X   -0.002556  -0.498192  -0.226679  -0.028328   0.004257
   35  C  4  Y    0.018637  -0.108383   0.090724   0.256357   0.000051
   36  C  4  Z    0.343539  -0.001403   0.000989  -0.006019   1.035728
   37  C  5  S   -0.000593   0.074161  -0.009190  -0.008309  -0.001080
   38  C  5  S    0.000428  -0.049077   0.004250  -0.416846  -0.020295
   39  C  5  X   -0.001589   0.141851  -0.364274  -0.049317   0.018897
   40  C  5  Y   -0.000621   0.194013   0.438853  -0.040030  -0.023133
   41  C  5  Z   -0.616001   0.001568  -0.000236  -0.001610   0.281513
   42  C  5  S    0.023652  -0.110525   0.016115   0.561407   0.014664
   43  C  5  X   -0.011377   0.141385   0.316929   0.204940  -0.012483
   44  C  5  Y   -0.011182   0.020973  -0.447409   0.156367   0.023313
   45  C  5  Z    0.604609  -0.001043   0.000156   0.002921  -0.460749
   46  C  6  S    0.000680  -0.045036  -0.059706  -0.007804   0.000787
   47  C  6  S   -0.001946   0.028235   0.036963  -0.417190   0.013609
   48  C  6  X    0.002539   0.051842  -0.306450  -0.056889  -0.014416
   49  C  6  Y    0.000479   0.476285  -0.244993   0.024550  -0.027804
   50  C  6  Z   -0.266157   0.000625   0.001657  -0.000909   0.351339
   51  C  6  S   -0.020998   0.069098   0.092653   0.560809  -0.008124
   52  C  6  X    0.012905  -0.242384   0.038762   0.237892   0.011537
   53  C  6  Y   -0.008411  -0.375373   0.343669  -0.102170   0.024267
   54  C  6  Z    0.261278  -0.000200  -0.001300   0.000302  -0.575029
   55  H  7  S   -0.002575  -0.102495   0.237942  -0.388730   0.020656
   56  H  7  S    0.006891   0.047428  -0.112567  -0.069631   0.003479
   57  H  8  S    0.001153   0.257109  -0.033420  -0.388562   0.010354
   58  H  8  S   -0.008087  -0.121130   0.014720  -0.069605   0.003396
   59  H  9  S   -0.002472  -0.157659  -0.209153  -0.386821  -0.009780
   60  H  9  S    0.008557   0.073249   0.096871  -0.070581  -0.004570
   61  H 10  S    0.000830  -0.102475   0.237933  -0.388743  -0.023726
   62  H 10  S   -0.007898   0.047380  -0.112443  -0.069714  -0.002188
   63  H 11  S   -0.001482   0.257079  -0.033381  -0.388581  -0.012211
   64  H 11  S    0.007305  -0.121092   0.014613  -0.069577  -0.004766
   65  H 12  S    0.000508  -0.157663  -0.209188  -0.386802   0.007161
   66  H 12  S   -0.007024   0.073196   0.096984  -0.070616   0.002385

                     46         47         48         49         50
                    0.6730     0.6750     0.6750     0.7490     0.8609
                     A          A          A          A          A   
    1  C  1  S   -0.000228   0.029568   0.025502   0.000198  -0.001188
    2  C  1  S   -0.002941   0.387664   0.334278   0.000443   0.012289
    3  C  1  X   -0.006076   0.355080  -0.413129  -0.001471   0.065921
    4  C  1  Y   -0.001096   0.049329  -0.043447   0.001294  -0.551616
    5  C  1  Z    0.039936   0.028886   0.027809   0.448065   0.003503
    6  C  1  S    0.002160  -0.310732  -0.267685  -0.002487   2.335698
    7  C  1  X    0.005726  -0.356185   0.408914   0.003238  -0.358029
    8  C  1  Y    0.001623  -0.024541   0.064518  -0.007560   2.996544
    9  C  1  Z   -0.065398  -0.048414  -0.045937  -1.193696  -0.009446
   10  C  2  S    0.000213  -0.007353   0.038386   0.000094   0.001157
   11  C  2  S    0.004461  -0.096233   0.503392   0.000584  -0.011662
   12  C  2  X   -0.003885   0.321235   0.068073   0.000122   0.443938
   13  C  2  Y    0.005438  -0.431965  -0.076543  -0.001718   0.332601
   14  C  2  Z   -0.569210  -0.020170  -0.009401  -0.448146   0.000089
   15  C  2  S   -0.004836   0.077582  -0.402559   0.004484  -2.337192
   16  C  2  X    0.004330  -0.324445  -0.041550   0.001987  -2.412795
   17  C  2  Y   -0.004691   0.426551   0.096087   0.005291  -1.807359
   18  C  2  Z    0.931594   0.033585   0.015504   1.193766   0.002261
   19  C  3  S    0.000542  -0.036901   0.012900  -0.000062  -0.001172
   20  C  3  S    0.008845  -0.483848   0.169195  -0.000135   0.011800
   21  C  3  X    0.000391  -0.078419  -0.200970  -0.000540  -0.510170
   22  C  3  Y    0.001271  -0.162008  -0.476692  -0.000621   0.218766
   23  C  3  Z    0.529124  -0.008625  -0.018785   0.448106  -0.000230
   24  C  3  S   -0.008743   0.386815  -0.136004  -0.002483   2.337044
   25  C  3  X    0.000698   0.048941   0.210154   0.000895   2.772206
   26  C  3  Y   -0.002158   0.173708   0.470412   0.002317  -1.188341
   27  C  3  Z   -0.866072   0.014067   0.031337  -1.193730   0.000392
   28  C  4  S    0.000404  -0.029551  -0.025487   0.000055   0.001215
   29  C  4  S    0.005958  -0.387542  -0.334210  -0.001854  -0.012305
   30  C  4  X   -0.005933   0.354987  -0.413187  -0.001124   0.066188
   31  C  4  Y   -0.000456   0.049290  -0.043503   0.000382  -0.552277
   32  C  4  Z    0.039936   0.029114   0.029121  -0.448072   0.000256
   33  C  4  S   -0.005044   0.310532   0.267544   0.001412  -2.336489
   34  C  4  X    0.005281  -0.356573   0.408718   0.001950  -0.359275
   35  C  4  Y   -0.001111  -0.024492   0.064657   0.000451   2.999169
   36  C  4  Z   -0.065409  -0.048179  -0.048776   1.193709  -0.001540
   37  C  5  S   -0.000137   0.007351  -0.038389  -0.000220  -0.001244
   38  C  5  S   -0.001348   0.096414  -0.503264  -0.001237   0.012106
   39  C  5  X   -0.004658   0.321164   0.068030  -0.000071   0.445792
   40  C  5  Y    0.005953  -0.431849  -0.076456   0.000602   0.333618
   41  C  5  Z   -0.569217  -0.021138  -0.013037   0.448138  -0.000854
   42  C  5  S    0.000606  -0.077845   0.402384  -0.004370   2.338577
   43  C  5  X    0.004490  -0.324766  -0.041760   0.000259  -2.419728
   44  C  5  Y   -0.005335   0.426713   0.096089   0.000404  -1.811407
   45  C  5  Z    0.931609   0.034778   0.021038  -1.193752  -0.000629
   46  C  6  S   -0.000524   0.036902  -0.012900  -0.000120   0.001231
   47  C  6  S   -0.005688   0.484040  -0.169040  -0.000407  -0.012133
   48  C  6  X    0.000075  -0.078380  -0.200947   0.000176  -0.511519
   49  C  6  Y    0.000801  -0.162040  -0.476739  -0.002814   0.218992
   50  C  6  Z    0.529146  -0.008741  -0.016120  -0.448096  -0.001158
   51  C  6  S    0.004741  -0.387044   0.135817   0.002767  -2.337803
   52  C  6  X   -0.000135   0.048927   0.210084  -0.003651   2.777230
   53  C  6  Y   -0.000525   0.174291   0.470781   0.007042  -1.189624
   54  C  6  Z   -0.866102   0.013904   0.026616   1.193712   0.002870
   55  H  7  S   -0.001401   0.256112   0.220870   0.000264  -0.100673
   56  H  7  S   -0.000182   0.048650   0.041980  -0.001837   1.401288
   57  H  8  S    0.003010  -0.063548   0.332592   0.000957   0.100415
   58  H  8  S    0.000678  -0.012013   0.063402   0.001584  -1.398898
   59  H  9  S    0.005892  -0.319587   0.111791  -0.000014  -0.100578
   60  H  9  S    0.001348  -0.061031   0.021354   0.000185   1.399960
   61  H 10  S    0.004286  -0.255909  -0.220715  -0.000121   0.101008
   62  H 10  S    0.001183  -0.048682  -0.042040  -0.000526  -1.403090
   63  H 11  S   -0.000736   0.063684  -0.332493  -0.000876  -0.101515
   64  H 11  S   -0.000446   0.012083  -0.063332   0.000161   1.404409
   65  H 12  S   -0.003805   0.319751  -0.111662   0.000084   0.101273
   66  H 12  S   -0.000649   0.061120  -0.021277   0.002160  -1.403508

                     51         52         53         54         55
                    0.8663     0.8664     0.9084     0.9085     0.9776
                     A          A          A          A          A   
    1  C  1  S    0.004171  -0.028193   0.000482  -0.025295   0.006119
    2  C  1  S   -0.026768   0.181151  -0.012592   0.663267  -0.436345
    3  C  1  X    0.012103   0.082628   0.085163   0.066363  -0.044879
    4  C  1  Y    0.101443  -0.661498   0.020660  -0.539746   0.376193
    5  C  1  Z   -0.000445   0.003681   0.000014   0.002382  -0.001140
    6  C  1  S   -0.051463   0.325700   0.036549  -1.909407   0.843625
    7  C  1  X    0.055472  -0.295554  -0.695751  -0.157754   0.059159
    8  C  1  Y   -0.370290   2.486710  -0.106429   1.199919  -0.500604
    9  C  1  Z    0.000489  -0.009104  -0.000296  -0.005493   0.002024
   10  C  2  S   -0.026503   0.010486  -0.021669  -0.013063   0.006107
   11  C  2  S    0.170164  -0.067323   0.568091   0.342919  -0.436712
   12  C  2  X   -0.507461   0.185105  -0.346063  -0.269659   0.303252
   13  C  2  Y   -0.368711   0.166871  -0.315145  -0.108709   0.226948
   14  C  2  Z    0.000136   0.000047  -0.000123  -0.000032  -0.000158
   15  C  2  S    0.309381  -0.121826  -1.635191  -0.987311   0.844955
   16  C  2  X    1.884471  -0.752522   0.612179   0.861664  -0.403177
   17  C  2  Y    1.416043  -0.550341   0.911920  -0.107967  -0.301341
   18  C  2  Z   -0.000269   0.002268   0.000313   0.001260   0.000113
   19  C  3  S    0.022341   0.017702  -0.022151   0.012227   0.006106
   20  C  3  S   -0.143462  -0.113803   0.580758  -0.320758  -0.436619
   21  C  3  X    0.492036   0.377172  -0.421152   0.271859   0.348124
   22  C  3  Y   -0.194277  -0.182161   0.226306  -0.033434  -0.149101
   23  C  3  Z    0.000607  -0.000055  -0.000151  -0.000185   0.000350
   24  C  3  S   -0.261170  -0.203386  -1.671863   0.923725   0.844894
   25  C  3  X   -1.824225  -1.447926   0.839897  -0.780501  -0.462543
   26  C  3  Y    0.789001   0.610160  -0.730520  -0.336354   0.198660
   27  C  3  Z   -0.001074  -0.001046   0.000253   0.000091  -0.000705
   28  C  4  S    0.004164  -0.028189  -0.000482   0.025299   0.006115
   29  C  4  S   -0.026727   0.180905   0.012656  -0.663536  -0.436469
   30  C  4  X   -0.012315  -0.082614   0.085419   0.066106   0.044855
   31  C  4  Y   -0.099767   0.661132   0.020702  -0.539907  -0.376177
   32  C  4  Z    0.000295  -0.000934  -0.000033   0.000179   0.000212
   33  C  4  S   -0.044573   0.325213  -0.036705   1.910068   0.844200
   34  C  4  X   -0.054321   0.295543  -0.697080  -0.156422  -0.059110
   35  C  4  Y    0.361393  -2.484949  -0.106686   1.200431   0.500623
   36  C  4  Z   -0.000838   0.002443   0.000236  -0.000296  -0.000091
[...]
   29  C  4  S    0.026537  -0.001057  -0.124668  -0.030403  -0.149653
   30  C  4  X    0.001284   0.000408   0.033961  -0.079278   0.009671
   31  C  4  Y    0.168954  -0.004003  -0.112363  -0.038428  -0.073242
   32  C  4  Z   -0.001991  -0.294307   0.000461  -0.000212  -0.000317
   33  C  4  S    0.631416  -0.029299  -1.571411  -0.379703   0.057380
   34  C  4  X   -0.187540  -0.001646   0.161882  -0.411949   0.135865
   35  C  4  Y    0.393826  -0.012446  -0.480801  -0.177092  -1.133916
   36  C  4  Z   -0.003097  -0.542584   0.000950  -0.000853  -0.002538
   37  C  5  S   -0.037446   0.000194  -0.025353  -0.086113  -0.056268
   38  C  5  S    0.037654  -0.000094   0.036365   0.123566   0.149156
   39  C  5  X    0.191932  -0.001072  -0.022787   0.106046   0.058745
   40  C  5  Y    0.150673   0.000350   0.085569   0.049419   0.045027
   41  C  5  Z    0.002406   0.294390  -0.000619   0.000266  -0.000312
   42  C  5  S    0.922164  -0.006367   0.457879   1.549553  -0.061145
   43  C  5  X    0.500627  -0.008045  -0.141452   0.472168   0.912525
   44  C  5  Y    0.327907   0.008545   0.423494   0.198038   0.684646
   45  C  5  Z    0.003550   0.542724  -0.001160   0.000281  -0.001452
   46  C  6  S   -0.011751  -0.000957  -0.061769   0.065144   0.056124
   47  C  6  S    0.011923   0.000723   0.088550  -0.093770  -0.149106
   48  C  6  X    0.080747   0.003093   0.051893  -0.102347  -0.067802
   49  C  6  Y   -0.005269  -0.001107  -0.089607  -0.020561   0.028556
   50  C  6  Z   -0.002966  -0.294443   0.000347  -0.000226   0.000633
   51  C  6  S    0.288622   0.025225   1.112929  -1.169908   0.065146
   52  C  6  X    0.103927   0.010792   0.203675  -0.463668  -1.048404
   53  C  6  Y   -0.236787   0.003023  -0.435364  -0.133272   0.448328
   54  C  6  Z   -0.004075  -0.542958   0.001124   0.000028   0.003346
   55  H  7  S    0.031430   0.000371   0.015751   0.003909  -0.047280
   56  H  7  S    0.831648  -0.026001   1.211674   0.289869  -1.187368
   57  H  8  S    0.045609   0.000201  -0.004292  -0.015414   0.047386
   58  H  8  S    1.207245  -0.004872  -0.351294  -1.191930   1.195480
   59  H  9  S    0.014408  -0.000388  -0.011305   0.011274  -0.047381
   60  H  9  S    0.380077   0.016861  -0.857288   0.897643  -1.193971
   61  H 10  S   -0.031384  -0.000018   0.015525   0.004319   0.047261
   62  H 10  S   -0.832446   0.028502   1.209751   0.299386   1.190380
   63  H 11  S   -0.045668  -0.000023  -0.004145  -0.015710  -0.047273
   64  H 11  S   -1.208086   0.004864  -0.348237  -1.199317  -1.187456
   65  H 12  S   -0.014451   0.000130  -0.011467   0.011615   0.047240
   66  H 12  S   -0.379821  -0.023119  -0.863697   0.904732   1.185087

                     31
                    0.3061
                     A   
    1  C  1  S   -0.046689
    2  C  1  S    0.047773
    3  C  1  X   -0.037239
    4  C  1  Y    0.163019
    5  C  1  Z   -0.001679
    6  C  1  S    1.236905
    7  C  1  X   -0.803848
    8  C  1  Y    0.902198
    9  C  1  Z   -0.005585
   10  C  2  S    0.075793
   11  C  2  S   -0.077185
   12  C  2  X   -0.216435
   13  C  2  Y   -0.158806
   14  C  2  Z   -0.000637
   15  C  2  S   -2.011563
   16  C  2  X   -1.350739
   17  C  2  Y   -0.869156
   18  C  2  Z   -0.001663
   19  C  3  S   -0.029345
   20  C  3  S    0.029970
   21  C  3  X    0.085847
   22  C  3  Y   -0.060015
   23  C  3  Z    0.000742
   24  C  3  S    0.780081
   25  C  3  X    0.243229
   26  C  3  Y   -0.987318
   27  C  3  Z    0.003087
   28  C  4  S   -0.046765
   29  C  4  S    0.047697
   30  C  4  X    0.038693
   31  C  4  Y   -0.163048
   32  C  4  Z   -0.001211
   33  C  4  S    1.239672
   34  C  4  X    0.813030
   35  C  4  Y   -0.903228
   36  C  4  Z   -0.004662
   37  C  5  S    0.075954
   38  C  5  S   -0.077191
   39  C  5  X    0.217251
   40  C  5  Y    0.157954
   41  C  5  Z   -0.000457
   42  C  5  S   -2.019330
   43  C  5  X    1.356223
   44  C  5  Y    0.864133
   45  C  5  Z   -0.001897
   46  C  6  S   -0.029066
   47  C  6  S    0.029648
   48  C  6  X   -0.085662
   49  C  6  Y    0.059981
   50  C  6  Z    0.000612
   51  C  6  S    0.771472
   52  C  6  X   -0.242403
   53  C  6  Y    0.989296
   54  C  6  Z    0.002344
   55  H  7  S    0.009616
   56  H  7  S    0.616883
   57  H  8  S   -0.016132
   58  H  8  S   -0.991760
   59  H  9  S    0.007106
   60  H  9  S    0.373862
   61  H 10  S    0.009766
   62  H 10  S    0.618786
   63  H 11  S   -0.016603
   64  H 11  S   -0.991389
   65  H 12  S    0.006291
   66  H 12  S    0.375747

     ---------------------------------------------------------------------
     PROPERTIES FOR THE B3LYP    DFT FUNCTIONAL (RHF  TYPE) DENSITY MATRIX
     ---------------------------------------------------------------------

          -----------------
          ENERGY COMPONENTS
          -----------------

         WAVEFUNCTION NORMALIZATION =       1.0000000000

                ONE ELECTRON ENERGY =    -712.5886934382
                TWO ELECTRON ENERGY =     277.8570320789
           NUCLEAR REPULSION ENERGY =     202.6873255302
                                      ------------------
                       TOTAL ENERGY =    -232.0443358292

 ELECTRON-ELECTRON POTENTIAL ENERGY =     277.8570320789
  NUCLEUS-ELECTRON POTENTIAL ENERGY =    -943.4250418470
   NUCLEUS-NUCLEUS POTENTIAL ENERGY =     202.6873255302
                                      ------------------
             TOTAL POTENTIAL ENERGY =    -462.8806842380
               TOTAL KINETIC ENERGY =     230.8363484088
                 VIRIAL RATIO (V/T) =       2.0052330901

          ---------------------------------------
          MULLIKEN AND LOWDIN POPULATION ANALYSES
          ---------------------------------------

     MULLIKEN ATOMIC POPULATION IN EACH MOLECULAR ORBITAL

                      1          2          3          4          5

                  2.000000   2.000000   2.000000   2.000000   2.000000

    1             0.354959   0.621059   0.089287   0.561040   0.056871
    2             0.288505   0.021034   0.604705   0.025672   0.668975
    3             0.329284   0.375985   0.324338   0.393452   0.241005
    4             0.352072   0.596134   0.068251   0.594366   0.080525
    5             0.330791   0.024102   0.631499   0.024146   0.660540
    6             0.343057   0.361026   0.281262   0.401125   0.291886
    7             0.000225   0.000196   0.000025   0.000053   0.000006
    8             0.000208   0.000008   0.000217   0.000003   0.000080
    9             0.000216   0.000129   0.000099   0.000040   0.000025
   10             0.000231   0.000192   0.000018   0.000057   0.000004
   11             0.000222   0.000009   0.000213   0.000003   0.000060
   12             0.000230   0.000125   0.000085   0.000043   0.000023

                      6          7          8          9         10

                  2.000000   2.000000   2.000000   2.000000   2.000000

    1             0.316400   0.320763   0.356292   0.257359   0.323427
    2             0.390726   0.320828   0.087693   0.526336   0.241295
    3             0.335552   0.320407   0.476811   0.137143   0.278337
    4             0.308264   0.320578   0.356601   0.257376   0.323432
    5             0.328541   0.320827   0.087631   0.526246   0.241268
    6             0.321259   0.321029   0.476710   0.137084   0.278200
    7            -0.000121   0.012572   0.032049   0.020648   0.099040
    8            -0.000133   0.012624   0.001226   0.051634   0.008699
    9            -0.000125   0.012576   0.045820   0.006956   0.049286
   10            -0.000119   0.012592   0.032150   0.020680   0.099209
   11            -0.000123   0.012610   0.001211   0.051602   0.008667
   12            -0.000122   0.012595   0.045806   0.006936   0.049140

                     11         12         13         14         15

                  2.000000   2.000000   2.000000   2.000000   2.000000

    1             0.238496   0.233521   0.185715   0.333379   0.319657
    2             0.320660   0.233703   0.184720   0.332965   0.023271
    3             0.283793   0.233474   0.185594   0.333001   0.303713
    4             0.238504   0.233846   0.185382   0.333306   0.320108
    5             0.320762   0.233501   0.184814   0.333439   0.023390
    6             0.283756   0.233844   0.185074   0.333606   0.303961
    7             0.005480   0.099657   0.148518   0.000055   0.181198
    8             0.096023   0.099669   0.147624   0.000055   0.000152
    9             0.055467   0.099552   0.148505   0.000051   0.171261
   10             0.005532   0.099897   0.148410   0.000045   0.181542
   11             0.096059   0.099520   0.147658   0.000049   0.000151
   12             0.055468   0.099815   0.147985   0.000050   0.171595

                     16         17         18         19         20

                  2.000000   2.000000   2.000000   2.000000   2.000000

    1             0.111221   0.333368   0.199218   0.245409   0.425568
    2             0.408580   0.333208   0.252054   0.192685   0.009806
    3             0.127438   0.333053   0.216663   0.228292   0.564625
    4             0.111112   0.333052   0.198507   0.245863   0.425929
    5             0.408298   0.333324   0.251416   0.193052   0.009746
    6             0.127443   0.333487   0.216072   0.227985   0.564321
    7             0.053621   0.000141   0.194303   0.028095   0.000002
    8             0.235721   0.000006   0.005666   0.216427   0.000000
    9             0.063684   0.000088   0.133510   0.088638   0.000001
   10             0.053493   0.000166   0.193597   0.028091   0.000001
   11             0.235608   0.000008   0.005622   0.216759   0.000000
   12             0.063781   0.000100   0.133374   0.088703   0.000002

                     21

                  2.000000

    1             0.240953
    2             0.656920
    3             0.102201
    4             0.240937
    5             0.656831
    6             0.102157
    7             0.000001
    8             0.000000
    9             0.000000
   10             0.000000
   11             0.000000
   12             0.000000

               ----- POPULATIONS IN EACH AO -----
                             MULLIKEN      LOWDIN
              1  C  1  S      1.99678     1.98806
              2  C  1  S      0.70648     0.55538
              3  C  1  X      0.76447     0.70682
              4  C  1  Y      0.75682     0.67477
              5  C  1  Z      0.56637     0.52008
              6  C  1  S      0.49378     0.40068
              7  C  1  X      0.15825     0.37353
              8  C  1  Y      0.24741     0.41620
              9  C  1  Z      0.43359     0.47989
             10  C  2  S      1.99678     1.98806
             11  C  2  S      0.70648     0.55541
             12  C  2  X      0.75946     0.68611
             13  C  2  Y      0.76189     0.69553
             14  C  2  Z      0.56638     0.52010
             15  C  2  S      0.49403     0.40065
             16  C  2  X      0.21611     0.40104
             17  C  2  Y      0.18957     0.38864
             18  C  2  Z      0.43363     0.47993
             19  C  3  S      1.99678     1.98806
             20  C  3  S      0.70647     0.55540
             21  C  3  X      0.75810     0.67951
             22  C  3  Y      0.76321     0.70210
             23  C  3  Z      0.56632     0.52004
             24  C  3  S      0.49388     0.40069
             25  C  3  X      0.23412     0.40999
             26  C  3  Y      0.17163     0.37975
             27  C  3  Z      0.43365     0.47993
             28  C  4  S      1.99678     1.98806
             29  C  4  S      0.70646     0.55538
             30  C  4  X      0.76438     0.70673
             31  C  4  Y      0.75696     0.67489
             32  C  4  Z      0.56634     0.52006
             33  C  4  S      0.49398     0.40069
             34  C  4  X      0.15833     0.37356
             35  C  4  Y      0.24724     0.41613
             36  C  4  Z      0.43367     0.47995
             37  C  5  S      1.99678     1.98806
             38  C  5  S      0.70647     0.55540
             39  C  5  X      0.75939     0.68605
             40  C  5  Y      0.76193     0.69554
             41  C  5  Z      0.56640     0.52011
             42  C  5  S      0.49399     0.40065
             43  C  5  X      0.21611     0.40107
             44  C  5  Y      0.18949     0.38863
             45  C  5  Z      0.43360     0.47991
             46  C  6  S      1.99678     1.98806
             47  C  6  S      0.70647     0.55536
             48  C  6  X      0.75813     0.67956
             49  C  6  Y      0.76327     0.70213
             50  C  6  Z      0.56642     0.52012
             51  C  6  S      0.49388     0.40064
             52  C  6  X      0.23422     0.40998
             53  C  6  Y      0.17155     0.37974
             54  C  6  Z      0.43362     0.47991
             55  H  7  S      0.54346     0.51342
             56  H  7  S      0.33231     0.37112
             57  H  8  S      0.54362     0.51357
             58  H  8  S      0.33229     0.37102
             59  H  9  S      0.54355     0.51349
             60  H  9  S      0.33223     0.37105
             61  H 10  S      0.54362     0.51355
             62  H 10  S      0.33216     0.37097
             63  H 11  S      0.54356     0.51353
             64  H 11  S      0.33234     0.37106
             65  H 12  S      0.54352     0.51347
             66  H 12  S      0.33222     0.37104

          ----- MULLIKEN ATOMIC OVERLAP POPULATIONS -----
          (OFF-DIAGONAL ELEMENTS NEED TO BE MULTIPLIED BY 2)

             1           2           3           4           5

    1    4.8918758
    2    0.5379419   4.8923173
    3   -0.0494650   0.5379883   4.8921732
    4   -0.0364029  -0.0494376   0.5379362   4.8920516
    5   -0.0494715  -0.0364127  -0.0495064   0.5379448   4.8921114
    6    0.5380365  -0.0494885  -0.0363562  -0.0494017   0.5380209
    7    0.3544873  -0.0362739   0.0045725   0.0005126   0.0045899
    8   -0.0364802   0.3545182  -0.0363199   0.0045875   0.0005134
    9    0.0045977  -0.0364993   0.3544936  -0.0362392   0.0045785
   10    0.0005123   0.0045934  -0.0364678   0.3545413  -0.0362636
   11    0.0045868   0.0005127   0.0046025  -0.0365366   0.3545150
   12   -0.0362566   0.0045822   0.0005115   0.0045910  -0.0364547

             6           7           8           9          10

    6    4.8920840
    7   -0.0364326   0.5939107
    8    0.0045978  -0.0046359   0.5941161
    9    0.0005112  -0.0001737  -0.0046495   0.5939464
   10    0.0045736   0.0000107  -0.0001741  -0.0046232   0.5938998
   11   -0.0362977  -0.0001738   0.0000107  -0.0001739  -0.0046409
   12    0.3544934  -0.0046302  -0.0001740   0.0000107  -0.0001734

            11          12

   11    0.5941458
   12   -0.0046435   0.5938761

          TOTAL MULLIKEN AND LOWDIN ATOMIC POPULATIONS
       ATOM         MULL.POP.    CHARGE          LOW.POP.     CHARGE
    1 C             6.123962   -0.123962         6.115400   -0.115400
    2 C             6.124342   -0.124342         6.115487   -0.115487
    3 C             6.124162   -0.124162         6.115479   -0.115479
    4 C             6.124147   -0.124147         6.115451   -0.115451
    5 C             6.124165   -0.124165         6.115417   -0.115417
    6 C             6.124341   -0.124341         6.115499   -0.115499
    7 H             0.875764    0.124236         0.884532    0.115468
    8 H             0.875910    0.124090         0.884585    0.115415
    9 H             0.875779    0.124221         0.884538    0.115462
   10 H             0.875788    0.124212         0.884514    0.115486
   11 H             0.875907    0.124093         0.884587    0.115413
   12 H             0.875732    0.124268         0.884510    0.115490

          -------------------------------
          BOND ORDER AND VALENCE ANALYSIS     BOND ORDER THRESHOLD=0.050
          -------------------------------

                   BOND                       BOND                       BOND
  ATOM PAIR DIST  ORDER      ATOM PAIR DIST  ORDER      ATOM PAIR DIST  ORDER
    1   2  1.401  1.446        1   4  2.800  0.103        1   6  1.400  1.446
    1   7  1.087  0.934        2   3  1.401  1.446        2   5  2.803  0.103
    2   8  1.086  0.935        3   4  1.400  1.446        3   6  2.801  0.103
    3   9  1.087  0.934        4   5  1.401  1.446        4  10  1.086  0.934
    5   6  1.401  1.446        5  11  1.086  0.935        6  12  1.086  0.934

                       TOTAL       BONDED        FREE
      ATOM            VALENCE     VALENCE     VALENCE
    1 C                 3.903       3.903       0.000
    2 C                 3.903       3.903       0.000
    3 C                 3.903       3.903       0.000
    4 C                 3.903       3.903       0.000
    5 C                 3.903       3.903       0.000
    6 C                 3.903       3.903       0.000
    7 H                 0.943       0.943       0.000
    8 H                 0.943       0.943       0.000
    9 H                 0.943       0.943       0.000
   10 H                 0.943       0.943       0.000
   11 H                 0.943       0.943       0.000
   12 H                 0.943       0.943       0.000

          ---------------------
          ELECTROSTATIC MOMENTS
          ---------------------

 POINT   1           X           Y           Z (BOHR)    CHARGE
                -0.000303   -0.000090    0.000247        0.00 (A.U.)
         DX          DY          DZ         /D/  (DEBYE)
     0.002726    0.002216    0.000560    0.003558
 ...... END OF PROPERTY EVALUATION ......
 STEP CPU TIME =     0.03 TOTAL CPU TIME =     2261.7 (   37.7 MIN)
 TOTAL WALL CLOCK TIME=     2300.5 SECONDS, CPU UTILIZATION IS  98.31%
  $VIB   
          IVIB=   0 IATOM=   0 ICOORD=   0 E=     -232.0443358292
 -2.623568154E-04-2.556180475E-04 8.295326066E-05-4.569264157E-04-1.268548951E-04
 -8.417933128E-06-3.732977653E-04 7.618370246E-04-3.778961828E-06 4.597043278E-04
  7.660421163E-04 1.717891288E-04 4.427903807E-04-1.923876518E-04-1.474671493E-05
  1.955983919E-04-6.965224223E-04-1.897312724E-04 1.469992908E-04 1.060052430E-04
  2.957323663E-04 3.619567512E-04 6.097832815E-05-9.571887418E-05 1.404340105E-04
 -4.514002774E-04-2.124540962E-04-1.702166318E-04-3.916702882E-04 1.740802146E-04
 -3.459525527E-04 5.790732467E-05-2.050359640E-05-1.387329718E-04 3.616835455E-04
 -1.792035212E-04
  2.726241081E-03 2.215861169E-03 5.603187551E-04
 ......END OF GEOMETRY SEARCH......
 STEP CPU TIME =     0.01 TOTAL CPU TIME =     2261.7 (   37.7 MIN)
 TOTAL WALL CLOCK TIME=     2300.5 SECONDS, CPU UTILIZATION IS  98.31%
                   471243 WORDS OF DYNAMIC MEMORY USED
 EXECUTION OF GAMESS TERMINATED NORMALLY Mon Jul 14 15:49:48 2014
 DDI: 263016 bytes (0.3 MB / 0 MWords) used by master data server.

 ----------------------------------------
 CPU timing information for all processes
 ========================================
 0: 2248.391192 + 13.308976 = 2261.700168
 ----------------------------------------
 ddikick.x: exited gracefully.
----- accounting info -----
Mon Jul 14 15:49:51 NDT 2014
Files used on the master node cl017 were:
-rw-r--r--  1 ostueker rpoirier  1408187 Jul 14 15:49 /globalscratch/ostueker/gamess/benzene_GAMESS_B3LYP_631G_OPT.dat
-rw-r--r--  1 ostueker rpoirier      911 Jul 14 15:11 /globalscratch/ostueker/gamess/benzene_GAMESS_B3LYP_631G_OPT.F05
-rw-r--r--  1 ostueker rpoirier 26642368 Jul 14 15:49 /globalscratch/ostueker/gamess/benzene_GAMESS_B3LYP_631G_OPT.F08
-rw-r--r--  1 ostueker rpoirier  1210640 Jul 14 15:49 /globalscratch/ostueker/gamess/benzene_GAMESS_B3LYP_631G_OPT.F10
-rw-r--r--  1 ostueker rpoirier  3254464 Jul 14 15:49 /globalscratch/ostueker/gamess/benzene_GAMESS_B3LYP_631G_OPT.F22
0.151u 0.160s 38:26.05 0.0%	0+0k 8+0io 0pf+0w
