----- GAMESS execution script 'rungms' -----
This job is running on host cl200
under operating system Linux at Tue Jan 27 18:15:28 NST 2015
Available scratch disk space (Kbyte units) at beginning of the job is
Filesystem           1K-blocks      Used Available Use% Mounted on
samqfs://scratch/ostueker
                     8586374784 7730057472 856317312  91% /globalscratch/ostueker
GAMESS temporary binary files will be written to /globalscratch/ostueker/gamess
GAMESS supplementary output files will be written to /globalscratch/ostueker/gamess
Copying input file methane_GAMESS_G4MP2_1may2013.inp to your run's scratch directory...

 Distributed Data Interface kickoff program.
 Initiating 1 compute processes on 1 nodes to run the following command:
 /usr/local/gamess-1may2013/gamess.01.x methane_GAMESS_G4MP2_1may2013 

          ******************************************************
          *         GAMESS VERSION =  1 MAY 2013 (R1)          *
          *             FROM IOWA STATE UNIVERSITY             *
          * M.W.SCHMIDT, K.K.BALDRIDGE, J.A.BOATZ, S.T.ELBERT, *
          *   M.S.GORDON, J.H.JENSEN, S.KOSEKI, N.MATSUNAGA,   *
          *          K.A.NGUYEN, S.J.SU, T.L.WINDUS,           *
          *       TOGETHER WITH M.DUPUIS, J.A.MONTGOMERY       *
          *         J.COMPUT.CHEM.  14, 1347-1363(1993)        *
          **************** 64 BIT LINUX VERSION ****************

  SINCE 1993, STUDENTS AND POSTDOCS WORKING AT IOWA STATE UNIVERSITY
  AND ALSO IN THEIR VARIOUS JOBS AFTER LEAVING ISU HAVE MADE IMPORTANT
  CONTRIBUTIONS TO THE CODE:
     IVANA ADAMOVIC, CHRISTINE AIKENS, YURI ALEXEEV, POOJA ARORA,
     ANDREY ASADCHEV, ROB BELL, PRADIPTA BANDYOPADHYAY, JONATHAN BENTZ,
     BRETT BODE, GALINA CHABAN, WEI CHEN, CHEOL HO CHOI, PAUL DAY,
     ALBERT DEFUSCO, TIM DUDLEY, DMITRI FEDOROV, GRAHAM FLETCHER,
     MARK FREITAG, KURT GLAESEMANN, DAN KEMP, GRANT MERRILL,
     NORIYUKI MINEZAWA, JONATHAN MULLIN, TAKESHI NAGATA,
     SEAN NEDD, HEATHER NETZLOFF, BOSILJKA NJEGIC, RYAN OLSON, MIKE PAK,
     JIM SHOEMAKER, LYUDMILA SLIPCHENKO, SAROM SOK, JIE SONG,
     TETSUYA TAKETSUGU, SIMON WEBB, SOOHAENG YOO, FEDERICO ZAHARIEV

  ADDITIONAL CODE HAS BEEN PROVIDED BY COLLABORATORS IN OTHER GROUPS:
     IOWA STATE UNIVERSITY:
          JOE IVANIC, LAIMUTIS BYTAUTAS, KLAUS RUEDENBERG
     UNIVERSITY OF TOKYO: KIMIHIKO HIRAO, TAKAHITO NAKAJIMA,
          TAKAO TSUNEDA, MUNEAKI KAMIYA, SUSUMU YANAGISAWA,
          KIYOSHI YAGI, MAHITO CHIBA, SEIKEN TOKURA, NAOAKI KAWAKAMI
     UNIVERSITY OF AARHUS: FRANK JENSEN
     UNIVERSITY OF IOWA: VISVALDAS KAIRYS, HUI LI
     NATIONAL INST. OF STANDARDS AND TECHNOLOGY: WALT STEVENS, DAVID GARMER
     UNIVERSITY OF PISA: BENEDETTA MENNUCCI, JACOPO TOMASI
     UNIVERSITY OF MEMPHIS: HENRY KURTZ, PRAKASHAN KORAMBATH
     UNIVERSITY OF ALBERTA: TOBY ZENG, MARIUSZ KLOBUKOWSKI
     UNIVERSITY OF NEW ENGLAND: MARK SPACKMAN
     MIE UNIVERSITY: HIROAKI UMEDA
     MICHIGAN STATE UNIVERSITY:
          KAROL KOWALSKI, MARTA WLOCH, JEFFREY GOUR, JESSE LUTZ,
          WEI LI, PIOTR PIECUCH
     UNIVERSITY OF SILESIA: MONIKA MUSIAL, STANISLAW KUCHARSKI
     FACULTES UNIVERSITAIRES NOTRE-DAME DE LA PAIX:
          OLIVIER QUINET, BENOIT CHAMPAGNE
     UNIVERSITY OF CALIFORNIA - SANTA BARBARA: BERNARD KIRTMAN
     INSTITUTE FOR MOLECULAR SCIENCE:
          KAZUYA ISHIMURA, MICHIO KATOUDA, AND SHIGERU NAGASE
     UNIVERSITY OF NOTRE DAME: DAN CHIPMAN
     KYUSHU UNIVERSITY:
          HARUYUKI NAKANO,
          FENG LONG GU, JACEK KORCHOWIEC, MARCIN MAKOWSKI, AND YURIKO AOKI,
          HIROTOSHI MORI AND EISAKU MIYOSHI
     PENNSYLVANIA STATE UNIVERSITY:
          TZVETELIN IORDANOV, CHET SWALINA, JONATHAN SKONE,
          SHARON HAMMES-SCHIFFER
     WASEDA UNIVERSITY:
          MASATO KOBAYASHI, TOMOKO AKAMA, TSUGUKI TOUMA,
          TAKESHI YOSHIKAWA, YASUHIRO IKABATA, HIROMI NAKAI
     NANJING UNIVERSITY: SHUHUA LI
     UNIVERSITY OF NEBRASKA:
          PEIFENG SU, DEJUN SI, NANDUN THELLAMUREGE, YALI WANG, HUI LI
     UNIVERSITY OF ZURICH:
          ROBERTO PEVERATI, KIM BALDRIDGE
     N. COPERNICUS UNIVERSITY AND JACKSON STATE UNIVERSITY:
          MARIA BARYSZ

 EXECUTION OF GAMESS BEGUN Tue Jan 27 18:15:28 2015

            ECHO OF THE FIRST FEW INPUT CARDS -
 INPUT CARD> $CONTRL RUNTYP=COMP $END                                                       
 INPUT CARD> $COMP RMETHD=G4MP2 $END                                                        
 INPUT CARD>                                                                                
 INPUT CARD> $DATA                                                                          
 INPUT CARD>methane G4MP2                                                                   
 INPUT CARD>C1                                                                              
 INPUT CARD>C           6.0   0.0000001801   0.0000001596   0.0000005550                    
 INPUT CARD>H           1.0  -0.0000001454  -0.8929760668  -0.6313057057                    
 INPUT CARD>H           1.0  -0.0000001453   0.8929761388  -0.6313059209                    
 INPUT CARD>H           1.0  -0.8929768613  -0.0000001158   0.6313053936                    
 INPUT CARD>H           1.0   0.8929769719  -0.0000001157   0.6313056780                    
 INPUT CARD> $END                                                                           
    1000000 WORDS OF MEMORY AVAILABLE


     RUN TITLE
     ---------
 methane G4MP2                                                                   

 THE POINT GROUP OF THE MOLECULE IS C1      
 THE ORDER OF THE PRINCIPAL AXIS IS     0

 ATOM      ATOMIC                      COORDINATES (BOHR)
           CHARGE         X                   Y                   Z
 C           6.0     0.0000003403        0.0000003016        0.0000010488
 H           1.0    -0.0000002748       -1.6874800798       -1.1929947983
 H           1.0    -0.0000002746        1.6874802159       -1.1929952049
 H           1.0    -1.6874815812       -0.0000002188        1.1929942085
 H           1.0     1.6874817902       -0.0000002186        1.1929947459

          INTERNUCLEAR DISTANCES (ANGS.)
          ------------------------------

                1 C          2 H          3 H          4 H          5 H     

   1 C       0.0000000    1.0935969 *  1.0935968 *  1.0935967 *  1.0935967 *
   2 H       1.0935969 *  0.0000000    1.7859522 *  1.7857772 *  1.7857776 *
   3 H       1.0935968 *  1.7859522 *  0.0000000    1.7857775 *  1.7857779 *
   4 H       1.0935967 *  1.7857772 *  1.7857775 *  0.0000000    1.7859538 *
   5 H       1.0935967 *  1.7857776 *  1.7857779 *  1.7859538 *  0.0000000  

  * ... LESS THAN  3.000


     ATOMIC BASIS SET
     ----------------
 THE CONTRACTED PRIMITIVE FUNCTIONS HAVE BEEN UNNORMALIZED
 THE CONTRACTED BASIS FUNCTIONS ARE NOW NORMALIZED TO UNITY

  SHELL TYPE  PRIMITIVE        EXPONENT          CONTRACTION COEFFICIENT(S)

 C         

      1   S       1          3047.5248800    0.001834737132
      1   S       2           457.3695180    0.014037322813
      1   S       3           103.9486850    0.068842622264
      1   S       4            29.2101553    0.232184443216
      1   S       5             9.2866630    0.467941348435
      1   S       6             3.1639270    0.362311985337

      2   L       7             7.8682723   -0.119332419775    0.068999066591
      2   L       8             1.8812885   -0.160854151696    0.316423960957
      2   L       9             0.5442493    1.143456437840    0.744308290898

      3   L      10             0.1687145    1.000000000000    1.000000000000

      4   D      11             0.8000000    1.000000000000

 H         

      5   S      12            18.7311370    0.033494604338
      5   S      13             2.8253944    0.234726953484
      5   S      14             0.6401217    0.813757326146

      6   S      15             0.1612778    1.000000000000

 H         

      7   S      16            18.7311370    0.033494604338
      7   S      17             2.8253944    0.234726953484
      7   S      18             0.6401217    0.813757326146

      8   S      19             0.1612778    1.000000000000

 H         

      9   S      20            18.7311370    0.033494604338
      9   S      21             2.8253944    0.234726953484
      9   S      22             0.6401217    0.813757326146

     10   S      23             0.1612778    1.000000000000

 H         

     11   S      24            18.7311370    0.033494604338
     11   S      25             2.8253944    0.234726953484
     11   S      26             0.6401217    0.813757326146

     12   S      27             0.1612778    1.000000000000

 TOTAL NUMBER OF BASIS SET SHELLS             =   12
 NUMBER OF CARTESIAN GAUSSIAN BASIS FUNCTIONS =   23
 NUMBER OF ELECTRONS                          =   10
 CHARGE OF MOLECULE                           =    0
 SPIN MULTIPLICITY                            =    1
 NUMBER OF OCCUPIED ORBITALS (ALPHA)          =    5
 NUMBER OF OCCUPIED ORBITALS (BETA )          =    5
 TOTAL NUMBER OF ATOMS                        =    5
 THE NUCLEAR REPULSION ENERGY IS       13.3912020570

     $CONTRL OPTIONS
     ---------------
 SCFTYP=RHF          RUNTYP=COMP         EXETYP=RUN     
 MPLEVL=       0     CITYP =NONE         CCTYP =NONE         VBTYP =NONE    
 DFTTYP=NONE         TDDFT =NONE    
 MULT  =       1     ICHARG=       0     NZVAR =       0     COORD =UNIQUE  
 PP    =NONE         RELWFN=NONE         LOCAL =NONE         NUMGRD=       F
 ISPHER=      -1     NOSYM =       0     MAXIT =      30     UNITS =ANGS    
 PLTORB=       F     MOLPLT=       F     AIMPAC=       F     FRIEND=        
 NPRINT=       7     IREST =       0     GEOM  =INPUT   
 NORMF =       0     NORMP =       0     ITOL  =      20     ICUT  =       9
 INTTYP=BEST         GRDTYP=BEST         QMTTOL= 1.0E-06

     $SYSTEM OPTIONS
     ---------------
  REPLICATED MEMORY=     1000000 WORDS (ON EVERY NODE).
 DISTRIBUTED MEMDDI=           0 MILLION WORDS IN AGGREGATE,
 MEMDDI DISTRIBUTED OVER   1 PROCESSORS IS           0 WORDS/PROCESSOR.
 TOTAL MEMORY REQUESTED ON EACH PROCESSOR=     1000000 WORDS.
 TIMLIM=      525600.00 MINUTES, OR     365.0 DAYS.
 PARALL= F  BALTYP=  DLB     KDIAG=    0  COREFL= F
 MXSEQ2=     300 MXSEQ3=     150

          ----------------
          PROPERTIES INPUT
          ----------------

     MOMENTS            FIELD           POTENTIAL          DENSITY
 IEMOM =       1   IEFLD =       0   IEPOT =       0   IEDEN =       0
 WHERE =COMASS     WHERE =NUCLEI     WHERE =NUCLEI     WHERE =NUCLEI  
 OUTPUT=BOTH       OUTPUT=BOTH       OUTPUT=BOTH       OUTPUT=BOTH    
 IEMINT=       0   IEFINT=       0                     IEDINT=       0
                                                       MORB  =       0
          EXTRAPOLATION IN EFFECT
          SOSCF IN EFFECT
 ORBITAL PRINTING OPTION: NPREO=     1    23     2     1

     -------------------------------
     INTEGRAL TRANSFORMATION OPTIONS
     -------------------------------
     NWORD  =            0
     CUTOFF = 1.0E-09     MPTRAN =       0
     DIRTRF =       F     AOINTS =DUP     

          ----------------------
          INTEGRAL INPUT OPTIONS
          ----------------------
 NOPK  =       1 NORDER=       0 SCHWRZ=       F

     ------------------------------------------
     THE POINT GROUP IS C1 , NAXIS= 0, ORDER= 1
     ------------------------------------------

     DIMENSIONS OF THE SYMMETRY SUBSPACES ARE
 A   =   23

 ..... DONE SETTING UP THE RUN .....
 STEP CPU TIME =     0.00 TOTAL CPU TIME =        0.0 (    0.0 MIN)
 TOTAL WALL CLOCK TIME=        0.2 SECONDS, CPU UTILIZATION IS   0.00%

    COMPOSITE METHODS AND CALCULATIONS
    CODE SET FOR FORMULATING ANY COMPOSITE METHOD
    ------------------------------------------------------------------

    ----------------------------------------------------------------
          COMPOSITE METHOD ACCESSED: G4MP2   
    ----------------------------------------------------------------

     BASIS OPTIONS
     -------------
     GBASIS=N31          IGAUSS=       6      POLAR=POPN31  
     NDFUNC=       1     NFFUNC=       0     DIFFSP=       F
     NPFUNC=       0      DIFFS=       F     BASNAM=        

          ----------------------
          INTEGRAL INPUT OPTIONS
          ----------------------
 NOPK  =       1 NORDER=       0 SCHWRZ=       F

 ATOM      ATOMIC                      COORDINATES (BOHR)
           CHARGE         X                   Y                   Z
 C           6.0     0.0000003403        0.0000003016        0.0000010488
 H           1.0    -0.0000002748       -1.6874800798       -1.1929947983
 H           1.0    -0.0000002746        1.6874802159       -1.1929952049
 H           1.0    -1.6874815812       -0.0000002188        1.1929942085
 H           1.0     1.6874817902       -0.0000002186        1.1929947459

          INTERNUCLEAR DISTANCES (ANGS.)
          ------------------------------

                1 C          2 H          3 H          4 H          5 H     

   1 C       0.0000000    1.0935969 *  1.0935968 *  1.0935967 *  1.0935967 *
   2 H       1.0935969 *  0.0000000    1.7859522 *  1.7857772 *  1.7857776 *
   3 H       1.0935968 *  1.7859522 *  0.0000000    1.7857775 *  1.7857779 *
   4 H       1.0935967 *  1.7857772 *  1.7857775 *  0.0000000    1.7859538 *
   5 H       1.0935967 *  1.7857776 *  1.7857779 *  1.7859538 *  0.0000000  

  * ... LESS THAN  3.000


     ATOMIC BASIS SET
     ----------------
 THE CONTRACTED PRIMITIVE FUNCTIONS HAVE BEEN UNNORMALIZED
 THE CONTRACTED BASIS FUNCTIONS ARE NOW NORMALIZED TO UNITY

 SHELL TYPE PRIMITIVE    EXPONENT          CONTRACTION COEFFICIENTS

 C         

   1   S    1        3047.5248800      0.001834737132
   1   S    2         457.3695180      0.014037322813
   1   S    3         103.9486850      0.068842622264
   1   S    4          29.2101553      0.232184443216
   1   S    5           9.2866630      0.467941348435
   1   S    6           3.1639270      0.362311985337

   2   L    7           7.8682723     -0.119332419775      0.068999066591
   2   L    8           1.8812885     -0.160854151696      0.316423960957
   2   L    9           0.5442493      1.143456437840      0.744308290898

   3   L   10           0.1687145      1.000000000000      1.000000000000

   4   D   11           0.8000000      1.000000000000

 H         

   5   S   12          18.7311370      0.033494604338
   5   S   13           2.8253944      0.234726953484
   5   S   14           0.6401217      0.813757326146

   6   S   15           0.1612778      1.000000000000

 H         

   7   S   16          18.7311370      0.033494604338
   7   S   17           2.8253944      0.234726953484
   7   S   18           0.6401217      0.813757326146

   8   S   19           0.1612778      1.000000000000

 H         

   9   S   20          18.7311370      0.033494604338
   9   S   21           2.8253944      0.234726953484
   9   S   22           0.6401217      0.813757326146

  10   S   23           0.1612778      1.000000000000

 H         

  11   S   24          18.7311370      0.033494604338
  11   S   25           2.8253944      0.234726953484
  11   S   26           0.6401217      0.813757326146

  12   S   27           0.1612778      1.000000000000

 TOTAL NUMBER OF BASIS SET SHELLS             =   12
 NUMBER OF CARTESIAN GAUSSIAN BASIS FUNCTIONS =   23
 NUMBER OF ELECTRONS                          =   10
 CHARGE OF MOLECULE                           =    0
 SPIN MULTIPLICITY                            =    1
 NUMBER OF OCCUPIED ORBITALS (ALPHA)          =    5
 NUMBER OF OCCUPIED ORBITALS (BETA )          =    5
 TOTAL NUMBER OF ATOMS                        =    5
 THE NUCLEAR REPULSION ENERGY IS       13.3912020570

     ------------------------------------------
     THE POINT GROUP IS C1 , NAXIS= 0, ORDER= 1
     ------------------------------------------

     DIMENSIONS OF THE SYMMETRY SUBSPACES ARE
 A   =   23

 ..... DONE SETTING UP THE RUN .....
 STEP CPU TIME =     0.01 TOTAL CPU TIME =        0.0 (    0.0 MIN)
 TOTAL WALL CLOCK TIME=        0.3 SECONDS, CPU UTILIZATION IS   3.23%

     LEBEDEV GRID-BASED DFT OPTIONS
     ------------------------------
     DFTTYP=B3LYP   
     NRAD  =      96     NLEB  =     302
     NRAD0 =      24     NLEB0 =     110
     SWOFF =    5.00E-03 (PURE SCF -> DFT)
     SWITCH=    3.00E-04 (COARSE -> TIGHT GRID)
     THRESH=    0.00E+00 GTHRE=    1.00E+00

 GRIMME'S EMPIRICAL DISPERSION CORRECTION= F

          ----------------------
          INTEGRAL INPUT OPTIONS
          ----------------------
 NOPK  =       1 NORDER=       0 SCHWRZ=       F

          ----------------------
          INTEGRAL INPUT OPTIONS
          ----------------------
 NOPK  =       1 NORDER=       0 SCHWRZ=       F


          -----------------------------
          STATIONARY POINT LOCATION RUN
          -----------------------------

 OBTAINING INITIAL HESSIAN, HESS=GUESS   
 CARTESIAN COORDINATE OPTIMIZATION USING BADGER'S RULE FORCE CONSTANT GUESS

          PARAMETERS CONTROLLING GEOMETRY SEARCH ARE
          METHOD =QA                  UPHESS =BFGS    
          NNEG   =         0          NFRZ   =         0
          NSTEP  =        50          IFOLOW =         1
          HESS   =GUESS               RESTAR =         F
          IHREP  =         0          HSSEND =         T
          NPRT   =         0          NPUN   =         0
          OPTTOL = 1.000E-04          RMIN   = 1.500E-03
          RMAX   = 1.000E-01          RLIM   = 7.000E-02
          DXMAX  = 3.000E-01          PURIFY =         F
          MOVIE  =         F          TRUPD  =         T
          TRMAX  = 5.000E-01          TRMIN  = 5.000E-02
          ITBMAT =         5          STPT   =         F
          STSTEP = 1.000E-02          PROJCT=          T

 BEGINNING GEOMETRY SEARCH POINT NSERCH=   0 ...

 COORDINATES OF ALL ATOMS ARE (ANGS)
   ATOM   CHARGE       X              Y              Z
 ------------------------------------------------------------
 C           6.0   0.0000001801   0.0000001596   0.0000005550
 H           1.0  -0.0000001454  -0.8929760668  -0.6313057057
 H           1.0  -0.0000001453   0.8929761388  -0.6313059209
 H           1.0  -0.8929768613  -0.0000001158   0.6313053936
 H           1.0   0.8929769719  -0.0000001157   0.6313056780

          ********************
          1 ELECTRON INTEGRALS
          ********************
 ...... END OF ONE-ELECTRON INTEGRALS ......
 STEP CPU TIME =     0.00 TOTAL CPU TIME =        0.0 (    0.0 MIN)
 TOTAL WALL CLOCK TIME=        0.3 SECONDS, CPU UTILIZATION IS   3.23%

          -------------
          GUESS OPTIONS
          -------------
          GUESS =HUCKEL            NORB  =       0          NORDER=       0
          MIX   =       F          PRTMO =       F          PUNMO =       F
          TOLZ  = 1.0E-08          TOLE  = 1.0E-05
          SYMDEN=       F          PURIFY=       F

 INITIAL GUESS ORBITALS GENERATED BY HUCKEL   ROUTINE.
 HUCKEL GUESS REQUIRES      7663 WORDS.

 SYMMETRIES FOR INITIAL GUESS ORBITALS FOLLOW.   BOTH SET(S).
     5 ORBITALS ARE OCCUPIED (    1 CORE ORBITALS).
     2=A        3=A        4=A        5=A        6=A        7=A        8=A   
     9=A       10=A       11=A       12=A       13=A       14=A       15=A   
 ...... END OF INITIAL ORBITAL SELECTION ......
 STEP CPU TIME =     0.00 TOTAL CPU TIME =        0.0 (    0.0 MIN)
 TOTAL WALL CLOCK TIME=        0.4 SECONDS, CPU UTILIZATION IS   2.86%

                    ----------------------
                    AO INTEGRAL TECHNOLOGY
                    ----------------------
     S,P,L SHELL ROTATED AXIS INTEGRALS, REPROGRAMMED BY
        KAZUYA ISHIMURA (IMS) AND JOSE SIERRA (SYNSTAR).
     S,P,D,L SHELL ROTATED AXIS INTEGRALS PROGRAMMED BY
        KAZUYA ISHIMURA (INSTITUTE FOR MOLECULAR SCIENCE).
     S,P,D,F,G SHELL TO TOTAL QUARTET ANGULAR MOMENTUM SUM 5,
        ERIC PROGRAM BY GRAHAM FLETCHER (ELORET AND NASA ADVANCED
        SUPERCOMPUTING DIVISION, AMES RESEARCH CENTER).
     S,P,D,F,G,L SHELL GENERAL RYS QUADRATURE PROGRAMMED BY
        MICHEL DUPUIS (PACIFIC NORTHWEST NATIONAL LABORATORY).

          --------------------
          2 ELECTRON INTEGRALS
          --------------------

 THE -PK- OPTION IS OFF, THE INTEGRALS ARE NOT IN SUPERMATRIX FORM.
 STORING   15000 INTEGRALS/RECORD ON DISK, USING 12 BYTES/INTEGRAL.
 TWO ELECTRON INTEGRAL EVALUATION REQUIRES   90474 WORDS OF MEMORY.
 II,JST,KST,LST =  1  1  1  1 NREC =         1 INTLOC =    1
 II,JST,KST,LST =  2  1  1  1 NREC =         1 INTLOC =    2
 II,JST,KST,LST =  3  1  1  1 NREC =         1 INTLOC =   34
 II,JST,KST,LST =  4  1  1  1 NREC =         1 INTLOC =  214
 II,JST,KST,LST =  5  1  1  1 NREC =         1 INTLOC = 1189
 II,JST,KST,LST =  6  1  1  1 NREC =         1 INTLOC = 3157
 II,JST,KST,LST =  7  1  1  1 NREC =         1 INTLOC = 5257
 II,JST,KST,LST =  8  1  1  1 NREC =         1 INTLOC = 8017
 II,JST,KST,LST =  9  1  1  1 NREC =         1 INTLOC =11044
 II,JST,KST,LST = 10  1  1  1 NREC =         1 INTLOC =14942
 II,JST,KST,LST = 11  1  1  1 NREC =         2 INTLOC = 4166
 II,JST,KST,LST = 12  1  1  1 NREC =         2 INTLOC = 9291
 TOTAL NUMBER OF NONZERO TWO-ELECTRON INTEGRALS =               29915
          2 INTEGRAL RECORDS WERE STORED ON DISK FILE  8.
  ...... END OF TWO-ELECTRON INTEGRALS .....
 STEP CPU TIME =     0.04 TOTAL CPU TIME =        0.0 (    0.0 MIN)
 TOTAL WALL CLOCK TIME=        0.4 SECONDS, CPU UTILIZATION IS  12.82%

          --------------------------
             R-B3LYP SCF CALCULATION
          --------------------------

     NUCLEAR ENERGY =        13.3912020570
     MAXIT =  200     NPUNCH=    2
     EXTRAP=T  DAMP=F  SHIFT=F  RSTRCT=F  DIIS=T  DEM=F  SOSCF=F
         DENSITY MATRIX CONVERGENCE THRESHOLD=  1.00E-05
     COARSE -> FINE DFT GRID SWITCH THRESHOLD=  3.00E-04 (SWITCH IN $DFT)
                   HF -> DFT SWITCH THRESHOLD=  5.00E-03 (SWOFF IN $DFT)
     MEMORY REQUIRED FOR RHF ITERS=    248880 WORDS.

 DFT CODE IS SWITCHING FROM THE FINE GRID NRAD= 96,  NLEB=  302
                      TO THE COARSE GRID NRAD0= 24, NLEB0=  110

     EXCHANGE FUNCTIONAL   =B88&HFX   
     CORRELATION FUNCTIONAL=LYP88&VWN5
     DFT THRESHOLD         =.276E-07
     GRID CHANGE THRESHOLD =.300E-03
 FOR AN EULER-MACLAURIN QUADRATURE USING  96 RADIAL POINTS:
 SMALLEST GAUSSIAN PRIMITIVE EXPONENT=        0.1612777588 OF TYPE -S-
 ON ATOM NUMBER   2 HAS RADIAL NORMALIZATION=  1.000000
  LARGEST GAUSSIAN PRIMITIVE EXPONENT=     3047.5248800000 OF TYPE -S-
 ON ATOM NUMBER   1 HAS RADIAL NORMALIZATION=  1.000000
 DFT IS SWITCHED OFF, PERFORMING PURE SCF UNTIL SWOFF THRESHOLD IS REACHED.

 ITER EX DEM     TOTAL ENERGY        E CHANGE  DENSITY CHANGE    DIIS ERROR
          * * *   INITIATING DIIS PROCEDURE   * * *
   1  0  0      -40.1091334978   -40.1091334978   0.123072599   0.499579255
   2  1  0      -40.1904169473    -0.0812834495   0.043458113   0.050586962
   3  2  0      -40.1942704010    -0.0038534537   0.015092280   0.025281070
   4  3  0      -40.1948704336    -0.0006000325   0.004382521   0.004747093
 CONVERGED TO SWOFF, SO DFT CALCULATION IS NOW SWITCHED ON.
          * * *   INITIATING DIIS PROCEDURE   * * *
   5  4  0      -40.4770569903    -0.2821865568   0.048863683   0.117965964
   6  5  0      -40.4794926859    -0.0024356956   0.029284975   0.030549547
   7  6  0      -40.4797414953    -0.0002488094   0.013668473   0.025953145
   8  7  0      -40.4804818197    -0.0007403244   0.000050750   0.000103701
 DFT CODE IS SWITCHING BACK TO THE FINE GRID
          * * *   INITIATING DIIS PROCEDURE   * * *
   9  8  0      -40.4823714511    -0.0018896314   0.000937038   0.001109785
  10  9  0      -40.4823725556    -0.0000011045   0.000171886   0.000137201
  11 10  0      -40.4823725499     0.0000000058   0.000089686   0.000167145
  12 11  0      -40.4823725806    -0.0000000307   0.000002781   0.000004367
  13 12  0      -40.4823725806     0.0000000000   0.000000064   0.000000093
  14 13  0      -40.4823725806     0.0000000000   0.000000008   0.000000014

          -----------------
          DENSITY CONVERGED
          -----------------
     TIME TO FORM FOCK OPERATORS=       4.1 SECONDS (       0.3 SEC/ITER)
     TIME TO SOLVE SCF EQUATIONS=       0.0 SECONDS (       0.0 SEC/ITER)

 FINAL R-B3LYP ENERGY IS      -40.4823725806 AFTER  14 ITERATIONS
 DFT EXCHANGE + CORRELATION ENERGY =        -5.5501161761
 TOTAL ELECTRON NUMBER             =         9.9998923628

          ------------
          EIGENVECTORS
          ------------

                      1          2          3          4          5
                  -10.1635    -0.6867    -0.3856    -0.3856    -0.3855
                     A          A          A          A          A   
    1  C  1  S    0.992804  -0.198438   0.000000   0.000000  -0.000001
    2  C  1  S    0.049775   0.380179  -0.000001  -0.000001  -0.000004
    3  C  1  X    0.000000   0.000000   0.446153   0.000135  -0.000813
    4  C  1  Y    0.000000   0.000000  -0.000133   0.446153   0.000874
    5  C  1  Z    0.000000   0.000000   0.000813  -0.000873   0.446155
    6  C  1  S   -0.014628   0.361757   0.000008   0.000010   0.000026
    7  C  1  X    0.000000  -0.000001   0.214630   0.000065  -0.000394
    8  C  1  Y    0.000000  -0.000002  -0.000064   0.214631   0.000423
    9  C  1  Z    0.000000  -0.000004   0.000394  -0.000423   0.214681
   10  C  1 XX   -0.009347   0.001504   0.000040  -0.000044   0.022177
   11  C  1 YY   -0.009347   0.001505  -0.000041   0.000043  -0.022179
   12  C  1 ZZ   -0.009347   0.001498   0.000000   0.000000  -0.000001
   13  C  1 XY    0.000000   0.000000   0.000000   0.000000   0.000000
   14  C  1 XZ    0.000000   0.000000   0.025604   0.000008  -0.000047
   15  C  1 YZ    0.000000   0.000000   0.000008  -0.025604  -0.000050
   16  H  2  S   -0.000159   0.134633  -0.000237  -0.239198  -0.169836
   17  H  2  S    0.002599   0.038747  -0.000201  -0.202341  -0.143685
   18  H  3  S   -0.000159   0.134633  -0.000380   0.239861  -0.168899
   19  H  3  S    0.002599   0.038750  -0.000322   0.202892  -0.142897
   20  H  4  S   -0.000159   0.134634  -0.239222  -0.000404   0.169802
   21  H  4  S    0.002599   0.038753  -0.202359  -0.000343   0.143643
   22  H  5  S   -0.000159   0.134634   0.239838  -0.000259   0.168930
   23  H  5  S    0.002599   0.038756   0.202873  -0.000220   0.142909

                      6          7          8          9         10
                    0.1209     0.1796     0.1796     0.1796     0.5366
                     A          A          A          A          A   
    1  C  1  S   -0.162982  -0.000003  -0.000002   0.000001  -0.000001
    2  C  1  S    0.195904   0.000011   0.000005  -0.000003   0.000008
    3  C  1  X   -0.000002  -0.002936  -0.001691  -0.384288   0.000868
    4  C  1  Y   -0.000005  -0.002381   0.384291  -0.001673  -0.000173
    5  C  1  Z   -0.000010   0.384238   0.002368  -0.002947  -0.764728
    6  C  1  S    2.606710   0.000032   0.000019  -0.000004  -0.000012
    7  C  1  X   -0.000004  -0.010375  -0.005978  -1.358460  -0.001650
    8  C  1  Y   -0.000015  -0.008423   1.358474  -0.005914   0.000330
    9  C  1  Z   -0.000028   1.358179   0.008374  -0.010409   1.452959
   10  C  1 XX   -0.012753  -0.016860  -0.000104   0.000129  -0.088252
   11  C  1 YY   -0.012754   0.016861   0.000104  -0.000130   0.088253
   12  C  1 ZZ   -0.012755   0.000000   0.000000   0.000000   0.000001
   13  C  1 XY    0.000000   0.000000   0.000000   0.000000   0.000000
   14  C  1 XZ    0.000000   0.000149   0.000086   0.019458   0.000116
   15  C  1 YZ    0.000000  -0.000120   0.019458  -0.000085   0.000024
   16  H  2  S   -0.019296   0.072624   0.103994  -0.001012   0.285646
   17  H  2  S   -0.991222   1.070236   1.533855  -0.014921   0.130083
   18  H  3  S   -0.019292   0.073906  -0.103093  -0.000111   0.285460
   19  H  3  S   -0.991195   1.089176  -1.520554  -0.001625   0.130002
   20  H  4  S   -0.019289  -0.074060  -0.000908  -0.102979  -0.286017
   21  H  4  S   -0.991178  -1.091395  -0.013387  -1.518914  -0.130244
   22  H  5  S   -0.019288  -0.072477   0.000003   0.104104  -0.285098
   23  H  5  S   -0.991171  -1.068071   0.000054   1.535467  -0.129829

                     11         12         13         14         15
                    0.5366     0.5366     0.9008     0.9008     0.9008
                     A          A          A          A          A   
    1  C  1  S    0.000000   0.000000  -0.000003  -0.000001  -0.000001
    2  C  1  S    0.000004   0.000002  -0.000018  -0.000006  -0.000006
    3  C  1  X   -0.000002  -0.764715  -0.001289  -0.850423   0.000452
    4  C  1  Y   -0.764718   0.000002   0.001863  -0.000455  -0.850420
    5  C  1  Z    0.000173  -0.000867  -0.850381   0.001288  -0.001863
    6  C  1  S   -0.000005  -0.000003   0.000057   0.000017   0.000021
    7  C  1  X    0.000003   1.453565   0.001855   1.222386  -0.000650
    8  C  1  Y    1.453564  -0.000003  -0.002680   0.000654   1.222383
    9  C  1  Z   -0.000331   0.001650   1.222357  -0.001852   0.002681
   10  C  1 XX    0.000021  -0.000100   0.176715  -0.000268   0.000386
   11  C  1 YY   -0.000020   0.000101  -0.176718   0.000267  -0.000387
   12  C  1 ZZ    0.000000   0.000000  -0.000002   0.000000  -0.000001
   13  C  1 XY    0.000000   0.000000   0.000000   0.000000   0.000000
   14  C  1 XZ    0.000000  -0.101917   0.000309   0.204063  -0.000109
   15  C  1 YZ    0.101917   0.000000   0.000446  -0.000109  -0.204063
   16  H  2  S    0.403769   0.000324  -0.511626   0.000386  -0.726946
   17  H  2  S    0.184426   0.000148   0.982196  -0.000749   1.395452
   18  H  3  S   -0.403903   0.000325  -0.514803   0.001162   0.724686
   19  H  3  S   -0.184482   0.000148   0.988302  -0.002240  -1.391134
   20  H  4  S    0.000066   0.403511   0.512088  -0.726596   0.001503
   21  H  4  S    0.000030   0.184310  -0.983146   1.394785  -0.002902
   22  H  5  S    0.000064  -0.404163   0.514286   0.725037   0.000731
   23  H  5  S    0.000030  -0.184603  -0.987370  -1.391804  -0.001420

                     16         17         18         19         20
                    0.9504     1.1030     1.6601     1.6601     2.2466
                     A          A          A          A          A   
    1  C  1  S    0.100198  -0.099540   0.000000   0.000045   0.000000
    2  C  1  S   -0.804817  -2.058835   0.000000   0.000418  -0.000001
    3  C  1  X   -0.000002   0.000003   0.000000   0.000000   0.149315
    4  C  1  Y   -0.000007   0.000004   0.000000   0.000000  -0.000018
    5  C  1  Z   -0.000014   0.000010   0.000000   0.000000   0.000206
    6  C  1  S    1.108038   5.446157   0.000000  -0.001341   0.000001
    7  C  1  X    0.000006  -0.000005   0.000000   0.000000   0.431964
    8  C  1  Y    0.000014  -0.000006   0.000000   0.000000  -0.000052
    9  C  1  Z    0.000029  -0.000016   0.000000   0.000000   0.000597
   10  C  1 XX   -0.021498  -0.114491   0.000000  -0.499983   0.001350
   11  C  1 YY   -0.021499  -0.114483   0.000000  -0.499985  -0.001351
   12  C  1 ZZ   -0.021651  -0.114226   0.000000   1.000016   0.000000
   13  C  1 XY    0.000000   0.000000   1.000000   0.000000   0.000000
   14  C  1 XZ    0.000000  -0.000001   0.000000   0.000000   1.129541
   15  C  1 YZ   -0.000001   0.000002   0.000000   0.000000   0.000137
   16  H  2  S    0.650949  -0.290599   0.000000   0.000210   0.000576
   17  H  2  S   -0.540176  -1.033195   0.000000   0.000216  -0.000064
   18  H  3  S    0.650958  -0.290607   0.000000   0.000210   0.000739
   19  H  3  S   -0.540203  -1.033182   0.000000   0.000215  -0.000083
   20  H  4  S    0.650965  -0.290615   0.000000   0.000210   0.672613
   21  H  4  S   -0.540224  -1.033169   0.000000   0.000216  -0.075046
   22  H  5  S    0.650968  -0.290621   0.000000   0.000210  -0.673927
   23  H  5  S   -0.540234  -1.033160   0.000000   0.000216   0.075191

                     21         22         23
                    2.2466     2.2467     4.1824
                     A          A          A   
    1  C  1  S    0.000000   0.000000  -0.488213
    2  C  1  S    0.000002  -0.000005   2.935921
    3  C  1  X   -0.000018  -0.000206   0.000000
    4  C  1  Y   -0.149316   0.000108   0.000000
    5  C  1  Z    0.000108   0.149333   0.000000
    6  C  1  S   -0.000004   0.000009   2.446721
    7  C  1  X   -0.000053  -0.000596   0.000000
    8  C  1  Y   -0.431962   0.000312   0.000000
    9  C  1  Z    0.000313   0.431652  -0.000001
   10  C  1 XX    0.000707   0.978243  -1.879545
   11  C  1 YY   -0.000707  -0.978240  -1.879545
   12  C  1 ZZ    0.000000  -0.000001  -1.879551
   13  C  1 XY    0.000001   0.000000   0.000000
   14  C  1 XZ   -0.000138  -0.001559   0.000000
   15  C  1 YZ    1.129542  -0.000817   0.000000
   16  H  2  S   -0.672927   0.476579   0.127648
   17  H  2  S    0.075083  -0.053333  -0.494961
   18  H  3  S    0.673614   0.475606   0.127647
   19  H  3  S   -0.075157  -0.053225  -0.494961
   20  H  4  S   -0.000426  -0.477021   0.127647
   21  H  4  S    0.000048   0.053378  -0.494961
   22  H  5  S   -0.000262  -0.475163   0.127647
   23  H  5  S    0.000030   0.053171  -0.494961
 ...... END OF RHF CALCULATION ......
 STEP CPU TIME =     4.17 TOTAL CPU TIME =        4.2 (    0.1 MIN)
 TOTAL WALL CLOCK TIME=        4.9 SECONDS, CPU UTILIZATION IS  85.77%

     ---------------------------------------------------------------------
     PROPERTIES FOR THE B3LYP    DFT FUNCTIONAL (RHF  TYPE) DENSITY MATRIX
     ---------------------------------------------------------------------

          -----------------
          ENERGY COMPONENTS
          -----------------

         WAVEFUNCTION NORMALIZATION =       1.0000000000

                ONE ELECTRON ENERGY =     -79.7490938070
                TWO ELECTRON ENERGY =      25.8755191694
           NUCLEAR REPULSION ENERGY =      13.3912020570
                                      ------------------
                       TOTAL ENERGY =     -40.4823725806

 ELECTRON-ELECTRON POTENTIAL ENERGY =      25.8755191694
  NUCLEUS-ELECTRON POTENTIAL ENERGY =    -119.8164905376
   NUCLEUS-NUCLEUS POTENTIAL ENERGY =      13.3912020570
                                      ------------------
             TOTAL POTENTIAL ENERGY =     -80.5497693112
               TOTAL KINETIC ENERGY =      40.0673967306
                 VIRIAL RATIO (V/T) =       2.0103569456

          ---------------------------------------
          MULLIKEN AND LOWDIN POPULATION ANALYSES
          ---------------------------------------

     ATOMIC MULLIKEN POPULATION IN EACH MOLECULAR ORBITAL

                      1          2          3          4          5

                  2.000000   2.000000   2.000000   2.000000   2.000000

    1             1.997978   1.347472   1.093745   1.093745   1.093821
    2             0.000505   0.163125   0.000000   0.451877   0.227804
    3             0.000505   0.163130   0.000001   0.454376   0.225298
    4             0.000505   0.163134   0.451964   0.000001   0.227704
    5             0.000505   0.163139   0.454290   0.000001   0.225373

               ----- POPULATIONS IN EACH AO -----
                             MULLIKEN      LOWDIN
              1  C  1  S      1.99164     1.98037
              2  C  1  S      0.67287     0.36317
              3  C  1  X      0.71379     0.64271
              4  C  1  Y      0.71379     0.64271
              5  C  1  Z      0.71379     0.64221
              6  C  1  S      0.68015     0.35519
              7  C  1  X      0.37052     0.50818
              8  C  1  Y      0.37052     0.50818
              9  C  1  Z      0.37060     0.50722
             10  C  1 XX      0.00498     0.15284
             11  C  1 YY      0.00498     0.15284
             12  C  1 ZZ      0.00026     0.14579
             13  C  1 XY      0.00000     0.00000
             14  C  1 XZ      0.00943     0.01676
             15  C  1 YZ      0.00943     0.01676
             16  H  2  S      0.52196     0.48115
             17  H  2  S      0.32136     0.36011
             18  H  3  S      0.52195     0.48115
             19  H  3  S      0.32136     0.36011
             20  H  4  S      0.52195     0.48115
             21  H  4  S      0.32135     0.36011
             22  H  5  S      0.52195     0.48115
             23  H  5  S      0.32135     0.36011

          ----- MULLIKEN ATOMIC OVERLAP POPULATIONS -----
          (OFF-DIAGONAL ELEMENTS NEED TO BE MULTIPLIED BY 2)

             1           2           3           4           5

    1    5.0916475
    2    0.3837677   0.5399995
    3    0.3837753  -0.0268086   0.5399929
    4    0.3837823  -0.0268230  -0.0268242   0.5399865
    5    0.3837884  -0.0268237  -0.0268249  -0.0268126   0.5399802

          TOTAL MULLIKEN AND LOWDIN ATOMIC POPULATIONS
       ATOM         MULL.POP.    CHARGE          LOW.POP.     CHARGE
    1 C             6.626761   -0.626761         6.634934   -0.634934
    2 H             0.843312    0.156688         0.841268    0.158732
    3 H             0.843310    0.156690         0.841267    0.158733
    4 H             0.843309    0.156691         0.841266    0.158734
    5 H             0.843307    0.156693         0.841265    0.158735

          -------------------------------
          BOND ORDER AND VALENCE ANALYSIS     BOND ORDER THRESHOLD=0.050
          -------------------------------

                   BOND                       BOND                       BOND
  ATOM PAIR DIST  ORDER      ATOM PAIR DIST  ORDER      ATOM PAIR DIST  ORDER
    1   2  1.094  0.964        1   3  1.094  0.964        1   4  1.094  0.964
    1   5  1.094  0.964

                       TOTAL       BONDED        FREE
      ATOM            VALENCE     VALENCE     VALENCE
    1 C                 3.855       3.855       0.000
    2 H                 0.936       0.936       0.000
    3 H                 0.936       0.936       0.000
    4 H                 0.936       0.936       0.000
    5 H                 0.936       0.936       0.000

          ---------------------
          ELECTROSTATIC MOMENTS
          ---------------------

 POINT   1           X           Y           Z (BOHR)    CHARGE
                 0.000000    0.000000    0.000001        0.00 (A.U.)
         DX          DY          DZ         /D/  (DEBYE)
     0.000010    0.000010    0.000027    0.000031
 ...... END OF PROPERTY EVALUATION ......
 STEP CPU TIME =     0.00 TOTAL CPU TIME =        4.2 (    0.1 MIN)
 TOTAL WALL CLOCK TIME=        5.0 SECONDS, CPU UTILIZATION IS  85.08%

 BEGINNING ONE ELECTRON GRADIENT...
 ..... END OF 1-ELECTRON GRADIENT ......
 STEP CPU TIME =     0.00 TOTAL CPU TIME =        4.2 (    0.1 MIN)
 TOTAL WALL CLOCK TIME=        5.0 SECONDS, CPU UTILIZATION IS  84.91%

          ----------------------
          GRADIENT OF THE ENERGY
          ----------------------
 MEMORY FOR GRID POINT CONTRIBUTIONS TO THE DFT GRADIENT=    196880 WORDS.
 STEP CPU TIME =     1.03 TOTAL CPU TIME =        5.3 (    0.1 MIN)
 TOTAL WALL CLOCK TIME=        6.0 SECONDS, CPU UTILIZATION IS  87.21%

 THE MINIMUM MEMORY REQUIRED FOR THIS RUN IS      74081 WORDS.
 USING     988631 WORDS FOR 2E- DERIVATIVE INTEGRAL CONTRIBUTIONS.
 THE COARSE/FINE SCHWARZ SCREENINGS SKIPPED            0/           0 BLOCKS.
 THE NUMBER OF GRADIENT INTEGRAL BLOCKS COMPUTED WAS      3002
 ...... END OF 2-ELECTRON GRADIENT ......
 STEP CPU TIME =     0.03 TOTAL CPU TIME =        5.3 (    0.1 MIN)
 TOTAL WALL CLOCK TIME=        6.0 SECONDS, CPU UTILIZATION IS  87.42%

          NSERCH=  0     ENERGY=     -40.4823726

                                 -----------------------
                                 GRADIENT (HARTREE/BOHR)
                                 -----------------------
        ATOM     ZNUC       DE/DX         DE/DY         DE/DZ
 --------------------------------------------------------------
    1  C            6.0    -0.0000001    -0.0000001    -0.0000003
    2  H            1.0     0.0000000     0.0000002     0.0000002
    3  H            1.0     0.0000000    -0.0000001     0.0000003
    4  H            1.0     0.0000002     0.0000000    -0.0000001
    5  H            1.0    -0.0000002     0.0000000    -0.0000001

          MAXIMUM GRADIENT = 0.0000003    RMS GRADIENT = 0.0000002

 NSERCH:   0  E=      -40.4823725806  GRAD. MAX=  0.0000003  R.M.S.=  0.0000002


      ***** EQUILIBRIUM GEOMETRY LOCATED *****
 COORDINATES OF ALL ATOMS ARE (ANGS)
   ATOM   CHARGE       X              Y              Z
 ------------------------------------------------------------
 C           6.0   0.0000001801   0.0000001596   0.0000005550
 H           1.0  -0.0000001454  -0.8929760668  -0.6313057057
 H           1.0  -0.0000001453   0.8929761388  -0.6313059209
 H           1.0  -0.8929768613  -0.0000001158   0.6313053936
 H           1.0   0.8929769719  -0.0000001157   0.6313056780

          INTERNUCLEAR DISTANCES (ANGS.)
          ------------------------------

                1 C          2 H          3 H          4 H          5 H     

   1 C       0.0000000    1.0935969 *  1.0935968 *  1.0935967 *  1.0935967 *
   2 H       1.0935969 *  0.0000000    1.7859522 *  1.7857772 *  1.7857776 *
   3 H       1.0935968 *  1.7859522 *  0.0000000    1.7857775 *  1.7857779 *
   4 H       1.0935967 *  1.7857772 *  1.7857775 *  0.0000000    1.7859538 *
   5 H       1.0935967 *  1.7857776 *  1.7857779 *  1.7859538 *  0.0000000  

  * ... LESS THAN  3.000


          NUCLEAR ENERGY    =       13.3912020570
          ELECTRONIC ENERGY =      -53.8735746376
          TOTAL ENERGY      =      -40.4823725806

 THE INITIAL GEOMETRY IS ALREADY CONVERGED,
 SO ORBITALS/PROPERTY OUTPUT IS ALREADY PRINTED ABOVE
  $VIB   
          IVIB=   0 IATOM=   0 ICOORD=   0 E=      -40.4823725806
 -1.274508315E-07-1.122220888E-07-3.160015834E-07 3.852669418E-08 1.856761686E-07
  2.403093313E-07 3.854786901E-08-1.412310316E-07 2.568041468E-07 2.393626601E-07
  3.387788879E-08-8.111852802E-08-1.889863918E-07 3.389906306E-08-9.999336667E-08
  9.731593086E-06 9.885540463E-06 2.749108621E-05
 ......END OF GEOMETRY SEARCH......
 STEP CPU TIME =     0.00 TOTAL CPU TIME =        5.3 (    0.1 MIN)
 TOTAL WALL CLOCK TIME=        6.0 SECONDS, CPU UTILIZATION IS  87.42%


     *********************************************************
     THE HESSIAN WILL NOW BE COMPUTED AT THE STATIONARY POINT.
     *********************************************************

     ---------------------------------
     HESSIAN MATRIX CONTROL PARAMETERS
     ---------------------------------
     METHOD=SEMINUM    NVIB  =       2   VIBSIZ= 0.01000
     RDHESS=       F   PURIFY=       F   PRTIFC=       F
     VIBANL=       T   DECOMP=       F   PROJCT=       F
     SCLFAC= 1.00000   PRTSCN=       F   NPRT  =       0
     PULCOR=       F   NPUN  =       0   REDOVB=       T
     THERMOCHEMISTRY WILL BE PRINTED FOR    1 TEMPERATURES:
      298.15000

 THE VIB 0 GEOMETRY GRADIENT IS

 UNITS ARE HARTREE/BOHR    E'X               E'Y               E'Z 
    1 C               -0.000000127      -0.000000112      -0.000000316
    2 H                0.000000039       0.000000186       0.000000240
    3 H                0.000000039      -0.000000141       0.000000257
    4 H                0.000000239       0.000000034      -0.000000081
    5 H               -0.000000189       0.000000034      -0.000000100
  $VIB   
          IVIB=   0 IATOM=   0 ICOORD=   0 E=      -40.4823725806
 -1.274508315E-07-1.122220888E-07-3.160015834E-07 3.852669418E-08 1.856761686E-07
  2.403093313E-07 3.854786901E-08-1.412310316E-07 2.568041468E-07 2.393626601E-07
  3.387788879E-08-8.111852802E-08-1.889863918E-07 3.389906306E-08-9.999336667E-08
  9.731593086E-06 9.885540463E-06 2.749108621E-05
1   ATOM  1
                                        -------------------
   COORD  1                             NUCLEAR COORDINATES
                                        -------------------
     VIB  1

                       ATOM             X              Y              Z

                 1  C                0.010000       0.000000       0.000001
                 2  H                0.000000      -1.687480      -1.192995
                 3  H                0.000000       1.687480      -1.192995
                 4  H               -1.687482       0.000000       1.192994
                 5  H                1.687482       0.000000       1.192995
 ...... END OF ONE-ELECTRON INTEGRALS ......
 STEP CPU TIME =     0.00 TOTAL CPU TIME =        5.3 (    0.1 MIN)
 TOTAL WALL CLOCK TIME=        6.1 SECONDS, CPU UTILIZATION IS  87.27%
 TOTAL NUMBER OF NONZERO TWO-ELECTRON INTEGRALS =               30956
          3 INTEGRAL RECORDS WERE STORED ON DISK FILE  8.
  ...... END OF TWO-ELECTRON INTEGRALS .....
 STEP CPU TIME =     0.01 TOTAL CPU TIME =        5.3 (    0.1 MIN)
 TOTAL WALL CLOCK TIME=        6.1 SECONDS, CPU UTILIZATION IS  86.30%

          --------------------------
             R-B3LYP SCF CALCULATION
          --------------------------
         DENSITY MATRIX CONVERGENCE THRESHOLD=  1.00E-05
     COARSE -> FINE DFT GRID SWITCH THRESHOLD=  3.00E-04 (SWITCH IN $DFT)
                   HF -> DFT SWITCH THRESHOLD=  5.00E-03 (SWOFF IN $DFT)

 DFT CODE IS SWITCHING FROM THE FINE GRID NRAD= 96,  NLEB=  302
                      TO THE COARSE GRID NRAD0= 24, NLEB0=  110

 ITER EX DEM     TOTAL ENERGY        E CHANGE  DENSITY CHANGE    DIIS ERROR
          * * *   INITIATING DIIS PROCEDURE   * * *
   1  0  0      -40.4804460600   -40.4804460600   0.001989742   0.001970624
   2  1  0      -40.4804566523    -0.0000105923   0.000185042   0.000162751
 DFT CODE IS SWITCHING BACK TO THE FINE GRID
          * * *   INITIATING DIIS PROCEDURE   * * *
   3  2  0      -40.4823436276    -0.0018869754   0.001091086   0.001196973
   4  3  0      -40.4823447317    -0.0000011041   0.000079747   0.000103197
   5  4  0      -40.4823447342    -0.0000000025   0.000047870   0.000071834
   6  5  0      -40.4823447393    -0.0000000052   0.000009408   0.000017715
   7  6  0      -40.4823447397    -0.0000000004   0.000000622   0.000001315

          -----------------
          DENSITY CONVERGED
          -----------------
     TIME TO FORM FOCK OPERATORS=       3.3 SECONDS (       0.5 SEC/ITER)
     TIME TO SOLVE SCF EQUATIONS=       0.0 SECONDS (       0.0 SEC/ITER)

 FINAL R-B3LYP ENERGY IS      -40.4823447397 AFTER   7 ITERATIONS
 DFT EXCHANGE + CORRELATION ENERGY =        -5.5501138764
 TOTAL ELECTRON NUMBER             =         9.9998926766
 ...... END OF RHF CALCULATION ......
 STEP CPU TIME =     3.40 TOTAL CPU TIME =        8.7 (    0.1 MIN)
 TOTAL WALL CLOCK TIME=        9.8 SECONDS, CPU UTILIZATION IS  88.76%
 ..... END OF 1-ELECTRON GRADIENT ......
 STEP CPU TIME =     0.01 TOTAL CPU TIME =        8.7 (    0.1 MIN)
 TOTAL WALL CLOCK TIME=        9.8 SECONDS, CPU UTILIZATION IS  88.87%
 MEMORY FOR GRID POINT CONTRIBUTIONS TO THE DFT GRADIENT=    196865 WORDS.
 STEP CPU TIME =     1.02 TOTAL CPU TIME =        9.7 (    0.2 MIN)
 TOTAL WALL CLOCK TIME=       10.9 SECONDS, CPU UTILIZATION IS  89.42%
 ...... END OF 2-ELECTRON GRADIENT ......
 STEP CPU TIME =     0.03 TOTAL CPU TIME =        9.8 (    0.2 MIN)
 TOTAL WALL CLOCK TIME=       10.9 SECONDS, CPU UTILIZATION IS  89.53%

          ---------------------
          ELECTROSTATIC MOMENTS
          ---------------------

 POINT   1           X           Y           Z (BOHR)    CHARGE
                 0.007486    0.000000    0.000001        0.00 (A.U.)
         DX          DY          DZ         /D/  (DEBYE)
     0.000048    0.000010   -0.000008    0.000050

 UNITS ARE HARTREE/BOHR    E'X               E'Y               E'Z 
    1 C                0.005567872      -0.000000112       0.000062440
    2 H               -0.000478857      -0.000004626      -0.000005176
    3 H               -0.000478857       0.000004670      -0.000005160
    4 H               -0.002279641       0.000000033       0.001265211
    5 H               -0.002330517       0.000000035      -0.001317314
  $VIB   
          IVIB=   1 IATOM=   1 ICOORD=   1 E=      -40.4823447397
  5.567872005E-03-1.121113675E-07 6.243981577E-05-4.788565574E-04-4.625571656E-06
 -5.176315180E-06-4.788574095E-04 4.669861345E-06-5.159697371E-06-2.279641271E-03
  3.322762107E-08 1.265210614E-03-2.330516767E-03 3.459405806E-08-1.317314417E-03
  4.839302303E-05 9.893006492E-06-7.996754863E-06
1   ATOM  1
                                        -------------------
   COORD  2                             NUCLEAR COORDINATES
                                        -------------------
     VIB  1

                       ATOM             X              Y              Z

                 1  C                0.000000       0.010000       0.000001
                 2  H                0.000000      -1.687480      -1.192995
                 3  H                0.000000       1.687480      -1.192995
                 4  H               -1.687482       0.000000       1.192994
                 5  H                1.687482       0.000000       1.192995
 ...... END OF ONE-ELECTRON INTEGRALS ......
 STEP CPU TIME =     0.00 TOTAL CPU TIME =        9.8 (    0.2 MIN)
 TOTAL WALL CLOCK TIME=       10.9 SECONDS, CPU UTILIZATION IS  89.53%
 TOTAL NUMBER OF NONZERO TWO-ELECTRON INTEGRALS =               31044
          3 INTEGRAL RECORDS WERE STORED ON DISK FILE  8.
  ...... END OF TWO-ELECTRON INTEGRALS .....
 STEP CPU TIME =     0.01 TOTAL CPU TIME =        9.8 (    0.2 MIN)
 TOTAL WALL CLOCK TIME=       11.0 SECONDS, CPU UTILIZATION IS  88.89%

          --------------------------
             R-B3LYP SCF CALCULATION
          --------------------------
         DENSITY MATRIX CONVERGENCE THRESHOLD=  1.00E-05
     COARSE -> FINE DFT GRID SWITCH THRESHOLD=  3.00E-04 (SWITCH IN $DFT)
                   HF -> DFT SWITCH THRESHOLD=  5.00E-03 (SWOFF IN $DFT)

 DFT CODE IS SWITCHING FROM THE FINE GRID NRAD= 96,  NLEB=  302
                      TO THE COARSE GRID NRAD0= 24, NLEB0=  110

 ITER EX DEM     TOTAL ENERGY        E CHANGE  DENSITY CHANGE    DIIS ERROR
          * * *   INITIATING DIIS PROCEDURE   * * *
   1  0  0      -40.4804460604   -40.4804460604   0.001984758   0.001970630
   2  1  0      -40.4804566523    -0.0000105919   0.000185040   0.000162718
 DFT CODE IS SWITCHING BACK TO THE FINE GRID
          * * *   INITIATING DIIS PROCEDURE   * * *
   3  2  0      -40.4823436276    -0.0018869754   0.001091095   0.001196975
   4  3  0      -40.4823447317    -0.0000011040   0.000079673   0.000103196
   5  4  0      -40.4823447342    -0.0000000025   0.000047870   0.000071838
   6  5  0      -40.4823447393    -0.0000000052   0.000009411   0.000017713
   7  6  0      -40.4823447398    -0.0000000004   0.000000622   0.000001313

          -----------------
          DENSITY CONVERGED
          -----------------
     TIME TO FORM FOCK OPERATORS=       4.2 SECONDS (       0.6 SEC/ITER)
     TIME TO SOLVE SCF EQUATIONS=       0.0 SECONDS (       0.0 SEC/ITER)

 FINAL R-B3LYP ENERGY IS      -40.4823447398 AFTER   7 ITERATIONS
 DFT EXCHANGE + CORRELATION ENERGY =        -5.5501138768
 TOTAL ELECTRON NUMBER             =         9.9998926766
 ...... END OF RHF CALCULATION ......
 STEP CPU TIME =     4.24 TOTAL CPU TIME =       14.0 (    0.2 MIN)
 TOTAL WALL CLOCK TIME=       15.6 SECONDS, CPU UTILIZATION IS  90.03%
 ..... END OF 1-ELECTRON GRADIENT ......
 STEP CPU TIME =     0.01 TOTAL CPU TIME =       14.0 (    0.2 MIN)
 TOTAL WALL CLOCK TIME=       15.6 SECONDS, CPU UTILIZATION IS  89.98%
 MEMORY FOR GRID POINT CONTRIBUTIONS TO THE DFT GRADIENT=    196865 WORDS.
 STEP CPU TIME =     1.33 TOTAL CPU TIME =       15.3 (    0.3 MIN)
 TOTAL WALL CLOCK TIME=       17.1 SECONDS, CPU UTILIZATION IS  89.97%
 ...... END OF 2-ELECTRON GRADIENT ......
 STEP CPU TIME =     0.03 TOTAL CPU TIME =       15.4 (    0.3 MIN)
 TOTAL WALL CLOCK TIME=       17.1 SECONDS, CPU UTILIZATION IS  89.99%

          ---------------------
          ELECTROSTATIC MOMENTS
          ---------------------

 POINT   1           X           Y           Z (BOHR)    CHARGE
                 0.000000    0.007486    0.000001        0.00 (A.U.)
         DX          DY          DZ         /D/  (DEBYE)
     0.000010    0.000048    0.000063    0.000080

 UNITS ARE HARTREE/BOHR    E'X               E'Y               E'Z 
    1 C               -0.000000127       0.005567884      -0.000063065
    2 H                0.000000038      -0.002279689      -0.001265054
    3 H                0.000000039      -0.002330464       0.001317470
    4 H               -0.000004571      -0.000478865       0.000005334
    5 H                0.000004621      -0.000478866       0.000005315
  $VIB   
          IVIB=   1 IATOM=   1 ICOORD=   2 E=      -40.4823447398
 -1.272224051E-07 5.567884384E-03-6.306518450E-05 3.779812629E-08-2.279688904E-03
 -1.265054055E-03 3.932034353E-08-2.330463914E-03 1.317469553E-03-4.570571027E-06
 -4.788652602E-04 5.334381268E-06 4.620674962E-06-4.788663060E-04 5.315304681E-06
  9.738173583E-06 4.836537409E-05 6.286355387E-05
1   ATOM  1
                                        -------------------
   COORD  3                             NUCLEAR COORDINATES
                                        -------------------
     VIB  1

                       ATOM             X              Y              Z

                 1  C                0.000000       0.000000       0.010001
                 2  H                0.000000      -1.687480      -1.192995
                 3  H                0.000000       1.687480      -1.192995
                 4  H               -1.687482       0.000000       1.192994
                 5  H                1.687482       0.000000       1.192995
 ...... END OF ONE-ELECTRON INTEGRALS ......
 STEP CPU TIME =     0.00 TOTAL CPU TIME =       15.4 (    0.3 MIN)
 TOTAL WALL CLOCK TIME=       17.1 SECONDS, CPU UTILIZATION IS  89.78%
 TOTAL NUMBER OF NONZERO TWO-ELECTRON INTEGRALS =               29983
          2 INTEGRAL RECORDS WERE STORED ON DISK FILE  8.
  ...... END OF TWO-ELECTRON INTEGRALS .....
 STEP CPU TIME =     0.01 TOTAL CPU TIME =       15.4 (    0.3 MIN)
 TOTAL WALL CLOCK TIME=       17.5 SECONDS, CPU UTILIZATION IS  87.89%

          --------------------------
             R-B3LYP SCF CALCULATION
          --------------------------
         DENSITY MATRIX CONVERGENCE THRESHOLD=  1.00E-05
     COARSE -> FINE DFT GRID SWITCH THRESHOLD=  3.00E-04 (SWITCH IN $DFT)
                   HF -> DFT SWITCH THRESHOLD=  5.00E-03 (SWOFF IN $DFT)

 DFT CODE IS SWITCHING FROM THE FINE GRID NRAD= 96,  NLEB=  302
                      TO THE COARSE GRID NRAD0= 24, NLEB0=  110

 ITER EX DEM     TOTAL ENERGY        E CHANGE  DENSITY CHANGE    DIIS ERROR
          * * *   INITIATING DIIS PROCEDURE   * * *
   1  0  0      -40.4804470718   -40.4804470718   0.001620412   0.002025544
   2  1  0      -40.4804576260    -0.0000105543   0.000346772   0.000241947
   3  2  0      -40.4804576693    -0.0000000433   0.000122305   0.000191393
 DFT CODE IS SWITCHING BACK TO THE FINE GRID
          * * *   INITIATING DIIS PROCEDURE   * * *
   4  3  0      -40.4823436776    -0.0018860083   0.000887539   0.001079409
   5  4  0      -40.4823447733    -0.0000010957   0.000236066   0.000195842
   6  5  0      -40.4823447647     0.0000000087   0.000121296   0.000228656
   7  6  0      -40.4823448217    -0.0000000570   0.000001909   0.000002715
   8  7  0      -40.4823448217     0.0000000000   0.000000368   0.000000666

          -----------------
          DENSITY CONVERGED
          -----------------
     TIME TO FORM FOCK OPERATORS=       4.3 SECONDS (       0.5 SEC/ITER)
     TIME TO SOLVE SCF EQUATIONS=       0.0 SECONDS (       0.0 SEC/ITER)

 FINAL R-B3LYP ENERGY IS      -40.4823448217 AFTER   8 ITERATIONS
 DFT EXCHANGE + CORRELATION ENERGY =        -5.5501138060
 TOTAL ELECTRON NUMBER             =         9.9998929394
 ...... END OF RHF CALCULATION ......
 STEP CPU TIME =     4.38 TOTAL CPU TIME =       19.8 (    0.3 MIN)
 TOTAL WALL CLOCK TIME=       22.6 SECONDS, CPU UTILIZATION IS  87.24%
 ..... END OF 1-ELECTRON GRADIENT ......
 STEP CPU TIME =     0.01 TOTAL CPU TIME =       19.8 (    0.3 MIN)
 TOTAL WALL CLOCK TIME=       22.7 SECONDS, CPU UTILIZATION IS  87.13%
 MEMORY FOR GRID POINT CONTRIBUTIONS TO THE DFT GRADIENT=    196865 WORDS.
 STEP CPU TIME =     1.01 TOTAL CPU TIME =       20.8 (    0.3 MIN)
 TOTAL WALL CLOCK TIME=       23.8 SECONDS, CPU UTILIZATION IS  87.38%
 ...... END OF 2-ELECTRON GRADIENT ......
 STEP CPU TIME =     0.03 TOTAL CPU TIME =       20.8 (    0.3 MIN)
 TOTAL WALL CLOCK TIME=       23.8 SECONDS, CPU UTILIZATION IS  87.40%

          ---------------------
          ELECTROSTATIC MOMENTS
          ---------------------

 POINT   1           X           Y           Z (BOHR)    CHARGE
                 0.000000    0.000000    0.007486        0.00 (A.U.)
         DX          DY          DZ         /D/  (DEBYE)
     0.000010    0.000010    0.000076    0.000077

 UNITS ARE HARTREE/BOHR    E'X               E'Y               E'Z 
    1 C               -0.000000124      -0.000000116       0.005550643
    2 H                0.000000038      -0.001275721      -0.001383198
    3 H                0.000000038       0.001275767      -0.001383183
    4 H                0.001304880       0.000000035      -0.001392121
    5 H               -0.001304831       0.000000035      -0.001392142
  $VIB   
          IVIB=   1 IATOM=   1 ICOORD=   3 E=      -40.4823448217
 -1.235483081E-07-1.162091160E-07 5.550643227E-03 3.761210083E-08-1.275721207E-03
 -1.383197535E-03 3.763341146E-08 1.275767483E-03-1.383183048E-03 1.304879504E-03
  3.495608296E-08-1.392120526E-03-1.304831201E-03 3.497710591E-08-1.392142119E-03
  9.657751029E-06 1.004127428E-05 7.586825161E-05
1   ATOM  2
                                        -------------------
   COORD  1                             NUCLEAR COORDINATES
                                        -------------------
     VIB  1

                       ATOM             X              Y              Z

                 1  C                0.000000       0.000000       0.000001
                 2  H                0.010000      -1.687480      -1.192995
                 3  H                0.000000       1.687480      -1.192995
                 4  H               -1.687482       0.000000       1.192994
                 5  H                1.687482       0.000000       1.192995
 ...... END OF ONE-ELECTRON INTEGRALS ......
 STEP CPU TIME =     0.00 TOTAL CPU TIME =       20.8 (    0.3 MIN)
 TOTAL WALL CLOCK TIME=       23.8 SECONDS, CPU UTILIZATION IS  87.40%
 TOTAL NUMBER OF NONZERO TWO-ELECTRON INTEGRALS =               30472
          3 INTEGRAL RECORDS WERE STORED ON DISK FILE  8.
  ...... END OF TWO-ELECTRON INTEGRALS .....
 STEP CPU TIME =     0.01 TOTAL CPU TIME =       20.8 (    0.3 MIN)
 TOTAL WALL CLOCK TIME=       23.9 SECONDS, CPU UTILIZATION IS  87.15%

          --------------------------
             R-B3LYP SCF CALCULATION
          --------------------------
         DENSITY MATRIX CONVERGENCE THRESHOLD=  1.00E-05
     COARSE -> FINE DFT GRID SWITCH THRESHOLD=  3.00E-04 (SWITCH IN $DFT)
                   HF -> DFT SWITCH THRESHOLD=  5.00E-03 (SWOFF IN $DFT)

 DFT CODE IS SWITCHING FROM THE FINE GRID NRAD= 96,  NLEB=  302
                      TO THE COARSE GRID NRAD0= 24, NLEB0=  110

 ITER EX DEM     TOTAL ENERGY        E CHANGE  DENSITY CHANGE    DIIS ERROR
          * * *   INITIATING DIIS PROCEDURE   * * *
   1  0  0      -40.4804775830   -40.4804775830   0.000931158   0.001181783
   2  1  0      -40.4804799230    -0.0000023400   0.000181259   0.000168280
 DFT CODE IS SWITCHING BACK TO THE FINE GRID
          * * *   INITIATING DIIS PROCEDURE   * * *
   3  2  0      -40.4823691577    -0.0018892346   0.001085677   0.001194475
   4  3  0      -40.4823702616    -0.0000011040   0.000071172   0.000100360
   5  4  0      -40.4823702641    -0.0000000025   0.000043978   0.000063883
   6  5  0      -40.4823702681    -0.0000000040   0.000009641   0.000018207
   7  6  0      -40.4823702685    -0.0000000004   0.000000461   0.000000717

          -----------------
          DENSITY CONVERGED
          -----------------
     TIME TO FORM FOCK OPERATORS=       3.3 SECONDS (       0.5 SEC/ITER)
     TIME TO SOLVE SCF EQUATIONS=       0.0 SECONDS (       0.0 SEC/ITER)

 FINAL R-B3LYP ENERGY IS      -40.4823702685 AFTER   7 ITERATIONS
 DFT EXCHANGE + CORRELATION ENERGY =        -5.5501122511
 TOTAL ELECTRON NUMBER             =         9.9998924786
 ...... END OF RHF CALCULATION ......
 STEP CPU TIME =     3.41 TOTAL CPU TIME =       24.2 (    0.4 MIN)
 TOTAL WALL CLOCK TIME=       28.0 SECONDS, CPU UTILIZATION IS  86.44%
 ..... END OF 1-ELECTRON GRADIENT ......
 STEP CPU TIME =     0.00 TOTAL CPU TIME =       24.2 (    0.4 MIN)
 TOTAL WALL CLOCK TIME=       28.0 SECONDS, CPU UTILIZATION IS  86.41%
 MEMORY FOR GRID POINT CONTRIBUTIONS TO THE DFT GRADIENT=    196865 WORDS.
 STEP CPU TIME =     1.03 TOTAL CPU TIME =       25.3 (    0.4 MIN)
 TOTAL WALL CLOCK TIME=       29.1 SECONDS, CPU UTILIZATION IS  86.86%
 ...... END OF 2-ELECTRON GRADIENT ......
 STEP CPU TIME =     0.03 TOTAL CPU TIME =       25.3 (    0.4 MIN)
 TOTAL WALL CLOCK TIME=       29.1 SECONDS, CPU UTILIZATION IS  86.91%

          ---------------------
          ELECTROSTATIC MOMENTS
          ---------------------

 POINT   1           X           Y           Z (BOHR)    CHARGE
                 0.000629    0.000000    0.000001        0.00 (A.U.)
         DX          DY          DZ         /D/  (DEBYE)
     0.001871    0.000019    0.000039    0.001872

 UNITS ARE HARTREE/BOHR    E'X               E'Y               E'Z 
    1 C               -0.000476459       0.000004944       0.000003991
    2 H                0.000465731      -0.000004629      -0.000003048
    3 H               -0.000017570      -0.000000117       0.000000167
    4 H                0.000014285       0.000241538       0.000147851
    5 H                0.000014012      -0.000241736      -0.000148961
  $VIB   
          IVIB=   1 IATOM=   2 ICOORD=   1 E=      -40.4823702685
 -4.764587974E-04 4.944250103E-06 3.991373421E-06 4.657313417E-04-4.629485961E-06
 -3.048258050E-06-1.757016623E-05-1.166247603E-07 1.669385071E-07 1.428537053E-05
  2.415377832E-04 1.478510449E-04 1.401225137E-05-2.417359226E-04-1.489610988E-04
  1.871158871E-03 1.852121083E-05 3.931488101E-05
1   ATOM  2
                                        -------------------
   COORD  2                             NUCLEAR COORDINATES
                                        -------------------
     VIB  1

                       ATOM             X              Y              Z

                 1  C                0.000000       0.000000       0.000001
                 2  H                0.000000      -1.677480      -1.192995
                 3  H                0.000000       1.687480      -1.192995
                 4  H               -1.687482       0.000000       1.192994
                 5  H                1.687482       0.000000       1.192995
 ...... END OF ONE-ELECTRON INTEGRALS ......
 STEP CPU TIME =     0.00 TOTAL CPU TIME =       25.3 (    0.4 MIN)
 TOTAL WALL CLOCK TIME=       29.1 SECONDS, CPU UTILIZATION IS  86.91%
 TOTAL NUMBER OF NONZERO TWO-ELECTRON INTEGRALS =               29980
          2 INTEGRAL RECORDS WERE STORED ON DISK FILE  8.
  ...... END OF TWO-ELECTRON INTEGRALS .....
 STEP CPU TIME =     0.01 TOTAL CPU TIME =       25.3 (    0.4 MIN)
 TOTAL WALL CLOCK TIME=       29.1 SECONDS, CPU UTILIZATION IS  86.79%

          --------------------------
             R-B3LYP SCF CALCULATION
          --------------------------
         DENSITY MATRIX CONVERGENCE THRESHOLD=  1.00E-05
     COARSE -> FINE DFT GRID SWITCH THRESHOLD=  3.00E-04 (SWITCH IN $DFT)
                   HF -> DFT SWITCH THRESHOLD=  5.00E-03 (SWOFF IN $DFT)

 DFT CODE IS SWITCHING FROM THE FINE GRID NRAD= 96,  NLEB=  302
                      TO THE COARSE GRID NRAD0= 24, NLEB0=  110

 ITER EX DEM     TOTAL ENERGY        E CHANGE  DENSITY CHANGE    DIIS ERROR
          * * *   INITIATING DIIS PROCEDURE   * * *
   1  0  0      -40.4804600777   -40.4804600777   0.001464318   0.001419684
   2  1  0      -40.4804641357    -0.0000040580   0.000570078   0.000573569
   3  2  0      -40.4804643145    -0.0000001789   0.000250752   0.000432405
 DFT CODE IS SWITCHING BACK TO THE FINE GRID
          * * *   INITIATING DIIS PROCEDURE   * * *
   4  3  0      -40.4823589975    -0.0018946829   0.000962645   0.001123387
   5  4  0      -40.4823600997    -0.0000011022   0.000135837   0.000105871
   6  5  0      -40.4823600969     0.0000000028   0.000072836   0.000131465
   7  6  0      -40.4823601159    -0.0000000190   0.000003916   0.000006374
   8  7  0      -40.4823601160     0.0000000000   0.000000383   0.000000665
   9  8  0      -40.4823601160     0.0000000000   0.000000025   0.000000036

          -----------------
          DENSITY CONVERGED
          -----------------
     TIME TO FORM FOCK OPERATORS=       4.0 SECONDS (       0.4 SEC/ITER)
     TIME TO SOLVE SCF EQUATIONS=       0.0 SECONDS (       0.0 SEC/ITER)

 FINAL R-B3LYP ENERGY IS      -40.4823601160 AFTER   9 ITERATIONS
 DFT EXCHANGE + CORRELATION ENERGY =        -5.5513465179
 TOTAL ELECTRON NUMBER             =         9.9998917938
 ...... END OF RHF CALCULATION ......
 STEP CPU TIME =     4.10 TOTAL CPU TIME =       29.4 (    0.5 MIN)
 TOTAL WALL CLOCK TIME=       33.7 SECONDS, CPU UTILIZATION IS  87.16%
 ..... END OF 1-ELECTRON GRADIENT ......
 STEP CPU TIME =     0.00 TOTAL CPU TIME =       29.4 (    0.5 MIN)
 TOTAL WALL CLOCK TIME=       33.7 SECONDS, CPU UTILIZATION IS  87.16%
 MEMORY FOR GRID POINT CONTRIBUTIONS TO THE DFT GRADIENT=    196865 WORDS.
 STEP CPU TIME =     1.02 TOTAL CPU TIME =       30.4 (    0.5 MIN)
 TOTAL WALL CLOCK TIME=       34.9 SECONDS, CPU UTILIZATION IS  87.24%
 ...... END OF 2-ELECTRON GRADIENT ......
 STEP CPU TIME =     0.02 TOTAL CPU TIME =       30.4 (    0.5 MIN)
 TOTAL WALL CLOCK TIME=       34.9 SECONDS, CPU UTILIZATION IS  87.25%

          ---------------------
          ELECTROSTATIC MOMENTS
          ---------------------

 POINT   1           X           Y           Z (BOHR)    CHARGE
                 0.000000    0.000629    0.000001        0.00 (A.U.)
         DX          DY          DZ         /D/  (DEBYE)
     0.000010   -0.001846   -0.002609    0.003196

 UNITS ARE HARTREE/BOHR    E'X               E'Y               E'Z 
    1 C               -0.000000128      -0.002332220      -0.001315209
    2 H                0.000000039       0.002501510       0.001445209
    3 H                0.000000038      -0.000201174      -0.000167080
    4 H                0.000006463       0.000015942       0.000018550
    5 H               -0.000006412       0.000015942       0.000018531
  $VIB   
          IVIB=   1 IATOM=   2 ICOORD=   2 E=      -40.4823601160
 -1.278347362E-07-2.332219837E-03-1.315209153E-03 3.907489545E-08 2.501509754E-03
  1.445208660E-03 3.830562739E-08-2.011739107E-04-1.670801742E-04 6.462844736E-06
  1.594184397E-05 1.854961691E-05-6.412390523E-06 1.594214921E-05 1.853104983E-05
  9.735379285E-06-1.845871719E-03-2.608506765E-03
1   ATOM  2
                                        -------------------
   COORD  3                             NUCLEAR COORDINATES
                                        -------------------
     VIB  1

                       ATOM             X              Y              Z

                 1  C                0.000000       0.000000       0.000001
                 2  H                0.000000      -1.687480      -1.182995
                 3  H                0.000000       1.687480      -1.192995
                 4  H               -1.687482       0.000000       1.192994
                 5  H                1.687482       0.000000       1.192995
 ...... END OF ONE-ELECTRON INTEGRALS ......
 STEP CPU TIME =     0.01 TOTAL CPU TIME =       30.4 (    0.5 MIN)
 TOTAL WALL CLOCK TIME=       34.9 SECONDS, CPU UTILIZATION IS  87.25%
 TOTAL NUMBER OF NONZERO TWO-ELECTRON INTEGRALS =               29990
          2 INTEGRAL RECORDS WERE STORED ON DISK FILE  8.
  ...... END OF TWO-ELECTRON INTEGRALS .....
 STEP CPU TIME =     0.01 TOTAL CPU TIME =       30.5 (    0.5 MIN)
 TOTAL WALL CLOCK TIME=       35.0 SECONDS, CPU UTILIZATION IS  87.00%

          --------------------------
             R-B3LYP SCF CALCULATION
          --------------------------
         DENSITY MATRIX CONVERGENCE THRESHOLD=  1.00E-05
     COARSE -> FINE DFT GRID SWITCH THRESHOLD=  3.00E-04 (SWITCH IN $DFT)
                   HF -> DFT SWITCH THRESHOLD=  5.00E-03 (SWOFF IN $DFT)

 DFT CODE IS SWITCHING FROM THE FINE GRID NRAD= 96,  NLEB=  302
                      TO THE COARSE GRID NRAD0= 24, NLEB0=  110

 ITER EX DEM     TOTAL ENERGY        E CHANGE  DENSITY CHANGE    DIIS ERROR
          * * *   INITIATING DIIS PROCEDURE   * * *
   1  0  0      -40.4804724788   -40.4804724788   0.001304084   0.001395305
   2  1  0      -40.4804757024    -0.0000032236   0.000366708   0.000363875
   3  2  0      -40.4804757566    -0.0000000542   0.000191206   0.000326107
 DFT CODE IS SWITCHING BACK TO THE FINE GRID
          * * *   INITIATING DIIS PROCEDURE   * * *
   4  3  0      -40.4823641147    -0.0018883581   0.000958881   0.001118801
   5  4  0      -40.4823652152    -0.0000011005   0.000135290   0.000112147
   6  5  0      -40.4823652123     0.0000000029   0.000071970   0.000130643
   7  6  0      -40.4823652311    -0.0000000188   0.000003798   0.000006198
   8  7  0      -40.4823652311     0.0000000000   0.000000273   0.000000547
   9  8  0      -40.4823652311     0.0000000000   0.000000024   0.000000054

          -----------------
          DENSITY CONVERGED
          -----------------
     TIME TO FORM FOCK OPERATORS=       4.0 SECONDS (       0.4 SEC/ITER)
     TIME TO SOLVE SCF EQUATIONS=       0.0 SECONDS (       0.0 SEC/ITER)

 FINAL R-B3LYP ENERGY IS      -40.4823652311 AFTER   9 ITERATIONS
 DFT EXCHANGE + CORRELATION ENERGY =        -5.5509835305
 TOTAL ELECTRON NUMBER             =         9.9998929741
 ...... END OF RHF CALCULATION ......
 STEP CPU TIME =     4.12 TOTAL CPU TIME =       34.6 (    0.6 MIN)
 TOTAL WALL CLOCK TIME=       39.7 SECONDS, CPU UTILIZATION IS  87.06%
 ..... END OF 1-ELECTRON GRADIENT ......
 STEP CPU TIME =     0.01 TOTAL CPU TIME =       34.6 (    0.6 MIN)
 TOTAL WALL CLOCK TIME=       39.9 SECONDS, CPU UTILIZATION IS  86.69%
 MEMORY FOR GRID POINT CONTRIBUTIONS TO THE DFT GRADIENT=    196865 WORDS.
 STEP CPU TIME =     1.02 TOTAL CPU TIME =       35.6 (    0.6 MIN)
 TOTAL WALL CLOCK TIME=       41.1 SECONDS, CPU UTILIZATION IS  86.60%
 ...... END OF 2-ELECTRON GRADIENT ......
 STEP CPU TIME =     0.02 TOTAL CPU TIME =       35.6 (    0.6 MIN)
 TOTAL WALL CLOCK TIME=       41.1 SECONDS, CPU UTILIZATION IS  86.61%

          ---------------------
          ELECTROSTATIC MOMENTS
          ---------------------

 POINT   1           X           Y           Z (BOHR)    CHARGE
                 0.000000    0.000000    0.000629        0.00 (A.U.)
         DX          DY          DZ         /D/  (DEBYE)
     0.000010   -0.002618    0.000028    0.002618

 UNITS ARE HARTREE/BOHR    E'X               E'Y               E'Z 
    1 C               -0.000000128      -0.001301858      -0.001391741
    2 H                0.000000039       0.001434362       0.001473228
    3 H                0.000000038       0.000166257       0.000138926
    4 H               -0.000017741      -0.000149381      -0.000110197
    5 H                0.000017791      -0.000149381      -0.000110216
  $VIB   
          IVIB=   1 IATOM=   2 ICOORD=   3 E=      -40.4823652311
 -1.276234240E-07-1.301858167E-03-1.391741156E-03 3.911484952E-08 1.434362452E-03
  1.473228485E-03 3.848984218E-08 1.662574110E-04 1.389255164E-04-1.774095003E-05
 -1.493808062E-04-1.101970681E-04 1.779096876E-05-1.493808896E-04-1.102157763E-04
  9.716684384E-06-2.617801202E-03 2.834672935E-05
1   ATOM  3
                                        -------------------
   COORD  1                             NUCLEAR COORDINATES
                                        -------------------
     VIB  1

                       ATOM             X              Y              Z

                 1  C                0.000000       0.000000       0.000001
                 2  H                0.000000      -1.687480      -1.192995
                 3  H                0.010000       1.687480      -1.192995
                 4  H               -1.687482       0.000000       1.192994
                 5  H                1.687482       0.000000       1.192995
 ...... END OF ONE-ELECTRON INTEGRALS ......
 STEP CPU TIME =     0.00 TOTAL CPU TIME =       35.6 (    0.6 MIN)
 TOTAL WALL CLOCK TIME=       41.1 SECONDS, CPU UTILIZATION IS  86.61%
 TOTAL NUMBER OF NONZERO TWO-ELECTRON INTEGRALS =               30481
          3 INTEGRAL RECORDS WERE STORED ON DISK FILE  8.
  ...... END OF TWO-ELECTRON INTEGRALS .....
 STEP CPU TIME =     0.01 TOTAL CPU TIME =       35.6 (    0.6 MIN)
 TOTAL WALL CLOCK TIME=       41.2 SECONDS, CPU UTILIZATION IS  86.46%

          --------------------------
             R-B3LYP SCF CALCULATION
          --------------------------
         DENSITY MATRIX CONVERGENCE THRESHOLD=  1.00E-05
     COARSE -> FINE DFT GRID SWITCH THRESHOLD=  3.00E-04 (SWITCH IN $DFT)
                   HF -> DFT SWITCH THRESHOLD=  5.00E-03 (SWOFF IN $DFT)

 DFT CODE IS SWITCHING FROM THE FINE GRID NRAD= 96,  NLEB=  302
                      TO THE COARSE GRID NRAD0= 24, NLEB0=  110

 ITER EX DEM     TOTAL ENERGY        E CHANGE  DENSITY CHANGE    DIIS ERROR
          * * *   INITIATING DIIS PROCEDURE   * * *
   1  0  0      -40.4804775830   -40.4804775830   0.000931158   0.001181739
   2  1  0      -40.4804799230    -0.0000023400   0.000181258   0.000168282
 DFT CODE IS SWITCHING BACK TO THE FINE GRID
          * * *   INITIATING DIIS PROCEDURE   * * *
   3  2  0      -40.4823691577    -0.0018892346   0.001085678   0.001194475
   4  3  0      -40.4823702616    -0.0000011040   0.000071170   0.000100359
   5  4  0      -40.4823702641    -0.0000000025   0.000043978   0.000063884
   6  5  0      -40.4823702681    -0.0000000040   0.000009641   0.000018207
   7  6  0      -40.4823702685    -0.0000000004   0.000000461   0.000000719

          -----------------
          DENSITY CONVERGED
          -----------------
     TIME TO FORM FOCK OPERATORS=       3.3 SECONDS (       0.5 SEC/ITER)
     TIME TO SOLVE SCF EQUATIONS=       0.0 SECONDS (       0.0 SEC/ITER)

 FINAL R-B3LYP ENERGY IS      -40.4823702685 AFTER   7 ITERATIONS
 DFT EXCHANGE + CORRELATION ENERGY =        -5.5501122510
 TOTAL ELECTRON NUMBER             =         9.9998924786
 ...... END OF RHF CALCULATION ......
 STEP CPU TIME =     3.41 TOTAL CPU TIME =       39.1 (    0.7 MIN)
 TOTAL WALL CLOCK TIME=       45.2 SECONDS, CPU UTILIZATION IS  86.45%
 ..... END OF 1-ELECTRON GRADIENT ......
 STEP CPU TIME =     0.00 TOTAL CPU TIME =       39.1 (    0.7 MIN)
 TOTAL WALL CLOCK TIME=       45.2 SECONDS, CPU UTILIZATION IS  86.34%
 MEMORY FOR GRID POINT CONTRIBUTIONS TO THE DFT GRADIENT=    196865 WORDS.
 STEP CPU TIME =     1.03 TOTAL CPU TIME =       40.1 (    0.7 MIN)
 TOTAL WALL CLOCK TIME=       46.3 SECONDS, CPU UTILIZATION IS  86.60%
 ...... END OF 2-ELECTRON GRADIENT ......
 STEP CPU TIME =     0.02 TOTAL CPU TIME =       40.1 (    0.7 MIN)
 TOTAL WALL CLOCK TIME=       46.3 SECONDS, CPU UTILIZATION IS  86.61%

          ---------------------
          ELECTROSTATIC MOMENTS
          ---------------------

 POINT   1           X           Y           Z (BOHR)    CHARGE
                 0.000629    0.000000    0.000001        0.00 (A.U.)
         DX          DY          DZ         /D/  (DEBYE)
     0.001871    0.000001    0.000039    0.001872

 UNITS ARE HARTREE/BOHR    E'X               E'Y               E'Z 
    1 C               -0.000476459      -0.000005169       0.000003991
    2 H               -0.000017570       0.000000161       0.000000150
    3 H                0.000465732       0.000004674      -0.000003031
    4 H                0.000014285      -0.000241470       0.000147851
    5 H                0.000014012       0.000241804      -0.000148961
  $VIB   
          IVIB=   1 IATOM=   3 ICOORD=   1 E=      -40.4823702685
 -4.764592380E-04-5.168641069E-06 3.991239049E-06-1.757015721E-05 1.606493464E-07
  1.500840053E-07 4.657316648E-04 4.673630062E-06-3.031142903E-06 1.428546494E-05
 -2.414696276E-04 1.478511698E-04 1.401226546E-05 2.418039892E-04-1.489613499E-04
  1.871263135E-03 1.267463860E-06 3.932589508E-05
1   ATOM  3
                                        -------------------
   COORD  2                             NUCLEAR COORDINATES
                                        -------------------
     VIB  1

                       ATOM             X              Y              Z

                 1  C                0.000000       0.000000       0.000001
                 2  H                0.000000      -1.687480      -1.192995
                 3  H                0.000000       1.697480      -1.192995
                 4  H               -1.687482       0.000000       1.192994
                 5  H                1.687482       0.000000       1.192995
 ...... END OF ONE-ELECTRON INTEGRALS ......
 STEP CPU TIME =     0.00 TOTAL CPU TIME =       40.1 (    0.7 MIN)
 TOTAL WALL CLOCK TIME=       46.3 SECONDS, CPU UTILIZATION IS  86.59%
 TOTAL NUMBER OF NONZERO TWO-ELECTRON INTEGRALS =               29979
          2 INTEGRAL RECORDS WERE STORED ON DISK FILE  8.
  ...... END OF TWO-ELECTRON INTEGRALS .....
 STEP CPU TIME =     0.02 TOTAL CPU TIME =       40.1 (    0.7 MIN)
 TOTAL WALL CLOCK TIME=       46.4 SECONDS, CPU UTILIZATION IS  86.52%

          --------------------------
             R-B3LYP SCF CALCULATION
          --------------------------
         DENSITY MATRIX CONVERGENCE THRESHOLD=  1.00E-05
     COARSE -> FINE DFT GRID SWITCH THRESHOLD=  3.00E-04 (SWITCH IN $DFT)
                   HF -> DFT SWITCH THRESHOLD=  5.00E-03 (SWOFF IN $DFT)

 DFT CODE IS SWITCHING FROM THE FINE GRID NRAD= 96,  NLEB=  302
                      TO THE COARSE GRID NRAD0= 24, NLEB0=  110

 ITER EX DEM     TOTAL ENERGY        E CHANGE  DENSITY CHANGE    DIIS ERROR
          * * *   INITIATING DIIS PROCEDURE   * * *
   1  0  0      -40.4804720880   -40.4804720880   0.001687118   0.001226266
   2  1  0      -40.4804754834    -0.0000033955   0.000749680   0.000846450
   3  2  0      -40.4804760506    -0.0000005672   0.000275857   0.000497584
 DFT CODE IS SWITCHING BACK TO THE FINE GRID
          * * *   INITIATING DIIS PROCEDURE   * * *
   4  3  0      -40.4823591380    -0.0018830873   0.000910665   0.001093726
   5  4  0      -40.4823602396    -0.0000011016   0.000202024   0.000161462
   6  5  0      -40.4823602320     0.0000000076   0.000104907   0.000196356
   7  6  0      -40.4823602743    -0.0000000423   0.000002396   0.000003153
   8  7  0      -40.4823602743     0.0000000000   0.000000382   0.000000637
   9  8  0      -40.4823602743     0.0000000000   0.000000025   0.000000031

          -----------------
          DENSITY CONVERGED
          -----------------
     TIME TO FORM FOCK OPERATORS=       4.0 SECONDS (       0.4 SEC/ITER)
     TIME TO SOLVE SCF EQUATIONS=       0.0 SECONDS (       0.0 SEC/ITER)

 FINAL R-B3LYP ENERGY IS      -40.4823602743 AFTER   9 ITERATIONS
 DFT EXCHANGE + CORRELATION ENERGY =        -5.5488914468
 TOTAL ELECTRON NUMBER             =         9.9998929434
 ...... END OF RHF CALCULATION ......
 STEP CPU TIME =     4.09 TOTAL CPU TIME =       44.2 (    0.7 MIN)
 TOTAL WALL CLOCK TIME=       50.9 SECONDS, CPU UTILIZATION IS  86.94%
 ..... END OF 1-ELECTRON GRADIENT ......
[...]
   11  C  1 YY   -0.000492  -0.975759  -1.877692
   12  C  1 ZZ    0.000000  -0.000002  -1.877700
   13  C  1 XY    0.000001   0.000000   0.000000
   14  C  1 XZ   -0.000043  -0.001069   0.000000
   15  C  1 YZ    1.126675  -0.000569   0.000000
   16  H  2  S   -0.683521   0.483857   0.127182
   17  H  2  S    0.085019  -0.060331  -0.479753
   18  H  3  S    0.684009   0.483167   0.127182
   19  H  3  S   -0.085080  -0.060245  -0.479753
   20  H  4  S   -0.000270  -0.484161   0.127183
   21  H  4  S    0.000033   0.060369  -0.479753
   22  H  5  S   -0.000218  -0.482864   0.127183
   23  H  5  S    0.000027   0.060208  -0.479753
 ...... END OF RHF CALCULATION ......
 STEP CPU TIME =     0.01 TOTAL CPU TIME =      539.0 (    9.0 MIN)
 TOTAL WALL CLOCK TIME=      997.7 SECONDS, CPU UTILIZATION IS  54.02%

     ----------------------------------------------------------------
     PROPERTY VALUES FOR THE RHF   SELF-CONSISTENT FIELD WAVEFUNCTION
     ----------------------------------------------------------------

          ---------------------------------------
          MULLIKEN AND LOWDIN POPULATION ANALYSES
          ---------------------------------------

               ----- POPULATIONS IN EACH AO -----
                             MULLIKEN      LOWDIN
              1  C  1  S      1.99643     1.98224
              2  C  1  S      0.62403     0.35207
              3  C  1  X      0.68948     0.62422
              4  C  1  Y      0.68948     0.62422
              5  C  1  Z      0.68946     0.62366
              6  C  1  S      0.69164     0.35736
              7  C  1  X      0.39868     0.52054
              8  C  1  Y      0.39868     0.52054
              9  C  1  Z      0.39871     0.51940
             10  C  1 XX      0.02009     0.15627
             11  C  1 YY      0.02009     0.15627
             12  C  1 ZZ      0.01313     0.14760
             13  C  1 XY      0.00000     0.00000
             14  C  1 XZ      0.01389     0.02024
             15  C  1 YZ      0.01389     0.02024
             16  H  2  S      0.51983     0.48190
             17  H  2  S      0.31575     0.36188
             18  H  3  S      0.51983     0.48190
             19  H  3  S      0.31575     0.36188
             20  H  4  S      0.51983     0.48190
             21  H  4  S      0.31575     0.36188
             22  H  5  S      0.51983     0.48190
             23  H  5  S      0.31575     0.36188

          ----- MULLIKEN ATOMIC OVERLAP POPULATIONS -----
          (OFF-DIAGONAL ELEMENTS NEED TO BE MULTIPLIED BY 2)

             1           2           3           4           5

    1    5.1091415
    2    0.3871354   0.5258736
    3    0.3871354  -0.0257944   0.5258735
    4    0.3871354  -0.0258177  -0.0258177   0.5258733
    5    0.3871354  -0.0258177  -0.0258176  -0.0257942   0.5258732

          TOTAL MULLIKEN AND LOWDIN ATOMIC POPULATIONS
       ATOM         MULL.POP.    CHARGE          LOW.POP.     CHARGE
    1 C             6.657683   -0.657683         6.624890   -0.624890
    2 H             0.835579    0.164421         0.843778    0.156222
    3 H             0.835579    0.164421         0.843777    0.156223
    4 H             0.835579    0.164421         0.843777    0.156223
    5 H             0.835579    0.164421         0.843777    0.156223

          -------------------------------
          BOND ORDER AND VALENCE ANALYSIS     BOND ORDER THRESHOLD=0.050
          -------------------------------

                   BOND                       BOND                       BOND
  ATOM PAIR DIST  ORDER      ATOM PAIR DIST  ORDER      ATOM PAIR DIST  ORDER
    1   2  1.094  0.961        1   3  1.094  0.961        1   4  1.094  0.961
    1   5  1.094  0.961

                       TOTAL       BONDED        FREE
      ATOM            VALENCE     VALENCE     VALENCE
    1 C                 3.846       3.846       0.000
    2 H                 0.934       0.934       0.000
    3 H                 0.934       0.934       0.000
    4 H                 0.934       0.934       0.000
    5 H                 0.934       0.934       0.000

          ---------------------
          ELECTROSTATIC MOMENTS
          ---------------------

 POINT   1           X           Y           Z (BOHR)    CHARGE
                 0.000000    0.000000    0.000001        0.00 (A.U.)
         DX          DY          DZ         /D/  (DEBYE)
     0.000000    0.000000   -0.000001    0.000001
 ...... END OF PROPERTY EVALUATION ......
 STEP CPU TIME =     0.00 TOTAL CPU TIME =      539.0 (    9.0 MIN)
 TOTAL WALL CLOCK TIME=      997.8 SECONDS, CPU UTILIZATION IS  54.02%

     ---------------------------
     COUPLED CLUSTER CALCULATION
     ---------------------------
 CCTYP                        =CCSD(T) 
 TOTAL NUMBER OF MOS          =    23
 NUMBER OF OCCUPIED MOS       =     5
 NUMBER OF FROZEN CORE MOS    =     1
 NUMBER OF FROZEN VIRTUAL MOS =     0
 MAXIMUM CC ITERATIONS        =   200
 MAXIMUM DIIS ITERATIONS      =     5
 CONVERGENCE CRITERION FOR CC =     7
 AMPLITUDE ACCURACY THRESHOLD = 0.0E+00

     --------------------------------------------
     PARTIAL TWO ELECTRON INTEGRAL TRANSFORMATION
     --------------------------------------------

 NUMBER OF CORE MOLECULAR ORBITALS     =    1
 NUMBER OF OCCUPIED MOLECULAR ORBITALS =   23
 TOTAL NUMBER OF MOLECULAR ORBITALS    =   23
 TOTAL NUMBER OF ATOMIC ORBITALS       =   23
 THRESHOLD FOR KEEPING TRANSFORMED 2E- INTEGRALS = 1.000E-09
 AO INTEGRALS WILL BE READ IN FROM DISK...
 EVALUATING THE FROZEN CORE ENERGY...
 ----- FROZEN CORE ENERGY =       -36.2270569629

 PLAN A: REQUIREMENTS FOR FULLY IN-MEMORY TRANSFORMATION:
 # OF WORDS AVAILABLE =              1000000
 # OF WORDS NEEDED    =               202349

 CHOOSING IN MEMORY PARTIAL TRANSFORMATION...
 TOTAL NUMBER OF TRANSFORMED 2E- INTEGRALS KEPT =        30927
 ... END OF INTEGRAL TRANSFORMATION ...
 STEP CPU TIME =     0.02 TOTAL CPU TIME =      539.0 (    9.0 MIN)
 TOTAL WALL CLOCK TIME=      997.8 SECONDS, CPU UTILIZATION IS  54.02%

   -----------------------
   COUPLED-CLUSTER PROGRAM
   -----------------------

   -------------------------------------------------------
   P.PIECUCH, S.A.KUCHARSKI, M.WLOCH, K.KOWALSKI, M.MUSIAL
   -------------------------------------------------------

 *****************************************************************
 THE FOLLOWING PAPERS SHOULD BE CITED WHEN USING COUPLED-CLUSTER
 OPTIONS:

 CCTYP = LCCD, CCD, CCSD, CCSD(T)
 P. PIECUCH, S.A. KUCHARSKI, K. KOWALSKI, AND M. MUSIAL,
 COMP. PHYS. COMMUN. 149, 71-96 (2002).

 CCTYP = R-CC, CR-CC, CCSD(TQ), CR-CC(Q)
 P. PIECUCH, S.A. KUCHARSKI, K. KOWALSKI, AND M. MUSIAL,
 COMP. PHYS. COMMUN. 149, 71-96 (2002);
 K. KOWALSKI AND P. PIECUCH, J. CHEM. PHYS. 113, 18-35 (2000);
 K. KOWALSKI AND P. PIECUCH, J. CHEM. PHYS. 113, 5644-5652 (2000).

 CCTYP = EOM-CCSD, CR-EOM
 P. PIECUCH, S.A. KUCHARSKI, K. KOWALSKI, AND M. MUSIAL,
 COMP. PHYS. COMMUN. 149, 71-96 (2002);
 K. KOWALSKI AND P. PIECUCH, J. CHEM. PHYS. 120, 1715-1738 (2004);
 M. WLOCH, J.R. GOUR, K. KOWALSKI, AND P. PIECUCH,
 J. CHEM. PHYS. 122, 214107-1 - 214107-15 (2005).

 CCTYP = CR-CCL
 P. PIECUCH, S.A. KUCHARSKI, K. KOWALSKI, AND M. MUSIAL,
 COMP. PHYS. COMMUN. 149, 71-96 (2002);
 P. PIECUCH AND M. WLOCH, J. CHEM. PHYS. 123,
 224105-1 - 224105-10 (2005).

 CCTYP = CR-EOML
 P. PIECUCH, S.A. KUCHARSKI, K. KOWALSKI, AND M. MUSIAL,
 COMP. PHYS. COMMUN. 149, 71-96 (2002);
 P. PIECUCH, J. R. GOUR, AND M. WLOCH,
 INT. J. QUANTUM CHEM. 109, 3268-3304 (2009);
 K. KOWALSKI AND P. PIECUCH,
 J. CHEM. PHYS. 120, 1715-1738 (2004).

 IN ADDITION, THE USE OF CCPRP=.TRUE. IN $CCINP AND/OR THE USE
 OF CCPRPE=.TRUE. IN $EOMINP SHOULD REFERENCE

 M. WLOCH, J.R. GOUR, K. KOWALSKI, AND P. PIECUCH,
 J. CHEM. PHYS. 122, 214107-1 - 214107-15 (2005).
 *****************************************************************


 THE FOLLOWING CALCULATIONS WILL BE PERFORMED:
                                                     CCSD   
                                                     CCSD[T]
                                                     CCSD(T)

 THE FOLLOWING ENERGY WILL BE CONSIDERED THE HIGHEST LEVEL:    CCSD(T)
 THE AVAILABLE REPLICATED MEMORY IS     1000000 WORDS.
 CONVERGENCE THRESHOLD:   1.0E-07
 MAXIMUM NUMBER OF ITERATIONS:  200

 MEMORY TO BE USED IN CC INTEGRAL SORTING IS      140808 WORDS.
 THE MINIMUM MEMORY TO ACCOMPLISH SORTING IS       59160 WORDS.
        30927 NON-ZERO TRANSFORMED 2E- INTEGRALS WERE SORTED INTO FILE 72:
           53 [IJ|KL] TYPE,         694 [AJ|KL] TYPE,
         1665 [AB|IJ] TYPE,        2553 [IA|BJ] TYPE,
        11892 [AB|CI] TYPE,       14070 [AB|CD] TYPE.
 TRANSFORMED INTEGRAL FILE  9 WAS READ    3 TIMES.
 ....... DONE WITH CC INTEGRAL PREPARATION .......
 STEP CPU TIME =     0.01 TOTAL CPU TIME =      539.0 (    9.0 MIN)
 TOTAL WALL CLOCK TIME=      997.9 SECONDS, CPU UTILIZATION IS  54.02%

 MEMORY REQUIRED FOR THE CCSD ITERATIONS IS       51860 WORDS.
 ITER:  1   CCSD    CORR. ENERGY:  -0.1521633348   CONV.: -5.8666E-03
 ITER:  2   CCSD    CORR. ENERGY:  -0.1555940015   CONV.: -2.3436E-03
 ITER:  3   CCSD    CORR. ENERGY:  -0.1571056055   CONV.: -4.0251E-04
 ITER:  4   CCSD    CORR. ENERGY:  -0.1571227232   CONV.: -7.2254E-03
 ITER:  5   CCSD    CORR. ENERGY:  -0.1571249935   CONV.: -7.2086E-03
 ITER:  6   CCSD    CORR. ENERGY:  -0.1571841825   CONV.: -6.7987E-03
 ITER:  7   CCSD    CORR. ENERGY:  -0.1580232771   CONV.: -8.9192E-04
 ITER:  8   CCSD    CORR. ENERGY:  -0.1581901929   CONV.:  2.6855E-04
 ITER:  9   CCSD    CORR. ENERGY:  -0.1581541222   CONV.: -1.5916E-06
 ITER: 10   CCSD    CORR. ENERGY:  -0.1581544576   CONV.: -5.6351E-07
 ITER: 11   CCSD    CORR. ENERGY:  -0.1581544619   CONV.: -9.0617E-08
 ITER: 12   CCSD    CORR. ENERGY:  -0.1581544672   CONV.: -9.0617E-08

     THE    CCSD     ITERATIONS HAVE CONVERGED

    MBPT(2) CORRELATION ENERGY:  -0.1376178103
    CCSD    CORRELATION ENERGY:  -0.1581544672

 T1 DIAGNOSTIC        =     0.00729365
 NORM OF THE T1 VECTOR=     0.02062955
 NORM OF THE T2 VECTOR=     0.23555476

 THE FIVE LARGEST T1 AMPLITUDES ARE:
 T1 AMPLITUDE IS -0.008313 FOR I=   5 -> A=  13
 T1 AMPLITUDE IS -0.008311 FOR I=   4 -> A=  14
 T1 AMPLITUDE IS -0.008311 FOR I=   3 -> A=  15
 T1 AMPLITUDE IS -0.006331 FOR I=   5 -> A=   7
 T1 AMPLITUDE IS -0.006327 FOR I=   4 -> A=   8

 THE FIVE LARGEST SPIN-UNIQUE T2 AMPLITUDES ARE:
 T2 AMPLITUDE IS -0.041942 FOR I,J=   4   4 -> A,B=   8   8
 T2 AMPLITUDE IS -0.041942 FOR I,J=   3   3 -> A,B=   9   9
 T2 AMPLITUDE IS -0.029351 FOR I,J=   3   3 -> A,B=  15  15
 T2 AMPLITUDE IS -0.029351 FOR I,J=   4   4 -> A,B=  14  14
 T2 AMPLITUDE IS -0.027823 FOR I,J=   5   5 -> A,B=   7   7
 PRINTED T2(I-ALPHA,J-BETA -> A-ALPHA,B-BETA) VALUES
 EQUAL   T2(J-ALPHA,I-BETA -> B-ALPHA,A-BETA) AMPLITUDES.

 ....... DONE WITH CC AMPLITUDE ITERATIONS .......
 STEP CPU TIME =     0.12 TOTAL CPU TIME =      539.2 (    9.0 MIN)
 TOTAL WALL CLOCK TIME=      998.1 SECONDS, CPU UTILIZATION IS  54.02%

 MEMORY REQUIRED FOR NONITERATIVE TRIPLES (T3WT2  ) IS        46656 WORDS.

                      SUMMARY OF RESULTS

      REFERENCE ENERGY:      -40.1949016447
        MBPT(2) ENERGY:      -40.3325194549   CORR.E=  -0.1376178103
        CCSD    ENERGY:      -40.3530561119   CORR.E=  -0.1581544672
        CCSD[T] ENERGY:      -40.3561351928   CORR.E=  -0.1612335481
        CCSD(T) ENERGY:      -40.3559156459   CORR.E=  -0.1610140012

 THE FOLLOWING METHOD AND ENERGY WILL BE CONSIDERED THE HIGHEST LEVEL RESULT:
 COUPLED-CLUSTER ENERGY E(   CCSD(T)) =      -40.3559156459

 ..... DONE WITH CC NON-ITERATIVE TRIPLES CORRECTIONS .....
 STEP CPU TIME =     0.01 TOTAL CPU TIME =      539.2 (    9.0 MIN)
 TOTAL WALL CLOCK TIME=      998.1 SECONDS, CPU UTILIZATION IS  54.02%
 STEP CPU TIME =     0.00 TOTAL CPU TIME =      539.2 (    9.0 MIN)
 TOTAL WALL CLOCK TIME=      998.3 SECONDS, CPU UTILIZATION IS  54.01%

    REFERENCE ENERGY,   CESCF(7) =   -40.19490164
    CORRELATION ENERGY, CECOR(7) =    -0.16101400
    REFERENCE ENERGY,   CESCF(12) =   -40.19490164
    CORRELATION ENERGY, CECOR(12) =    -0.13761781
    TOTAL ENERGY,       CETOT(12) =   -40.33251945
    TOTAL ENERGY,       CETOT(7) =   -40.35591565
    ------------------------------------------------------------------
      RESTART INFO FOR COMPOSITE METHOD CALCULATIONS
      ADDING CETOT(X) WILL STOP CALCULATION X
      IF RERUNNING SAVE THE ORIGINAL DATA AT THIS POINT IF NEEDED
  CXETH =      0.04802104
  CXHTH =      0.04896522
  CXGTH =      0.02548636
  CCXZPE =      0.00000000
  CZPSCL =      1.00000000
 $DATA

 C1
 COORDINATES OF ALL ATOMS ARE (ANGS)
   ATOM   CHARGE       X              Y              Z
 ------------------------------------------------------------
 C           6.0   0.0000001801   0.0000001596   0.0000005550
 H           1.0  -0.0000001454  -0.8929760668  -0.6313057057
 H           1.0  -0.0000001453   0.8929761388  -0.6313059209
 H           1.0  -0.8929768613  -0.0000001158   0.6313053936
 H           1.0   0.8929769719  -0.0000001157   0.6313056780
 $END
    ------------------------------------------------------------------

    ==COMPOSITE ENERGY CALCULATION, 7 ,DONE==

 STEP CPU TIME =     0.00 TOTAL CPU TIME =      539.2 (    9.0 MIN)
 TOTAL WALL CLOCK TIME=      998.3 SECONDS, CPU UTILIZATION IS  54.01%
    ------------------------------------------------------------------
      RESTART INFO FOR COMPOSITE METHOD CALCULATIONS
      ADDING CETOT(X) WILL STOP CALCULATION X
      IF RERUNNING SAVE THE ORIGINAL DATA AT THIS POINT IF NEEDED
    ------------------------------------------------------------------
  CETOT(1)=    -40.48237258
  CETOT(2)=    -40.21335215
  CETOT(3)=    -40.21596187
  CETOT(4)=    -40.21204074
  CETOT(5)=    -40.40558580
  CETOT(6)=    -40.33251945
  CETOT(7)=    -40.35591565
  CETOT(8)=     -0.15746879
  CETOT(9)=     -0.03607627
  CETOT(10)=     -0.11055884
  CETOT(11)=     -0.02705897
  CETOT(12)=    -40.33251945

     ==================================================
     -----     G4(MP2) CALCULATIONS     ----------
     -----     SEAN A. NEDD, GORDON GROUP,       ----------
     -----     AMESLAB/IOWA STATE UNIVERSITY     ----------
     ==================================================

     --------------------------------------------------
     -----     (1) B3LYP OPTIMIZATION AND HESSIAN
     --------------------------------------------------

     --------------------------------------------------
     -----     (2) HF/ACCT
     --------------------------------------------------

     --------------------------------------------------
     -----     (3) HF/ACCQ
     --------------------------------------------------

     --------------------------------------------------
     -----     (4) HF/G3MP2LARGEXP
     --------------------------------------------------

     --------------------------------------------------
     -----     (5) MP2/G3MP2LARGEXP
     --------------------------------------------------

     --------------------------------------------------
     -----     (6) MP2/6-31G(D)
     --------------------------------------------------

     --------------------------------------------------
     -----     (7) CCSD(T)/6-31G(D)
     --------------------------------------------------
  CCXZPE=   0.000000000
  CXETH=   0.048021038
  CXHTH=   0.000000000
  CXGTH=   0.000000000
 $DATA

 C1
 COORDINATES OF ALL ATOMS ARE (ANGS)
   ATOM   CHARGE       X              Y              Z
 ------------------------------------------------------------
 C           6.0   0.0000001801   0.0000001596   0.0000005550
 H           1.0  -0.0000001454  -0.8929760668  -0.6313057057
 H           1.0  -0.0000001453   0.8929761388  -0.6313059209
 H           1.0  -0.8929768613  -0.0000001158   0.6313053936
 H           1.0   0.8929769719  -0.0000001157   0.6313056780
 $END

    ----------------------------------------------------------------
        DETAILS OF G4(MP2) CALCULATIONS
    ----------------------------------------------------------------
    E(G4(MP2))@0K   = E(INF) + DE(MP2) + DE(CCSD(T)) + ZPE(SCALED) + HLC
    E(G4(MP2))@298K = E(G4(MP2))@0K + (E(THERMAL) - ZPE)
    H(G4(MP2))      = E(G4(MP2))@298K + KT
    G(G4(MP2))      = H(G4(MP2)) - TDS

        E(CCSD(T))  = CCSD(T)/6-31G(D)//B3LYP/6-31G(2DF,P) FROZEN CORE
        DE(MP2)     = E(MP2/G3MP2LARGEXP) - E(HF/G3MP2LARGEXP) FROZEN CORE
        DE(CCSD(T)) = E(CCSD(T)/6-31G(D)) - E(MP2/6-31G(D)) FROZEN CORE
        DE(CCSD(T)) USES CORRELATIONS ENERGY VALUES
        GEOMETRY B3LYP/6-31G(2DF,P) CORE CORRELATION INCLUDED
        ZPE AND OTHER THERMAL CALCULATIONS AT B3LYP/6-31G(2DF,P)
        HLCS USED ARE:  A = 0.009472 HARTREE

    ----------------------------------------------------------------
                   SUMMARY OF G4(MP2) CALCULATIONS
    ----------------------------------------------------------------
    B3LYP/6-31G(2DF,P)=   -40.482373   HF/ACCT          =   -40.213352
    HF/CBS            =   -40.216599   HF/ACCQ          =   -40.215962
    MP2/6-31G(D)      =   -40.332519   CCSD(T)/6-31G(D) =   -40.355916
    HF/G3MP2LARGEXP   =   -40.212041   MP2/G3MP2LARGEXP =   -40.405586
    DE(MP2)           =    -0.193545   DE(CCSD(T))      =    -0.023396
    ZPE(B3LYP)        =     0.000000   ZPE SCALE FACTOR =     0.985400
    HLC               =    -0.037888   FREE ENERGY      =     0.000000
    THERMAL ENERGY    =     0.048021   THERMAL ENTHALPY =     0.000000
    ----------------------------------------------------------------
    E(G4(MP2)) @ 0K   =   -40.471428   E(G4(MP2)) @298K =   -40.423407
    H(G4(MP2))        =   -40.471428   G(G4(MP2))       =   -40.471428
    ----------------------------------------------------------------

    ----------------------------------------------------------------
          HEATS OF FORMATION   (0K):     -10.08 KCAL/MOL
          HEATS OF FORMATION (298K):     -14.28 KCAL/MOL
    ----------------------------------------------------------------
          HEATS OF FORMATIONS BASED ON NIST DATABASE FROM 
          COMPUTATIONAL CHEMISTRY COMPARISON AND BENCHMARK DATABASE
    ----------------------------------------------------------------

 STEP CPU TIME =     0.00 TOTAL CPU TIME =      539.2 (    9.0 MIN)
 TOTAL WALL CLOCK TIME=      998.3 SECONDS, CPU UTILIZATION IS  54.01%

    ----------------------------------------------------------------
          COMPOSITE METHOD ACCESSED: G4MP2   
    ----------------------------------------------------------------
    ------------------------------------------------------------------
               989664  WORDS OF DYNAMIC MEMORY USED
 EXECUTION OF GAMESS TERMINATED NORMALLY Tue Jan 27 18:32:07 2015
 DDI: 263624 bytes (0.3 MB / 0 MWords) used by master data server.

 ----------------------------------------
 CPU timing information for all processes
 ========================================
 0: 384.75 + 155.110 = 539.186
 ----------------------------------------
 ddikick.x: exited gracefully.
----- accounting info -----
Files used on the master node cl200 were:
-rw-r--r--  1 ostueker rpoirier  197529 Jan 27 18:32 /globalscratch/ostueker/gamess/methane_GAMESS_G4MP2_1may2013.dat
-rw-r--r--  1 ostueker rpoirier     387 Jan 27 18:15 /globalscratch/ostueker/gamess/methane_GAMESS_G4MP2_1may2013.F05
-rw-r--r--  1 ostueker rpoirier  360048 Jan 27 18:32 /globalscratch/ostueker/gamess/methane_GAMESS_G4MP2_1may2013.F08
-rw-r--r--  1 ostueker rpoirier  542112 Jan 27 18:32 /globalscratch/ostueker/gamess/methane_GAMESS_G4MP2_1may2013.F09
-rw-r--r--  1 ostueker rpoirier 1538024 Jan 27 18:32 /globalscratch/ostueker/gamess/methane_GAMESS_G4MP2_1may2013.F10
-rw-r--r--  1 ostueker rpoirier 1551408 Jan 27 18:18 /globalscratch/ostueker/gamess/methane_GAMESS_G4MP2_1may2013.F22
-rw-r--r--  1 ostueker rpoirier   11212 Jan 27 18:18 /globalscratch/ostueker/gamess/methane_GAMESS_G4MP2_1may2013.rst
Tue Jan 27 18:32:10 NST 2015
0.166u 0.142s 16:42.17 0.0%	0+0k 0+0io 0pf+0w
