----- GAMESS execution script 'rungms' -----
This job is running on host cl200
under operating system Linux at Tue Jan 27 18:44:03 NST 2015
Available scratch disk space (Kbyte units) at beginning of the job is
Filesystem           1K-blocks      Used Available Use% Mounted on
samqfs://scratch/ostueker
                     8586374784 7730263872 856110912  91% /globalscratch/ostueker
GAMESS temporary binary files will be written to /globalscratch/ostueker/gamess
GAMESS supplementary output files will be written to /globalscratch/ostueker/gamess
Copying input file methane_GAMESS_G3MP2_1may2013.inp to your run's scratch directory...

 Distributed Data Interface kickoff program.
 Initiating 1 compute processes on 1 nodes to run the following command:
 /usr/local/gamess-1may2013/gamess.01.x methane_GAMESS_G3MP2_1may2013 

          ******************************************************
          *         GAMESS VERSION =  1 MAY 2013 (R1)          *
          *             FROM IOWA STATE UNIVERSITY             *
          * M.W.SCHMIDT, K.K.BALDRIDGE, J.A.BOATZ, S.T.ELBERT, *
          *   M.S.GORDON, J.H.JENSEN, S.KOSEKI, N.MATSUNAGA,   *
          *          K.A.NGUYEN, S.J.SU, T.L.WINDUS,           *
          *       TOGETHER WITH M.DUPUIS, J.A.MONTGOMERY       *
          *         J.COMPUT.CHEM.  14, 1347-1363(1993)        *
          **************** 64 BIT LINUX VERSION ****************

  SINCE 1993, STUDENTS AND POSTDOCS WORKING AT IOWA STATE UNIVERSITY
  AND ALSO IN THEIR VARIOUS JOBS AFTER LEAVING ISU HAVE MADE IMPORTANT
  CONTRIBUTIONS TO THE CODE:
     IVANA ADAMOVIC, CHRISTINE AIKENS, YURI ALEXEEV, POOJA ARORA,
     ANDREY ASADCHEV, ROB BELL, PRADIPTA BANDYOPADHYAY, JONATHAN BENTZ,
     BRETT BODE, GALINA CHABAN, WEI CHEN, CHEOL HO CHOI, PAUL DAY,
     ALBERT DEFUSCO, TIM DUDLEY, DMITRI FEDOROV, GRAHAM FLETCHER,
     MARK FREITAG, KURT GLAESEMANN, DAN KEMP, GRANT MERRILL,
     NORIYUKI MINEZAWA, JONATHAN MULLIN, TAKESHI NAGATA,
     SEAN NEDD, HEATHER NETZLOFF, BOSILJKA NJEGIC, RYAN OLSON, MIKE PAK,
     JIM SHOEMAKER, LYUDMILA SLIPCHENKO, SAROM SOK, JIE SONG,
     TETSUYA TAKETSUGU, SIMON WEBB, SOOHAENG YOO, FEDERICO ZAHARIEV

  ADDITIONAL CODE HAS BEEN PROVIDED BY COLLABORATORS IN OTHER GROUPS:
     IOWA STATE UNIVERSITY:
          JOE IVANIC, LAIMUTIS BYTAUTAS, KLAUS RUEDENBERG
     UNIVERSITY OF TOKYO: KIMIHIKO HIRAO, TAKAHITO NAKAJIMA,
          TAKAO TSUNEDA, MUNEAKI KAMIYA, SUSUMU YANAGISAWA,
          KIYOSHI YAGI, MAHITO CHIBA, SEIKEN TOKURA, NAOAKI KAWAKAMI
     UNIVERSITY OF AARHUS: FRANK JENSEN
     UNIVERSITY OF IOWA: VISVALDAS KAIRYS, HUI LI
     NATIONAL INST. OF STANDARDS AND TECHNOLOGY: WALT STEVENS, DAVID GARMER
     UNIVERSITY OF PISA: BENEDETTA MENNUCCI, JACOPO TOMASI
     UNIVERSITY OF MEMPHIS: HENRY KURTZ, PRAKASHAN KORAMBATH
     UNIVERSITY OF ALBERTA: TOBY ZENG, MARIUSZ KLOBUKOWSKI
     UNIVERSITY OF NEW ENGLAND: MARK SPACKMAN
     MIE UNIVERSITY: HIROAKI UMEDA
     MICHIGAN STATE UNIVERSITY:
          KAROL KOWALSKI, MARTA WLOCH, JEFFREY GOUR, JESSE LUTZ,
          WEI LI, PIOTR PIECUCH
     UNIVERSITY OF SILESIA: MONIKA MUSIAL, STANISLAW KUCHARSKI
     FACULTES UNIVERSITAIRES NOTRE-DAME DE LA PAIX:
          OLIVIER QUINET, BENOIT CHAMPAGNE
     UNIVERSITY OF CALIFORNIA - SANTA BARBARA: BERNARD KIRTMAN
     INSTITUTE FOR MOLECULAR SCIENCE:
          KAZUYA ISHIMURA, MICHIO KATOUDA, AND SHIGERU NAGASE
     UNIVERSITY OF NOTRE DAME: DAN CHIPMAN
     KYUSHU UNIVERSITY:
          HARUYUKI NAKANO,
          FENG LONG GU, JACEK KORCHOWIEC, MARCIN MAKOWSKI, AND YURIKO AOKI,
          HIROTOSHI MORI AND EISAKU MIYOSHI
     PENNSYLVANIA STATE UNIVERSITY:
          TZVETELIN IORDANOV, CHET SWALINA, JONATHAN SKONE,
          SHARON HAMMES-SCHIFFER
     WASEDA UNIVERSITY:
          MASATO KOBAYASHI, TOMOKO AKAMA, TSUGUKI TOUMA,
          TAKESHI YOSHIKAWA, YASUHIRO IKABATA, HIROMI NAKAI
     NANJING UNIVERSITY: SHUHUA LI
     UNIVERSITY OF NEBRASKA:
          PEIFENG SU, DEJUN SI, NANDUN THELLAMUREGE, YALI WANG, HUI LI
     UNIVERSITY OF ZURICH:
          ROBERTO PEVERATI, KIM BALDRIDGE
     N. COPERNICUS UNIVERSITY AND JACKSON STATE UNIVERSITY:
          MARIA BARYSZ

 EXECUTION OF GAMESS BEGUN Tue Jan 27 18:44:04 2015

            ECHO OF THE FIRST FEW INPUT CARDS -
 INPUT CARD> $CONTRL RUNTYP=G3MP2 $END                                                      
 INPUT CARD>                                                                                
 INPUT CARD> $DATA                                                                          
 INPUT CARD>methane G3MP2                                                                   
 INPUT CARD>C1                                                                              
 INPUT CARD>C           6.0   0.0000001801   0.0000001596   0.0000005550                    
 INPUT CARD>H           1.0  -0.0000001454  -0.8929760668  -0.6313057057                    
 INPUT CARD>H           1.0  -0.0000001453   0.8929761388  -0.6313059209                    
 INPUT CARD>H           1.0  -0.8929768613  -0.0000001158   0.6313053936                    
 INPUT CARD>H           1.0   0.8929769719  -0.0000001157   0.6313056780                    
 INPUT CARD> $END                                                                           
    1000000 WORDS OF MEMORY AVAILABLE

     BASIS OPTIONS
     -------------
     GBASIS=N31          IGAUSS=       6      POLAR=POPN31  
     NDFUNC=       1     NFFUNC=       0     DIFFSP=       F
     NPFUNC=       0      DIFFS=       F     BASNAM=        


     RUN TITLE
     ---------
 methane G3MP2                                                                   

 THE POINT GROUP OF THE MOLECULE IS C1      
 THE ORDER OF THE PRINCIPAL AXIS IS     0

 ATOM      ATOMIC                      COORDINATES (BOHR)
           CHARGE         X                   Y                   Z
 C           6.0     0.0000003403        0.0000003016        0.0000010488
 H           1.0    -0.0000002748       -1.6874800798       -1.1929947983
 H           1.0    -0.0000002746        1.6874802159       -1.1929952049
 H           1.0    -1.6874815812       -0.0000002188        1.1929942085
 H           1.0     1.6874817902       -0.0000002186        1.1929947459

          INTERNUCLEAR DISTANCES (ANGS.)
          ------------------------------

                1 C          2 H          3 H          4 H          5 H     

   1 C       0.0000000    1.0935969 *  1.0935968 *  1.0935967 *  1.0935967 *
   2 H       1.0935969 *  0.0000000    1.7859522 *  1.7857772 *  1.7857776 *
   3 H       1.0935968 *  1.7859522 *  0.0000000    1.7857775 *  1.7857779 *
   4 H       1.0935967 *  1.7857772 *  1.7857775 *  0.0000000    1.7859538 *
   5 H       1.0935967 *  1.7857776 *  1.7857779 *  1.7859538 *  0.0000000  

  * ... LESS THAN  3.000


     ATOMIC BASIS SET
     ----------------
 THE CONTRACTED PRIMITIVE FUNCTIONS HAVE BEEN UNNORMALIZED
 THE CONTRACTED BASIS FUNCTIONS ARE NOW NORMALIZED TO UNITY

  SHELL TYPE  PRIMITIVE        EXPONENT          CONTRACTION COEFFICIENT(S)

 C         

      1   S       1          3047.5248800    0.001834737132
      1   S       2           457.3695180    0.014037322813
      1   S       3           103.9486850    0.068842622264
      1   S       4            29.2101553    0.232184443216
      1   S       5             9.2866630    0.467941348435
      1   S       6             3.1639270    0.362311985337

      2   L       7             7.8682723   -0.119332419775    0.068999066591
      2   L       8             1.8812885   -0.160854151696    0.316423960957
      2   L       9             0.5442493    1.143456437840    0.744308290898

      3   L      10             0.1687145    1.000000000000    1.000000000000

      4   D      11             0.8000000    1.000000000000

 H         

      5   S      12            18.7311370    0.033494604338
      5   S      13             2.8253944    0.234726953484
      5   S      14             0.6401217    0.813757326146

      6   S      15             0.1612778    1.000000000000

 H         

      7   S      16            18.7311370    0.033494604338
      7   S      17             2.8253944    0.234726953484
      7   S      18             0.6401217    0.813757326146

      8   S      19             0.1612778    1.000000000000

 H         

      9   S      20            18.7311370    0.033494604338
      9   S      21             2.8253944    0.234726953484
      9   S      22             0.6401217    0.813757326146

     10   S      23             0.1612778    1.000000000000

 H         

     11   S      24            18.7311370    0.033494604338
     11   S      25             2.8253944    0.234726953484
     11   S      26             0.6401217    0.813757326146

     12   S      27             0.1612778    1.000000000000

 TOTAL NUMBER OF BASIS SET SHELLS             =   12
 NUMBER OF CARTESIAN GAUSSIAN BASIS FUNCTIONS =   23
 NUMBER OF ELECTRONS                          =   10
 CHARGE OF MOLECULE                           =    0
 SPIN MULTIPLICITY                            =    1
 NUMBER OF OCCUPIED ORBITALS (ALPHA)          =    5
 NUMBER OF OCCUPIED ORBITALS (BETA )          =    5
 TOTAL NUMBER OF ATOMS                        =    5
 THE NUCLEAR REPULSION ENERGY IS       13.3912020570

     $CONTRL OPTIONS
     ---------------
 SCFTYP=RHF          RUNTYP=G3MP2        EXETYP=RUN     
 MPLEVL=       0     CITYP =NONE         CCTYP =NONE         VBTYP =NONE    
 DFTTYP=NONE         TDDFT =NONE    
 MULT  =       1     ICHARG=       0     NZVAR =       0     COORD =UNIQUE  
 PP    =NONE         RELWFN=NONE         LOCAL =NONE         NUMGRD=       F
 ISPHER=      -1     NOSYM =       0     MAXIT =      30     UNITS =ANGS    
 PLTORB=       F     MOLPLT=       F     AIMPAC=       F     FRIEND=        
 NPRINT=       7     IREST =       0     GEOM  =INPUT   
 NORMF =       0     NORMP =       0     ITOL  =      20     ICUT  =       9
 INTTYP=BEST         GRDTYP=BEST         QMTTOL= 1.0E-06

     $SYSTEM OPTIONS
     ---------------
  REPLICATED MEMORY=     1000000 WORDS (ON EVERY NODE).
 DISTRIBUTED MEMDDI=           0 MILLION WORDS IN AGGREGATE,
 MEMDDI DISTRIBUTED OVER   1 PROCESSORS IS           0 WORDS/PROCESSOR.
 TOTAL MEMORY REQUESTED ON EACH PROCESSOR=     1000000 WORDS.
 TIMLIM=      525600.00 MINUTES, OR     365.0 DAYS.
 PARALL= F  BALTYP=  DLB     KDIAG=    0  COREFL= F
 MXSEQ2=     300 MXSEQ3=     150

          ----------------
          PROPERTIES INPUT
          ----------------

     MOMENTS            FIELD           POTENTIAL          DENSITY
 IEMOM =       1   IEFLD =       0   IEPOT =       0   IEDEN =       0
 WHERE =COMASS     WHERE =NUCLEI     WHERE =NUCLEI     WHERE =NUCLEI  
 OUTPUT=BOTH       OUTPUT=BOTH       OUTPUT=BOTH       OUTPUT=BOTH    
 IEMINT=       0   IEFINT=       0                     IEDINT=       0
                                                       MORB  =       0
          EXTRAPOLATION IN EFFECT
          SOSCF IN EFFECT
 ORBITAL PRINTING OPTION: NPREO=     1    23     2     1

     -------------------------------
     INTEGRAL TRANSFORMATION OPTIONS
     -------------------------------
     NWORD  =            0
     CUTOFF = 1.0E-09     MPTRAN =       0
     DIRTRF =       F     AOINTS =DUP     

          ----------------------
          INTEGRAL INPUT OPTIONS
          ----------------------
 NOPK  =       1 NORDER=       0 SCHWRZ=       F

     ------------------------------------------
     THE POINT GROUP IS C1 , NAXIS= 0, ORDER= 1
     ------------------------------------------

     DIMENSIONS OF THE SYMMETRY SUBSPACES ARE
 A   =   23

 ..... DONE SETTING UP THE RUN .....
 STEP CPU TIME =     0.01 TOTAL CPU TIME =        0.0 (    0.0 MIN)
 TOTAL WALL CLOCK TIME=        0.5 SECONDS, CPU UTILIZATION IS   1.89%

     ==================================================
     ----------     G3(MP2) CALCULATIONS     ----------
     ==================================================

     --------------------------------------------------
     -----     G3(MP2) HF OPTIMIZATION AND HESSIAN
     --------------------------------------------------

     BASIS OPTIONS
     -------------
     GBASIS=N31          IGAUSS=       6      POLAR=POPN31  
     NDFUNC=       1     NFFUNC=       0     DIFFSP=       F
     NPFUNC=       0      DIFFS=       F     BASNAM=        


          -----------------------------
          STATIONARY POINT LOCATION RUN
          -----------------------------

 OBTAINING INITIAL HESSIAN, HESS=GUESS   
 CARTESIAN COORDINATE OPTIMIZATION USING BADGER'S RULE FORCE CONSTANT GUESS

          PARAMETERS CONTROLLING GEOMETRY SEARCH ARE
          METHOD =QA                  UPHESS =BFGS    
          NNEG   =         0          NFRZ   =         0
          NSTEP  =        50          IFOLOW =         1
          HESS   =GUESS               RESTAR =         F
          IHREP  =         0          HSSEND =         T
          NPRT   =         0          NPUN   =         0
          OPTTOL = 1.000E-04          RMIN   = 1.500E-03
          RMAX   = 1.000E-01          RLIM   = 7.000E-02
          DXMAX  = 3.000E-01          PURIFY =         F
          MOVIE  =         F          TRUPD  =         T
          TRMAX  = 5.000E-01          TRMIN  = 5.000E-02
          ITBMAT =         5          STPT   =         F
          STSTEP = 1.000E-02          PROJCT=          T

 BEGINNING GEOMETRY SEARCH POINT NSERCH=   0 ...

 COORDINATES OF ALL ATOMS ARE (ANGS)
   ATOM   CHARGE       X              Y              Z
 ------------------------------------------------------------
 C           6.0   0.0000001801   0.0000001596   0.0000005550
 H           1.0  -0.0000001454  -0.8929760668  -0.6313057057
 H           1.0  -0.0000001453   0.8929761388  -0.6313059209
 H           1.0  -0.8929768613  -0.0000001158   0.6313053936
 H           1.0   0.8929769719  -0.0000001157   0.6313056780

          ********************
          1 ELECTRON INTEGRALS
          ********************
 ...... END OF ONE-ELECTRON INTEGRALS ......
 STEP CPU TIME =     0.00 TOTAL CPU TIME =        0.0 (    0.0 MIN)
 TOTAL WALL CLOCK TIME=        0.5 SECONDS, CPU UTILIZATION IS   1.89%

          -------------
          GUESS OPTIONS
          -------------
          GUESS =HUCKEL            NORB  =       0          NORDER=       0
          MIX   =       F          PRTMO =       F          PUNMO =       F
          TOLZ  = 1.0E-08          TOLE  = 1.0E-05
          SYMDEN=       F          PURIFY=       F

 INITIAL GUESS ORBITALS GENERATED BY HUCKEL   ROUTINE.
 HUCKEL GUESS REQUIRES      7663 WORDS.

 SYMMETRIES FOR INITIAL GUESS ORBITALS FOLLOW.   BOTH SET(S).
     5 ORBITALS ARE OCCUPIED (    1 CORE ORBITALS).
     2=A        3=A        4=A        5=A        6=A        7=A        8=A   
     9=A       10=A       11=A       12=A       13=A       14=A       15=A   
 ...... END OF INITIAL ORBITAL SELECTION ......
 STEP CPU TIME =     0.00 TOTAL CPU TIME =        0.0 (    0.0 MIN)
 TOTAL WALL CLOCK TIME=        0.6 SECONDS, CPU UTILIZATION IS   1.72%

                    ----------------------
                    AO INTEGRAL TECHNOLOGY
                    ----------------------
     S,P,L SHELL ROTATED AXIS INTEGRALS, REPROGRAMMED BY
        KAZUYA ISHIMURA (IMS) AND JOSE SIERRA (SYNSTAR).
     S,P,D,L SHELL ROTATED AXIS INTEGRALS PROGRAMMED BY
        KAZUYA ISHIMURA (INSTITUTE FOR MOLECULAR SCIENCE).
     S,P,D,F,G SHELL TO TOTAL QUARTET ANGULAR MOMENTUM SUM 5,
        ERIC PROGRAM BY GRAHAM FLETCHER (ELORET AND NASA ADVANCED
        SUPERCOMPUTING DIVISION, AMES RESEARCH CENTER).
     S,P,D,F,G,L SHELL GENERAL RYS QUADRATURE PROGRAMMED BY
        MICHEL DUPUIS (PACIFIC NORTHWEST NATIONAL LABORATORY).

          --------------------
          2 ELECTRON INTEGRALS
          --------------------

 THE -PK- OPTION IS OFF, THE INTEGRALS ARE NOT IN SUPERMATRIX FORM.
 STORING   15000 INTEGRALS/RECORD ON DISK, USING 12 BYTES/INTEGRAL.
 TWO ELECTRON INTEGRAL EVALUATION REQUIRES   90474 WORDS OF MEMORY.
 II,JST,KST,LST =  1  1  1  1 NREC =         1 INTLOC =    1
 II,JST,KST,LST =  2  1  1  1 NREC =         1 INTLOC =    2
 II,JST,KST,LST =  3  1  1  1 NREC =         1 INTLOC =   34
 II,JST,KST,LST =  4  1  1  1 NREC =         1 INTLOC =  214
 II,JST,KST,LST =  5  1  1  1 NREC =         1 INTLOC = 1189
 II,JST,KST,LST =  6  1  1  1 NREC =         1 INTLOC = 3157
 II,JST,KST,LST =  7  1  1  1 NREC =         1 INTLOC = 5257
 II,JST,KST,LST =  8  1  1  1 NREC =         1 INTLOC = 8017
 II,JST,KST,LST =  9  1  1  1 NREC =         1 INTLOC =11044
 II,JST,KST,LST = 10  1  1  1 NREC =         1 INTLOC =14942
 II,JST,KST,LST = 11  1  1  1 NREC =         2 INTLOC = 4166
 II,JST,KST,LST = 12  1  1  1 NREC =         2 INTLOC = 9291
 TOTAL NUMBER OF NONZERO TWO-ELECTRON INTEGRALS =               29915
          2 INTEGRAL RECORDS WERE STORED ON DISK FILE  8.
  ...... END OF TWO-ELECTRON INTEGRALS .....
 STEP CPU TIME =     0.04 TOTAL CPU TIME =        0.0 (    0.0 MIN)
 TOTAL WALL CLOCK TIME=        0.6 SECONDS, CPU UTILIZATION IS   8.06%

          --------------------------
                 RHF SCF CALCULATION
          --------------------------

     NUCLEAR ENERGY =        13.3912020570
     MAXIT =   30     NPUNCH=    2
     EXTRAP=T  DAMP=F  SHIFT=F  RSTRCT=F  DIIS=F  DEM=F  SOSCF=T
     DENSITY MATRIX CONV=  1.00E-05
     SOSCF WILL OPTIMIZE      90 ORBITAL ROTATIONS, SOGTOL=   0.250
     MEMORY REQUIRED FOR RHF ITERS=     34385 WORDS.

 ITER EX DEM     TOTAL ENERGY        E CHANGE  DENSITY CHANGE     ORB. GRAD
   1  0  0      -40.1091334978   -40.1091334978   0.123072599   0.000000000
          ---------------START SECOND ORDER SCF---------------
   2  1  0      -40.1904169473    -0.0812834495   0.042299008   0.018917059
   3  2  0      -40.1943279237    -0.0039109764   0.015942525   0.011021353
   4  3  0      -40.1948873935    -0.0005594697   0.003015274   0.001427913
   5  4  0      -40.1949012345    -0.0000138410   0.000455980   0.000167536
   6  5  0      -40.1949016331    -0.0000003986   0.000136369   0.000042223
   7  6  0      -40.1949016444    -0.0000000113   0.000024460   0.000008322
   8  7  0      -40.1949016447    -0.0000000003   0.000001516   0.000001212
   9  8  0      -40.1949016447     0.0000000000   0.000000154   0.000000104

          -----------------
          DENSITY CONVERGED
          -----------------
     TIME TO FORM FOCK OPERATORS=       0.0 SECONDS (       0.0 SEC/ITER)
     TIME TO SOLVE SCF EQUATIONS=       0.0 SECONDS (       0.0 SEC/ITER)

 FINAL RHF ENERGY IS      -40.1949016447 AFTER   9 ITERATIONS

          ------------
          EIGENVECTORS
          ------------

                      1          2          3          4          5
                  -11.2098    -0.9405    -0.5436    -0.5436    -0.5436
                     A          A          A          A          A   
    1  C  1  S    0.995648  -0.193747   0.000000   0.000000   0.000000
    2  C  1  S    0.028302   0.358054   0.000000   0.000000   0.000000
    3  C  1  X    0.000000   0.000000   0.434222   0.000038  -0.000416
    4  C  1  Y    0.000000   0.000000  -0.000038   0.434222   0.000401
    5  C  1  Z    0.000000   0.000000   0.000416  -0.000401   0.434222
    6  C  1  S   -0.013141   0.367025   0.000000   0.000000   0.000000
    7  C  1  X    0.000000   0.000000   0.230123   0.000020  -0.000220
    8  C  1  Y    0.000000   0.000000  -0.000020   0.230124   0.000212
    9  C  1  Z    0.000000   0.000000   0.000221  -0.000212   0.230144
   10  C  1 XX   -0.002038   0.010134   0.000030  -0.000029   0.031174
   11  C  1 YY   -0.002038   0.010134  -0.000030   0.000029  -0.031174
   12  C  1 ZZ   -0.002038   0.010122   0.000000   0.000000   0.000000
   13  C  1 XY    0.000000   0.000000   0.000000   0.000000   0.000000
   14  C  1 XZ    0.000000   0.000000   0.035992   0.000003  -0.000034
   15  C  1 YZ    0.000000   0.000000   0.000003  -0.035992  -0.000033
   16  H  2  S    0.000042   0.133714  -0.000140  -0.237724  -0.168424
   17  H  2  S    0.002432   0.038075  -0.000117  -0.198042  -0.140338
   18  H  3  S    0.000042   0.133714  -0.000182   0.238034  -0.167985
   19  H  3  S    0.002432   0.038075  -0.000152   0.198301  -0.139973
   20  H  4  S    0.000042   0.133714  -0.237718  -0.000176   0.168433
   21  H  4  S    0.002432   0.038076  -0.198037  -0.000147   0.140345
   22  H  5  S    0.000042   0.133714   0.238040  -0.000134   0.167977
   23  H  5  S    0.002432   0.038076   0.198306  -0.000112   0.139966

                      6          7          8          9         10
                    0.2551     0.3250     0.3251     0.3251     0.7318
                     A          A          A          A          A   
    1  C  1  S   -0.157559   0.000000   0.000000   0.000000   0.000000
    2  C  1  S    0.108626   0.000000   0.000000   0.000000  -0.000001
    3  C  1  X    0.000000  -0.000193  -0.000012  -0.299752   0.000457
    4  C  1  Y    0.000000   0.000209  -0.299752   0.000012  -0.000239
    5  C  1  Z    0.000000   0.299727   0.000209  -0.000193  -0.736435
    6  C  1  S    2.769061   0.000000   0.000000   0.000000   0.000001
    7  C  1  X    0.000000  -0.000957  -0.000061  -1.486914  -0.000837
    8  C  1  Y    0.000000   0.001037  -1.486912   0.000061   0.000439
    9  C  1  Z   -0.000001   1.486600   0.001037  -0.000957   1.349615
   10  C  1 XX   -0.012442  -0.013063  -0.000009   0.000008  -0.090429
   11  C  1 YY   -0.012442   0.013063   0.000009  -0.000008   0.090428
   12  C  1 ZZ   -0.012446   0.000000   0.000000   0.000000   0.000000
   13  C  1 XY    0.000000   0.000000   0.000000   0.000000   0.000000
   14  C  1 XZ    0.000000   0.000010   0.000001   0.015071   0.000065
   15  C  1 YZ    0.000000   0.000011  -0.015071   0.000001   0.000034
   16  H  2  S    0.003099   0.045269  -0.063869  -0.000026   0.311343
   17  H  2  S   -1.035895   1.148619  -1.622223  -0.000672   0.048455
   18  H  3  S    0.003099   0.045179   0.063932  -0.000032   0.311057
   19  H  3  S   -1.035895   1.146355   1.623825  -0.000805   0.048410
   20  H  4  S    0.003099  -0.045265  -0.000034  -0.063871  -0.311474
   21  H  4  S   -1.035895  -1.148531  -0.000868  -1.622287  -0.048474
   22  H  5  S    0.003099  -0.045183  -0.000029   0.063929  -0.310928
   23  H  5  S   -1.035894  -1.146443  -0.000734   1.623764  -0.048390

                     11         12         13         14         15
                    0.7318     0.7318     1.1754     1.1755     1.1755
                     A          A          A          A          A   
    1  C  1  S    0.000000   0.000000   0.000000   0.000000   0.000000
    2  C  1  S    0.000000   0.000000   0.000000   0.000000   0.000000
    3  C  1  X    0.000013  -0.736439   0.000892   0.000104   0.910428
    4  C  1  Y   -0.736439  -0.000013  -0.000916   0.910428  -0.000103
    5  C  1  Z    0.000239  -0.000457  -0.910394  -0.000916   0.000892
    6  C  1  S    0.000000   0.000000  -0.000003   0.000001   0.000001
    7  C  1  X   -0.000024   1.350188  -0.001171  -0.000136  -1.195341
    8  C  1  Y    1.350185   0.000024   0.001202  -1.195340   0.000135
    9  C  1  Z   -0.000439   0.000837   1.195302   0.001202  -0.001171
   10  C  1 XX    0.000029  -0.000056   0.187948   0.000189  -0.000184
   11  C  1 YY   -0.000029   0.000056  -0.187948  -0.000189   0.000184
   12  C  1 ZZ    0.000000   0.000000   0.000000   0.000000   0.000000
   13  C  1 XY    0.000000   0.000000   0.000000   0.000000   0.000000
   14  C  1 XZ    0.000002  -0.104424  -0.000213  -0.000025  -0.217035
   15  C  1 YZ    0.104424   0.000002  -0.000218   0.217035  -0.000025
   16  H  2  S    0.440005   0.000201  -0.495341   0.699064   0.000405
   17  H  2  S    0.068999   0.000032   0.914844  -1.290980  -0.000749
   18  H  3  S   -0.440207   0.000185  -0.493934  -0.700060   0.000563
   19  H  3  S   -0.069031   0.000029   0.912245   1.292818  -0.001041
   20  H  4  S    0.000093   0.439913   0.495327   0.000577   0.699077
   21  H  4  S    0.000015   0.068987  -0.914811  -0.001066  -1.291004
   22  H  5  S    0.000109  -0.440299   0.493956   0.000417  -0.700047
   23  H  5  S    0.000017  -0.069048  -0.912279  -0.000771   1.292794

                     16         17         18         19         20
                    1.2356     1.3113     1.9426     1.9426     2.5773
                     A          A          A          A          A   
    1  C  1  S    0.082959  -0.119384   0.000000   0.000042   0.000000
    2  C  1  S   -1.104483  -1.871822   0.000000   0.000346   0.000000
    3  C  1  X    0.000001   0.000000   0.000000   0.000000   0.165606
    4  C  1  Y    0.000001   0.000000   0.000000   0.000000  -0.000006
    5  C  1  Z    0.000003  -0.000001   0.000000   0.000000   0.000156
    6  C  1  S    1.862295   5.185332   0.000000  -0.001157   0.000000
    7  C  1  X   -0.000001  -0.000001   0.000000   0.000000   0.411806
    8  C  1  Y   -0.000001  -0.000001   0.000000   0.000000  -0.000015
    9  C  1  Z   -0.000002  -0.000002   0.000000   0.000000   0.000387
   10  C  1 XX   -0.056891  -0.131454   0.000000  -0.499985   0.000917
   11  C  1 YY   -0.056890  -0.131455   0.000000  -0.499988  -0.000917
   12  C  1 ZZ   -0.057019  -0.131218   0.000000   1.000013   0.000000
   13  C  1 XY    0.000000   0.000000   1.000000   0.000000   0.000000
   14  C  1 XZ    0.000000   0.000000   0.000000   0.000000   1.126675
   15  C  1 YZ    0.000000   0.000000   0.000000   0.000000   0.000041
   16  H  2  S    0.597292  -0.390098   0.000000   0.000206   0.000429
   17  H  2  S   -0.655563  -0.924002   0.000000   0.000178  -0.000053
   18  H  3  S    0.597291  -0.390097   0.000000   0.000206   0.000479
   19  H  3  S   -0.655561  -0.924002   0.000000   0.000178  -0.000060
   20  H  4  S    0.597290  -0.390096   0.000000   0.000206   0.683310
   21  H  4  S   -0.655559  -0.924003   0.000000   0.000178  -0.084992
   22  H  5  S    0.597288  -0.390095   0.000000   0.000206  -0.684219
   23  H  5  S   -0.655557  -0.924003   0.000000   0.000178   0.085105

                     21         22         23
                    2.5773     2.5774     4.6039
                     A          A          A   
    1  C  1  S    0.000000   0.000000  -0.484859
    2  C  1  S    0.000000   0.000001   2.971053
    3  C  1  X   -0.000006  -0.000156   0.000000
    4  C  1  Y   -0.165606   0.000083   0.000000
    5  C  1  Z    0.000083   0.165618   0.000000
    6  C  1  S    0.000000   0.000000   2.375384
    7  C  1  X   -0.000015  -0.000387   0.000000
    8  C  1  Y   -0.411804   0.000207   0.000000
    9  C  1  Z    0.000207   0.411513  -0.000001
   10  C  1 XX    0.000491   0.975760  -1.877693
   11  C  1 YY   -0.000491  -0.975759  -1.877692
   12  C  1 ZZ    0.000000  -0.000002  -1.877700
   13  C  1 XY    0.000001   0.000000   0.000000
   14  C  1 XZ   -0.000042  -0.001059   0.000000
   15  C  1 YZ    1.126675  -0.000567   0.000000
   16  H  2  S   -0.683522   0.483856   0.127182
   17  H  2  S    0.085019  -0.060331  -0.479753
   18  H  3  S    0.684008   0.483168   0.127182
   19  H  3  S   -0.085080  -0.060245  -0.479753
   20  H  4  S   -0.000268  -0.484155   0.127183
   21  H  4  S    0.000033   0.060369  -0.479753
   22  H  5  S   -0.000218  -0.482870   0.127183
   23  H  5  S    0.000027   0.060208  -0.479753
 ...... END OF RHF CALCULATION ......
 STEP CPU TIME =     0.02 TOTAL CPU TIME =        0.1 (    0.0 MIN)
 TOTAL WALL CLOCK TIME=        0.8 SECONDS, CPU UTILIZATION IS   8.97%

     ----------------------------------------------------------------
     PROPERTY VALUES FOR THE RHF   SELF-CONSISTENT FIELD WAVEFUNCTION
     ----------------------------------------------------------------

          -----------------
          ENERGY COMPONENTS
          -----------------

         WAVEFUNCTION NORMALIZATION =       1.0000000000

                ONE ELECTRON ENERGY =     -79.6098804550
                TWO ELECTRON ENERGY =      26.0237767533
           NUCLEAR REPULSION ENERGY =      13.3912020570
                                      ------------------
                       TOTAL ENERGY =     -40.1949016447

 ELECTRON-ELECTRON POTENTIAL ENERGY =      26.0237767533
  NUCLEUS-ELECTRON POTENTIAL ENERGY =    -119.7367022352
   NUCLEUS-NUCLEUS POTENTIAL ENERGY =      13.3912020570
                                      ------------------
             TOTAL POTENTIAL ENERGY =     -80.3217234249
               TOTAL KINETIC ENERGY =      40.1268217802
                 VIRIAL RATIO (V/T) =       2.0016966174

          ---------------------------------------
          MULLIKEN AND LOWDIN POPULATION ANALYSES
          ---------------------------------------

     ATOMIC MULLIKEN POPULATION IN EACH MOLECULAR ORBITAL

                      1          2          3          4          5

                  2.000000   2.000000   2.000000   2.000000   2.000000

    1             1.998068   1.353447   1.102051   1.102051   1.102067
    2             0.000483   0.161638   0.000000   0.448389   0.225069
    3             0.000483   0.161638   0.000000   0.449560   0.223897
    4             0.000483   0.161638   0.448366   0.000000   0.225092
    5             0.000483   0.161638   0.449583   0.000000   0.223875

               ----- POPULATIONS IN EACH AO -----
                             MULLIKEN      LOWDIN
              1  C  1  S      1.99643     1.98224
              2  C  1  S      0.62403     0.35207
              3  C  1  X      0.68948     0.62422
              4  C  1  Y      0.68948     0.62422
              5  C  1  Z      0.68946     0.62366
              6  C  1  S      0.69164     0.35736
              7  C  1  X      0.39868     0.52054
              8  C  1  Y      0.39868     0.52054
              9  C  1  Z      0.39871     0.51940
             10  C  1 XX      0.02009     0.15627
             11  C  1 YY      0.02009     0.15627
             12  C  1 ZZ      0.01313     0.14760
             13  C  1 XY      0.00000     0.00000
             14  C  1 XZ      0.01389     0.02024
             15  C  1 YZ      0.01389     0.02024
             16  H  2  S      0.51983     0.48190
             17  H  2  S      0.31575     0.36188
             18  H  3  S      0.51983     0.48190
             19  H  3  S      0.31575     0.36188
             20  H  4  S      0.51983     0.48190
             21  H  4  S      0.31575     0.36188
             22  H  5  S      0.51983     0.48190
             23  H  5  S      0.31575     0.36188

          ----- MULLIKEN ATOMIC OVERLAP POPULATIONS -----
          (OFF-DIAGONAL ELEMENTS NEED TO BE MULTIPLIED BY 2)

             1           2           3           4           5

    1    5.1091415
    2    0.3871354   0.5258736
    3    0.3871354  -0.0257944   0.5258735
    4    0.3871354  -0.0258177  -0.0258177   0.5258733
    5    0.3871354  -0.0258177  -0.0258176  -0.0257942   0.5258732

          TOTAL MULLIKEN AND LOWDIN ATOMIC POPULATIONS
       ATOM         MULL.POP.    CHARGE          LOW.POP.     CHARGE
    1 C             6.657683   -0.657683         6.624890   -0.624890
    2 H             0.835579    0.164421         0.843778    0.156222
    3 H             0.835579    0.164421         0.843777    0.156223
    4 H             0.835579    0.164421         0.843777    0.156223
    5 H             0.835579    0.164421         0.843777    0.156223

          -------------------------------
          BOND ORDER AND VALENCE ANALYSIS     BOND ORDER THRESHOLD=0.050
          -------------------------------

                   BOND                       BOND                       BOND
  ATOM PAIR DIST  ORDER      ATOM PAIR DIST  ORDER      ATOM PAIR DIST  ORDER
    1   2  1.094  0.961        1   3  1.094  0.961        1   4  1.094  0.961
    1   5  1.094  0.961

                       TOTAL       BONDED        FREE
      ATOM            VALENCE     VALENCE     VALENCE
    1 C                 3.846       3.846       0.000
    2 H                 0.934       0.934       0.000
    3 H                 0.934       0.934       0.000
    4 H                 0.934       0.934       0.000
    5 H                 0.934       0.934       0.000

          ---------------------
          ELECTROSTATIC MOMENTS
          ---------------------

 POINT   1           X           Y           Z (BOHR)    CHARGE
                 0.000000    0.000000    0.000001        0.00 (A.U.)
         DX          DY          DZ         /D/  (DEBYE)
     0.000000    0.000000   -0.000001    0.000001
 ...... END OF PROPERTY EVALUATION ......
 STEP CPU TIME =     0.00 TOTAL CPU TIME =        0.1 (    0.0 MIN)
 TOTAL WALL CLOCK TIME=        0.8 SECONDS, CPU UTILIZATION IS   8.64%

 BEGINNING ONE ELECTRON GRADIENT...
 ..... END OF 1-ELECTRON GRADIENT ......
 STEP CPU TIME =     0.00 TOTAL CPU TIME =        0.1 (    0.0 MIN)
 TOTAL WALL CLOCK TIME=        0.8 SECONDS, CPU UTILIZATION IS   8.64%

          ----------------------
          GRADIENT OF THE ENERGY
          ----------------------

 THE MINIMUM MEMORY REQUIRED FOR THIS RUN IS      74081 WORDS.
 USING     988631 WORDS FOR 2E- DERIVATIVE INTEGRAL CONTRIBUTIONS.
 THE COARSE/FINE SCHWARZ SCREENINGS SKIPPED            0/           0 BLOCKS.
 THE NUMBER OF GRADIENT INTEGRAL BLOCKS COMPUTED WAS      3002
 ...... END OF 2-ELECTRON GRADIENT ......
 STEP CPU TIME =     0.03 TOTAL CPU TIME =        0.1 (    0.0 MIN)
 TOTAL WALL CLOCK TIME=        0.9 SECONDS, CPU UTILIZATION IS  11.76%

          NSERCH=  0     ENERGY=     -40.1949016

                                 -----------------------
                                 GRADIENT (HARTREE/BOHR)
                                 -----------------------
        ATOM     ZNUC       DE/DX         DE/DY         DE/DZ
 --------------------------------------------------------------
    1  C            6.0     0.0000001     0.0000001     0.0000004
    2  H            1.0     0.0000000    -0.0058356    -0.0041004
    3  H            1.0     0.0000000     0.0058356    -0.0041004
    4  H            1.0    -0.0058357     0.0000000     0.0041002
    5  H            1.0     0.0058357     0.0000000     0.0041002

          MAXIMUM GRADIENT = 0.0058357    RMS GRADIENT = 0.0036830

 NSERCH:   0  E=      -40.1949016447  GRAD. MAX=  0.0058357  R.M.S.=  0.0036830

          FORCE CONSTANT MATRIX NOT UPDATED --- TAKING FIRST STEP
          MIN SEARCH, CORRECT HESSIAN, TRYING PURE NR STEP
               NR STEP HAS LENGTH         =   0.029276
          RADIUS OF STEP TAKEN=   0.02928  CURRENT TRUST RADIUS=   0.30000

 BEGINNING GEOMETRY SEARCH POINT NSERCH=   1 ...

 COORDINATES OF ALL ATOMS ARE (ANGS)
   ATOM   CHARGE       X              Y              Z
 ------------------------------------------------------------
 C           6.0  -0.0000004293  -0.0000003706  -0.0000013024
 H           1.0   0.0000003216  -0.8864802820  -0.6270878766
 H           1.0   0.0000003214   0.8864800957  -0.6270873516
 H           1.0  -0.8864784534   0.0000002786   0.6270885679
 H           1.0   0.8864782397   0.0000002784   0.6270879627

          INTERNUCLEAR DISTANCES (ANGS.)
          ------------------------------

                1 C          2 H          3 H          4 H          5 H     

   1 C       0.0000000    1.0858564 *  1.0858566 *  1.0858568 *  1.0858570 *
   2 H       1.0858564 *  0.0000000    1.7729604 *  1.7733164 *  1.7733155 *
   3 H       1.0858566 *  1.7729604 *  0.0000000    1.7733156 *  1.7733148 *
   4 H       1.0858568 *  1.7733164 *  1.7733156 *  0.0000000    1.7729567 *
   5 H       1.0858570 *  1.7733155 *  1.7733148 *  1.7729567 *  0.0000000  

  * ... LESS THAN  3.000

 ...... END OF ONE-ELECTRON INTEGRALS ......
 STEP CPU TIME =     0.00 TOTAL CPU TIME =        0.1 (    0.0 MIN)
 TOTAL WALL CLOCK TIME=        0.9 SECONDS, CPU UTILIZATION IS  11.76%
 TOTAL NUMBER OF NONZERO TWO-ELECTRON INTEGRALS =               30719
          3 INTEGRAL RECORDS WERE STORED ON DISK FILE  8.
  ...... END OF TWO-ELECTRON INTEGRALS .....
 STEP CPU TIME =     0.02 TOTAL CPU TIME =        0.1 (    0.0 MIN)
 TOTAL WALL CLOCK TIME=        0.9 SECONDS, CPU UTILIZATION IS  12.77%

          --------------------------
                 RHF SCF CALCULATION
          --------------------------
     DENSITY MATRIX CONV=  1.00E-05

 ITER EX DEM     TOTAL ENERGY        E CHANGE  DENSITY CHANGE     ORB. GRAD
          ---------------START SECOND ORDER SCF---------------
   1  0  0      -40.1951182560   -40.1951182560   0.003824910   0.002774717
   2  1  0      -40.1951537677    -0.0000355118   0.001027981   0.001043090
   3  2  0      -40.1951584530    -0.0000046853   0.000073865   0.000076873
   4  3  0      -40.1951584768    -0.0000000238   0.000023820   0.000011171
   5  4  0      -40.1951584781    -0.0000000013   0.000002897   0.000002726
   6  5  0      -40.1951584781     0.0000000000   0.000000653   0.000000492

          -----------------
          DENSITY CONVERGED
          -----------------
     TIME TO FORM FOCK OPERATORS=       0.0 SECONDS (       0.0 SEC/ITER)
     TIME TO SOLVE SCF EQUATIONS=       0.0 SECONDS (       0.0 SEC/ITER)

 FINAL RHF ENERGY IS      -40.1951584781 AFTER   6 ITERATIONS
 ...... END OF RHF CALCULATION ......
 STEP CPU TIME =     0.00 TOTAL CPU TIME =        0.1 (    0.0 MIN)
 TOTAL WALL CLOCK TIME=        1.0 SECONDS, CPU UTILIZATION IS  11.54%
 ..... END OF 1-ELECTRON GRADIENT ......
 STEP CPU TIME =     0.01 TOTAL CPU TIME =        0.1 (    0.0 MIN)
 TOTAL WALL CLOCK TIME=        1.0 SECONDS, CPU UTILIZATION IS  12.50%
 ...... END OF 2-ELECTRON GRADIENT ......
 STEP CPU TIME =     0.02 TOTAL CPU TIME =        0.1 (    0.0 MIN)
 TOTAL WALL CLOCK TIME=        1.1 SECONDS, CPU UTILIZATION IS  14.02%

          NSERCH=  1     ENERGY=     -40.1951585

                                 -----------------------
                                 GRADIENT (HARTREE/BOHR)
                                 -----------------------
        ATOM     ZNUC       DE/DX         DE/DY         DE/DZ
 --------------------------------------------------------------
    1  C            6.0    -0.0000003    -0.0000003    -0.0000010
    2  H            1.0     0.0000001    -0.0012900    -0.0009648
    3  H            1.0     0.0000001     0.0012901    -0.0009647
    4  H            1.0    -0.0012898     0.0000001     0.0009652
    5  H            1.0     0.0012900     0.0000001     0.0009652

          MAXIMUM GRADIENT = 0.0012901    RMS GRADIENT = 0.0008319

 NSERCH:   1  E=      -40.1951584781  GRAD. MAX=  0.0012901  R.M.S.=  0.0008319

          HESSIAN UPDATED USING THE BFGS FORMULA
             ACTUAL ENERGY CHANGE WAS  -0.0002568334
          PREDICTED ENERGY CHANGE WAS  -0.0002086621 RATIO=  1.231
          MIN SEARCH, CORRECT HESSIAN, TRYING PURE NR STEP
               NR STEP HAS LENGTH         =   0.009106
          RADIUS OF STEP TAKEN=   0.00911  CURRENT TRUST RADIUS=   0.05000

 BEGINNING GEOMETRY SEARCH POINT NSERCH=   2 ...

 COORDINATES OF ALL ATOMS ARE (ANGS)
   ATOM   CHARGE       X              Y              Z
 ------------------------------------------------------------
 C           6.0   0.0000014464   0.0000012519   0.0000043846
 H           1.0  -0.0000010842  -0.8851017056  -0.6251091257
 H           1.0  -0.0000010834   0.8851023304  -0.6251108951
 H           1.0  -0.8851078525  -0.0000009386   0.6251067963
 H           1.0   0.8851085737  -0.0000009379   0.6251088398

          INTERNUCLEAR DISTANCES (ANGS.)
          ------------------------------

                1 C          2 H          3 H          4 H          5 H     

   1 C       0.0000000    1.0835932 *  1.0835927 *  1.0835919 *  1.0835913 *
   2 H       1.0835932 *  0.0000000    1.7702040 *  1.7691402 *  1.7691431 *
   3 H       1.0835927 *  1.7702040 *  0.0000000    1.7691427 *  1.7691456 *
   4 H       1.0835919 *  1.7691402 *  1.7691427 *  0.0000000    1.7702164 *
   5 H       1.0835913 *  1.7691431 *  1.7691456 *  1.7702164 *  0.0000000  

  * ... LESS THAN  3.000

 ...... END OF ONE-ELECTRON INTEGRALS ......
 STEP CPU TIME =     0.00 TOTAL CPU TIME =        0.1 (    0.0 MIN)
 TOTAL WALL CLOCK TIME=        1.1 SECONDS, CPU UTILIZATION IS  14.02%
 TOTAL NUMBER OF NONZERO TWO-ELECTRON INTEGRALS =               31593
          3 INTEGRAL RECORDS WERE STORED ON DISK FILE  8.
  ...... END OF TWO-ELECTRON INTEGRALS .....
 STEP CPU TIME =     0.01 TOTAL CPU TIME =        0.2 (    0.0 MIN)
 TOTAL WALL CLOCK TIME=        1.2 SECONDS, CPU UTILIZATION IS  13.45%

          --------------------------
                 RHF SCF CALCULATION
          --------------------------
     DENSITY MATRIX CONV=  1.00E-05

 ITER EX DEM     TOTAL ENERGY        E CHANGE  DENSITY CHANGE     ORB. GRAD
          ---------------START SECOND ORDER SCF---------------
   1  0  0      -40.1951680356   -40.1951680356   0.001175726   0.000828626
   2  1  0      -40.1951711986    -0.0000031630   0.000334408   0.000309857
   3  2  0      -40.1951716043    -0.0000004056   0.000027055   0.000022748
   4  3  0      -40.1951716073    -0.0000000030   0.000008704   0.000004753
   5  4  0      -40.1951716075    -0.0000000002   0.000001266   0.000001239

          -----------------
          DENSITY CONVERGED
          -----------------
     TIME TO FORM FOCK OPERATORS=       0.0 SECONDS (       0.0 SEC/ITER)
     TIME TO SOLVE SCF EQUATIONS=       0.0 SECONDS (       0.0 SEC/ITER)

 FINAL RHF ENERGY IS      -40.1951716075 AFTER   5 ITERATIONS
 ...... END OF RHF CALCULATION ......
 STEP CPU TIME =     0.01 TOTAL CPU TIME =        0.2 (    0.0 MIN)
 TOTAL WALL CLOCK TIME=        1.3 SECONDS, CPU UTILIZATION IS  13.28%
 ..... END OF 1-ELECTRON GRADIENT ......
 STEP CPU TIME =     0.00 TOTAL CPU TIME =        0.2 (    0.0 MIN)
 TOTAL WALL CLOCK TIME=        1.3 SECONDS, CPU UTILIZATION IS  13.28%
 ...... END OF 2-ELECTRON GRADIENT ......
 STEP CPU TIME =     0.02 TOTAL CPU TIME =        0.2 (    0.0 MIN)
 TOTAL WALL CLOCK TIME=        1.3 SECONDS, CPU UTILIZATION IS  14.39%

          NSERCH=  2     ENERGY=     -40.1951716

                                 -----------------------
                                 GRADIENT (HARTREE/BOHR)
                                 -----------------------
        ATOM     ZNUC       DE/DX         DE/DY         DE/DZ
 --------------------------------------------------------------
    1  C            6.0     0.0000011     0.0000009     0.0000032
    2  H            1.0    -0.0000003    -0.0000346     0.0001325
    3  H            1.0    -0.0000003     0.0000342     0.0001323
    4  H            1.0    -0.0000351    -0.0000003    -0.0001341
    5  H            1.0     0.0000347    -0.0000003    -0.0001339

          MAXIMUM GRADIENT = 0.0001341    RMS GRADIENT = 0.0000711

 NSERCH:   2  E=      -40.1951716075  GRAD. MAX=  0.0001341  R.M.S.=  0.0000711

          HESSIAN UPDATED USING THE BFGS FORMULA
             ACTUAL ENERGY CHANGE WAS  -0.0000131294
          PREDICTED ENERGY CHANGE WAS  -0.0000139173 RATIO=  0.943
          MIN SEARCH, CORRECT HESSIAN, TRYING PURE NR STEP
               NR STEP HAS LENGTH         =   0.006616
          RADIUS OF STEP TAKEN=   0.00662  CURRENT TRUST RADIUS=   0.05000

 BEGINNING GEOMETRY SEARCH POINT NSERCH=   3 ...

 COORDINATES OF ALL ATOMS ARE (ANGS)
   ATOM   CHARGE       X              Y              Z
 ------------------------------------------------------------
 C           6.0  -0.0000030390  -0.0000026305  -0.0000091949
 H           1.0   0.0000022763  -0.8840603053  -0.6265075957
 H           1.0   0.0000022750   0.8840589964  -0.6265038858
 H           1.0  -0.8840474295   0.0000019704   0.6265124813
 H           1.0   0.8840459172   0.0000019691   0.6265081951

          INTERNUCLEAR DISTANCES (ANGS.)
          ------------------------------

                1 C          2 H          3 H          4 H          5 H     

   1 C       0.0000000    1.0835397 *  1.0835408 *  1.0835423 *  1.0835435 *
   2 H       1.0835397 *  0.0000000    1.7681193 *  1.7700761 *  1.7700700 *
   3 H       1.0835408 *  1.7681193 *  0.0000000    1.7700708 *  1.7700648 *
   4 H       1.0835423 *  1.7700761 *  1.7700708 *  0.0000000    1.7680933 *
   5 H       1.0835435 *  1.7700700 *  1.7700648 *  1.7680933 *  0.0000000  

  * ... LESS THAN  3.000

 ...... END OF ONE-ELECTRON INTEGRALS ......
 STEP CPU TIME =     0.00 TOTAL CPU TIME =        0.2 (    0.0 MIN)
 TOTAL WALL CLOCK TIME=        1.3 SECONDS, CPU UTILIZATION IS  14.39%
 TOTAL NUMBER OF NONZERO TWO-ELECTRON INTEGRALS =               31833
          3 INTEGRAL RECORDS WERE STORED ON DISK FILE  8.
  ...... END OF TWO-ELECTRON INTEGRALS .....
 STEP CPU TIME =     0.02 TOTAL CPU TIME =        0.2 (    0.0 MIN)
 TOTAL WALL CLOCK TIME=        1.4 SECONDS, CPU UTILIZATION IS  15.00%

          --------------------------
                 RHF SCF CALCULATION
          --------------------------
     DENSITY MATRIX CONV=  1.00E-05

 ITER EX DEM     TOTAL ENERGY        E CHANGE  DENSITY CHANGE     ORB. GRAD
          ---------------START SECOND ORDER SCF---------------
   1  0  0      -40.1951704458   -40.1951704458   0.000290504   0.000325313
   2  1  0      -40.1951708325    -0.0000003867   0.000145013   0.000073139
   3  2  0      -40.1951708660    -0.0000000335   0.000031764   0.000014449
   4  3  0      -40.1951708669    -0.0000000008   0.000005551   0.000003762
   5  4  0      -40.1951708669    -0.0000000001   0.000000860   0.000000502

          -----------------
          DENSITY CONVERGED
          -----------------
     TIME TO FORM FOCK OPERATORS=       0.0 SECONDS (       0.0 SEC/ITER)
     TIME TO SOLVE SCF EQUATIONS=       0.0 SECONDS (       0.0 SEC/ITER)

 FINAL RHF ENERGY IS      -40.1951708669 AFTER   5 ITERATIONS
 ...... END OF RHF CALCULATION ......
 STEP CPU TIME =     0.00 TOTAL CPU TIME =        0.2 (    0.0 MIN)
 TOTAL WALL CLOCK TIME=        1.5 SECONDS, CPU UTILIZATION IS  14.19%
 ..... END OF 1-ELECTRON GRADIENT ......
 STEP CPU TIME =     0.00 TOTAL CPU TIME =        0.2 (    0.0 MIN)
 TOTAL WALL CLOCK TIME=        1.5 SECONDS, CPU UTILIZATION IS  14.09%
 ...... END OF 2-ELECTRON GRADIENT ......
 STEP CPU TIME =     0.03 TOTAL CPU TIME =        0.2 (    0.0 MIN)
 TOTAL WALL CLOCK TIME=        1.5 SECONDS, CPU UTILIZATION IS  15.79%

          NSERCH=  3     ENERGY=     -40.1951709

                                 -----------------------
                                 GRADIENT (HARTREE/BOHR)
                                 -----------------------
        ATOM     ZNUC       DE/DX         DE/DY         DE/DZ
 --------------------------------------------------------------
    1  C            6.0    -0.0000022    -0.0000019    -0.0000067
    2  H            1.0     0.0000007     0.0002070    -0.0001420
    3  H            1.0     0.0000007    -0.0002062    -0.0001417
    4  H            1.0     0.0002082     0.0000006     0.0001454
    5  H            1.0    -0.0002073     0.0000006     0.0001451

          MAXIMUM GRADIENT = 0.0002082    RMS GRADIENT = 0.0001302

 NSERCH:   3  E=      -40.1951708669  GRAD. MAX=  0.0002082  R.M.S.=  0.0001302

          HESSIAN UPDATED USING THE BFGS FORMULA
             ACTUAL ENERGY CHANGE WAS   0.0000007406
          PREDICTED ENERGY CHANGE WAS  -0.0000008422 RATIO= -0.879
          MIN SEARCH, CORRECT HESSIAN, TRYING PURE NR STEP
               NR STEP HAS LENGTH         =   0.004307
          RADIUS OF STEP TAKEN=   0.00431  CURRENT TRUST RADIUS=   0.05000

 BEGINNING GEOMETRY SEARCH POINT NSERCH=   4 ...

 COORDINATES OF ALL ATOMS ARE (ANGS)
   ATOM   CHARGE       X              Y              Z
 ------------------------------------------------------------
 C           6.0   0.0000002979   0.0000002578   0.0000009346
 H           1.0  -0.0000002237  -0.8848051819  -0.6256525898
 H           1.0  -0.0000002238   0.8848053114  -0.6256529573
 H           1.0  -0.8848064859  -0.0000001935   0.6256520939
 H           1.0   0.8848066356  -0.0000001936   0.6256525185

          INTERNUCLEAR DISTANCES (ANGS.)
          ------------------------------

                1 C          2 H          3 H          4 H          5 H     

   1 C       0.0000000    1.0836618 *  1.0836617 *  1.0836616 *  1.0836615 *
   2 H       1.0836618 *  0.0000000    1.7696105 *  1.7696117 *  1.7696123 *
   3 H       1.0836617 *  1.7696105 *  0.0000000    1.7696122 *  1.7696128 *
   4 H       1.0836616 *  1.7696117 *  1.7696122 *  0.0000000    1.7696131 *
   5 H       1.0836615 *  1.7696123 *  1.7696128 *  1.7696131 *  0.0000000  

  * ... LESS THAN  3.000

 ...... END OF ONE-ELECTRON INTEGRALS ......
 STEP CPU TIME =     0.00 TOTAL CPU TIME =        0.2 (    0.0 MIN)
 TOTAL WALL CLOCK TIME=        1.5 SECONDS, CPU UTILIZATION IS  15.79%
 TOTAL NUMBER OF NONZERO TWO-ELECTRON INTEGRALS =               30358
          3 INTEGRAL RECORDS WERE STORED ON DISK FILE  8.
  ...... END OF TWO-ELECTRON INTEGRALS .....
 STEP CPU TIME =     0.01 TOTAL CPU TIME =        0.3 (    0.0 MIN)
 TOTAL WALL CLOCK TIME=        1.6 SECONDS, CPU UTILIZATION IS  15.53%

          --------------------------
                 RHF SCF CALCULATION
          --------------------------
     DENSITY MATRIX CONV=  1.00E-05

 ITER EX DEM     TOTAL ENERGY        E CHANGE  DENSITY CHANGE     ORB. GRAD
          ---------------START SECOND ORDER SCF---------------
   1  0  0      -40.1951717335   -40.1951717335   0.000231478   0.000210660
   2  1  0      -40.1951719040    -0.0000001705   0.000078321   0.000042055
   3  2  0      -40.1951719188    -0.0000000148   0.000026095   0.000014340
   4  3  0      -40.1951719195    -0.0000000008   0.000002666   0.000003144
   5  4  0      -40.1951719196     0.0000000000   0.000000581   0.000000306

          -----------------
          DENSITY CONVERGED
          -----------------
     TIME TO FORM FOCK OPERATORS=       0.0 SECONDS (       0.0 SEC/ITER)
     TIME TO SOLVE SCF EQUATIONS=       0.0 SECONDS (       0.0 SEC/ITER)

 FINAL RHF ENERGY IS      -40.1951719196 AFTER   5 ITERATIONS
 ...... END OF RHF CALCULATION ......
 STEP CPU TIME =     0.00 TOTAL CPU TIME =        0.3 (    0.0 MIN)
 TOTAL WALL CLOCK TIME=        1.7 SECONDS, CPU UTILIZATION IS  14.62%
 ..... END OF 1-ELECTRON GRADIENT ......
 STEP CPU TIME =     0.00 TOTAL CPU TIME =        0.3 (    0.0 MIN)
 TOTAL WALL CLOCK TIME=        1.7 SECONDS, CPU UTILIZATION IS  14.62%
 ...... END OF 2-ELECTRON GRADIENT ......
 STEP CPU TIME =     0.03 TOTAL CPU TIME =        0.3 (    0.0 MIN)
 TOTAL WALL CLOCK TIME=        1.7 SECONDS, CPU UTILIZATION IS  16.09%

          NSERCH=  4     ENERGY=     -40.1951719

                                 -----------------------
                                 GRADIENT (HARTREE/BOHR)
                                 -----------------------
        ATOM     ZNUC       DE/DX         DE/DY         DE/DZ
 --------------------------------------------------------------
    1  C            6.0     0.0000002     0.0000002     0.0000007
    2  H            1.0    -0.0000001    -0.0000021    -0.0000017
    3  H            1.0    -0.0000001     0.0000020    -0.0000017
    4  H            1.0    -0.0000022    -0.0000001     0.0000013
    5  H            1.0     0.0000021    -0.0000001     0.0000014

          MAXIMUM GRADIENT = 0.0000022    RMS GRADIENT = 0.0000014

 NSERCH:   4  E=      -40.1951719196  GRAD. MAX=  0.0000022  R.M.S.=  0.0000014


      ***** EQUILIBRIUM GEOMETRY LOCATED *****
 COORDINATES OF ALL ATOMS ARE (ANGS)
   ATOM   CHARGE       X              Y              Z
 ------------------------------------------------------------
 C           6.0   0.0000002979   0.0000002578   0.0000009346
 H           1.0  -0.0000002237  -0.8848051819  -0.6256525898
 H           1.0  -0.0000002238   0.8848053114  -0.6256529573
 H           1.0  -0.8848064859  -0.0000001935   0.6256520939
 H           1.0   0.8848066356  -0.0000001936   0.6256525185

          INTERNUCLEAR DISTANCES (ANGS.)
          ------------------------------

                1 C          2 H          3 H          4 H          5 H     

   1 C       0.0000000    1.0836618 *  1.0836617 *  1.0836616 *  1.0836615 *
   2 H       1.0836618 *  0.0000000    1.7696105 *  1.7696117 *  1.7696123 *
   3 H       1.0836617 *  1.7696105 *  0.0000000    1.7696122 *  1.7696128 *
   4 H       1.0836616 *  1.7696117 *  1.7696122 *  0.0000000    1.7696131 *
   5 H       1.0836615 *  1.7696123 *  1.7696128 *  1.7696131 *  0.0000000  

  * ... LESS THAN  3.000


          NUCLEAR ENERGY    =       13.5139738930
          ELECTRONIC ENERGY =      -53.7091458125
          TOTAL ENERGY      =      -40.1951719196

          ------------------
          MOLECULAR ORBITALS
          ------------------

                      1          2          3          4          5
                  -11.2050    -0.9446    -0.5462    -0.5462    -0.5462
                     A          A          A          A          A   
    1  C  1  S    0.995621   0.194146   0.000000   0.000000   0.000000
    2  C  1  S    0.028507  -0.358886   0.000000   0.000000   0.000000
    3  C  1  X    0.000000   0.000000  -0.361729   0.243412   0.010557
    4  C  1  Y    0.000000   0.000000   0.030453   0.063921  -0.430344
    5  C  1  Z    0.000000   0.000000  -0.241730  -0.356193  -0.070013
    6  C  1  S   -0.013353  -0.362605   0.000000   0.000000   0.000000
    7  C  1  X    0.000000   0.000000  -0.189721   0.127666   0.005537
    8  C  1  Y    0.000000   0.000000   0.015972   0.033525  -0.225709
    9  C  1  Z    0.000000   0.000000  -0.126784  -0.186818  -0.036721
   10  C  1 XX   -0.002076  -0.010180  -0.017269  -0.025446  -0.005002
   11  C  1 YY   -0.002076  -0.010180   0.017269   0.025446   0.005002
   12  C  1 ZZ   -0.002076  -0.010180   0.000000   0.000000   0.000000
   13  C  1 XY    0.000000   0.000000   0.000000   0.000000   0.000000
   14  C  1 XZ    0.000000   0.000000  -0.029839   0.020079   0.000871
   15  C  1 YZ    0.000000   0.000000  -0.002512  -0.005273   0.035499
   16  H  2  S    0.000043  -0.134641   0.076825   0.102786   0.262425
   17  H  2  S    0.002479  -0.037690   0.063319   0.084716   0.216292
   18  H  3  S    0.000043  -0.134641   0.110134   0.172701  -0.208276
   19  H  3  S    0.002479  -0.037690   0.090772   0.142340  -0.171662
   20  H  4  S    0.000043  -0.134641   0.104347  -0.270862  -0.032848
   21  H  4  S    0.002479  -0.037690   0.086003  -0.223246  -0.027074
   22  H  5  S    0.000043  -0.134641  -0.291305  -0.004624  -0.021301
   23  H  5  S    0.002479  -0.037690  -0.240094  -0.003811  -0.017556

                      6          7          8          9         10
                    0.2571     0.3278     0.3278     0.3278     0.7282
                     A          A          A          A          A   
    1  C  1  S    0.157030   0.000000   0.000000   0.000000   0.000000
    2  C  1  S   -0.104586   0.000000   0.000000   0.000000   0.000001
    3  C  1  X    0.000000  -0.012422   0.072783   0.287681  -0.017439
    4  C  1  Y    0.000000   0.284725   0.084045  -0.008968   0.723557
    5  C  1  Z    0.000000   0.083604  -0.275411   0.073288   0.088024
    6  C  1  S   -2.823749   0.000000   0.000000   0.000000  -0.000001
    7  C  1  X    0.000001  -0.062964   0.368906   1.458145   0.032407
    8  C  1  Y    0.000001   1.443155   0.425991  -0.045458  -1.344587
    9  C  1  Z    0.000002   0.423757  -1.395951   0.371470  -0.163575
   10  C  1 XX    0.012689  -0.003688   0.012148  -0.003233   0.010697
   11  C  1 YY    0.012689   0.003688  -0.012148   0.003233  -0.010697
   12  C  1 ZZ    0.012689   0.000000   0.000000   0.000000   0.000000
   13  C  1 XY    0.000000   0.000000   0.000000   0.000000   0.000000
   14  C  1 XZ    0.000000   0.000633  -0.003707  -0.014652  -0.002447
   15  C  1 YZ    0.000000   0.014502   0.004281  -0.000457  -0.101534
   16  H  2  S   -0.005262   0.072206  -0.023246   0.008999  -0.474391
   17  H  2  S    1.050267   1.911914  -0.615542   0.238289  -0.080474
   18  H  3  S   -0.005262  -0.047377  -0.058545   0.012766   0.399240
   19  H  3  S    1.050267  -1.254477  -1.550199   0.338027   0.067725
   20  H  4  S   -0.005262  -0.015023   0.056180   0.049529   0.048104
   21  H  4  S    1.050267  -0.397792   1.487574   1.311481   0.008160
   22  H  5  S   -0.005262  -0.009806   0.025612  -0.071294   0.027048
   23  H  5  S    1.050267  -0.259644   0.678167  -1.887797   0.004588

                     11         12         13         14         15
                    0.7282     0.7282     1.1844     1.1844     1.1844
                     A          A          A          A          A   
    1  C  1  S    0.000000   0.000000   0.000000   0.000000   0.000000
    2  C  1  S    0.000000   0.000001   0.000000   0.000000   0.000000
    3  C  1  X   -0.643321   0.342667  -0.029530  -0.346121  -0.850211
    4  C  1  Y   -0.056673  -0.069574   0.898246  -0.186259   0.044627
    5  C  1  Z    0.338398   0.639786   0.189241   0.830083  -0.344500
    6  C  1  S    0.000000  -0.000002   0.000003   0.000005  -0.000004
    7  C  1  X    1.195489  -0.636782   0.038731   0.453964   1.115117
    8  C  1  Y    0.105315   0.129290  -1.178118   0.244293  -0.058532
    9  C  1  Z   -0.628846  -1.188919  -0.248204  -1.088717   0.451837
   10  C  1 XX    0.041124   0.077751  -0.039246  -0.172147   0.071444
   11  C  1 YY   -0.041124  -0.077750   0.039246   0.172146  -0.071444
   12  C  1 ZZ    0.000000   0.000000   0.000000   0.000001   0.000000
   13  C  1 XY    0.000000   0.000000   0.000000   0.000000   0.000000
   14  C  1 XZ   -0.090275   0.048085   0.007072   0.082885   0.203598
   15  C  1 YZ    0.007953   0.009763   0.215100  -0.044603   0.010687
   16  H  2  S   -0.110243  -0.231112   0.784677   0.304650  -0.151276
   17  H  2  S   -0.018702  -0.039207  -1.460338  -0.566978   0.281538
   18  H  3  S   -0.178670  -0.315116  -0.581202   0.587877  -0.219137
   19  H  3  S   -0.030310  -0.053459   1.081652  -1.094082   0.407831
   20  H  4  S    0.532833   0.066245  -0.124192  -0.709425  -0.461208
   21  H  4  S    0.090392   0.011237   0.231127   1.320281   0.858342
   22  H  5  S   -0.243920   0.479985  -0.079288  -0.183111   0.831629
   23  H  5  S   -0.041381   0.081428   0.147558   0.340778  -1.547711

     ----------------------------------------------------------------
     PROPERTY VALUES FOR THE RHF   SELF-CONSISTENT FIELD WAVEFUNCTION
     ----------------------------------------------------------------

          -----------------
          ENERGY COMPONENTS
          -----------------

         WAVEFUNCTION NORMALIZATION =       1.0000000000

                ONE ELECTRON ENERGY =     -79.8421631416
                TWO ELECTRON ENERGY =      26.1330173290
           NUCLEAR REPULSION ENERGY =      13.5139738930
                                      ------------------
                       TOTAL ENERGY =     -40.1951719196

 ELECTRON-ELECTRON POTENTIAL ENERGY =      26.1330173290
  NUCLEUS-ELECTRON POTENTIAL ENERGY =    -120.0249218293
   NUCLEUS-NUCLEUS POTENTIAL ENERGY =      13.5139738930
                                      ------------------
             TOTAL POTENTIAL ENERGY =     -80.3779306073
               TOTAL KINETIC ENERGY =      40.1827586877
                 VIRIAL RATIO (V/T) =       2.0003089194

          ---------------------------------------
          MULLIKEN AND LOWDIN POPULATION ANALYSES
          ---------------------------------------

     ATOMIC MULLIKEN POPULATION IN EACH MOLECULAR ORBITAL

                      1          2          3          4          5

                  2.000000   2.000000   2.000000   2.000000   2.000000

    1             1.998006   1.347506   1.104992   1.104993   1.104992
    2             0.000498   0.163124   0.046427   0.083106   0.541723
    3             0.000498   0.163124   0.095413   0.234615   0.341228
    4             0.000498   0.163124   0.085649   0.577118   0.008488
    5             0.000498   0.163124   0.667518   0.000168   0.003569

               ----- POPULATIONS IN EACH AO -----
                             MULLIKEN      LOWDIN
              1  C  1  S      1.99642     1.98240
              2  C  1  S      0.62670     0.35232
              3  C  1  X      0.69539     0.62963
              4  C  1  Y      0.69539     0.62963
              5  C  1  Z      0.69539     0.62903
              6  C  1  S      0.68273     0.35297
              7  C  1  X      0.39559     0.51793
              8  C  1  Y      0.39559     0.51793
              9  C  1  Z      0.39559     0.51673
             10  C  1 XX      0.02023     0.15639
             11  C  1 YY      0.02023     0.15639
             12  C  1 ZZ      0.01322     0.14764
             13  C  1 XY      0.00000     0.00000
             14  C  1 XZ      0.01401     0.02052
             15  C  1 YZ      0.01401     0.02052
             16  H  2  S      0.52355     0.48463
             17  H  2  S      0.31133     0.35786
             18  H  3  S      0.52355     0.48463
             19  H  3  S      0.31133     0.35786
             20  H  4  S      0.52355     0.48463
             21  H  4  S      0.31133     0.35786
             22  H  5  S      0.52355     0.48463
             23  H  5  S      0.31133     0.35786

          ----- MULLIKEN ATOMIC OVERLAP POPULATIONS -----
          (OFF-DIAGONAL ELEMENTS NEED TO BE MULTIPLIED BY 2)

             1           2           3           4           5

    1    5.1051861
    2    0.3888257   0.5242732
    3    0.3888257  -0.0260739   0.5242729
    4    0.3888258  -0.0260736  -0.0260735   0.5242726
    5    0.3888258  -0.0260735  -0.0260735  -0.0260736   0.5242724

          TOTAL MULLIKEN AND LOWDIN ATOMIC POPULATIONS
       ATOM         MULL.POP.    CHARGE          LOW.POP.     CHARGE
    1 C             6.660489   -0.660489         6.630013   -0.630013
    2 H             0.834878    0.165122         0.842497    0.157503
    3 H             0.834878    0.165122         0.842497    0.157503
    4 H             0.834878    0.165122         0.842497    0.157503
    5 H             0.834878    0.165122         0.842497    0.157503

          -------------------------------
          BOND ORDER AND VALENCE ANALYSIS     BOND ORDER THRESHOLD=0.050
          -------------------------------

                   BOND                       BOND                       BOND
  ATOM PAIR DIST  ORDER      ATOM PAIR DIST  ORDER      ATOM PAIR DIST  ORDER
    1   2  1.084  0.962        1   3  1.084  0.962        1   4  1.084  0.962
    1   5  1.084  0.962

                       TOTAL       BONDED        FREE
      ATOM            VALENCE     VALENCE     VALENCE
    1 C                 3.848       3.848       0.000
    2 H                 0.934       0.934       0.000
    3 H                 0.934       0.934       0.000
    4 H                 0.934       0.934       0.000
    5 H                 0.934       0.934       0.000

          ---------------------
          ELECTROSTATIC MOMENTS
          ---------------------

 POINT   1           X           Y           Z (BOHR)    CHARGE
                 0.000000    0.000000    0.000001        0.00 (A.U.)
         DX          DY          DZ         /D/  (DEBYE)
     0.000000    0.000000   -0.000001    0.000001
 ...... END OF PROPERTY EVALUATION ......
 STEP CPU TIME =     0.01 TOTAL CPU TIME =        0.3 (    0.0 MIN)
 TOTAL WALL CLOCK TIME=        1.9 SECONDS, CPU UTILIZATION IS  15.43%
  $VIB   
          IVIB=   0 IATOM=   0 ICOORD=   0 E=      -40.1951719196
  2.156343106E-07 1.880366534E-07 6.868496315E-07-6.762501196E-08-2.058751591E-06
 -1.689370667E-06-6.760657322E-08 1.987904322E-06-1.721882135E-06-2.176533866E-06
 -5.873754357E-08 1.342983905E-06 2.096131142E-06-5.845185117E-08 1.381419267E-06
 -3.234786827E-07-2.840068092E-07-1.039694011E-06
 ......END OF GEOMETRY SEARCH......
 STEP CPU TIME =     0.00 TOTAL CPU TIME =        0.3 (    0.0 MIN)
 TOTAL WALL CLOCK TIME=        1.9 SECONDS, CPU UTILIZATION IS  15.43%


     *********************************************************
     THE HESSIAN WILL NOW BE COMPUTED AT THE STATIONARY POINT.
     *********************************************************

     ---------------------------------
     HESSIAN MATRIX CONTROL PARAMETERS
     ---------------------------------
     METHOD=ANALYTIC   NVIB  =       2   VIBSIZ= 0.01000
     RDHESS=       F   PURIFY=       F   PRTIFC=       F
     VIBANL=       F   DECOMP=       F   PROJCT=       F
     SCLFAC= 1.00000   PRTSCN=       F   NPRT  =       0
     PULCOR=       F   NPUN  =       0   REDOVB=       T

     ------------------------------
     CPHF RESPONSE SOLUTION OPTIONS
     ------------------------------
     POLAR  =       F     NWORD  =       0
     CPHF   =AO      

     ---------------------------------------------
     1ST AND 2ND INTEGRAL DERIVATIVE CONTRIBUTIONS
     ---------------------------------------------
 ...... END OF 1-ELECTRON GRAD+HESS+FOCKDER ......
 STEP CPU TIME =     0.01 TOTAL CPU TIME =        0.3 (    0.0 MIN)
 TOTAL WALL CLOCK TIME=        2.0 SECONDS, CPU UTILIZATION IS  15.23%

     ----------------------------------------------
     TWO ELECTRON INTEGRAL DERIVATIVE CONTRIBUTIONS
     ----------------------------------------------

      14004 WORDS REQUIRED,   1000000 WORDS AVAILABLE
 THE COARSE/FINE SCHWARZ SCREENINGS SKIPPED          0/         0 BLOCKS.
 THE NUMBER OF DERIVATIVE INTEGRAL BLOCKS COMPUTED WAS      3002
 STEP CPU TIME =     0.39 TOTAL CPU TIME =        0.7 (    0.0 MIN)
 TOTAL WALL CLOCK TIME=        3.0 SECONDS, CPU UTILIZATION IS  23.31%
 ...... END OF 2-ELECTRON GRAD+HESS+FOCKDER ......
 STEP CPU TIME =     0.00 TOTAL CPU TIME =        0.7 (    0.0 MIN)
 TOTAL WALL CLOCK TIME=        3.0 SECONDS, CPU UTILIZATION IS  23.31%

     -------------------------------------------
     COUPLED-PERTURBED CLOSED SHELL HARTREE-FOCK
     -------------------------------------------
 THE CPHF HAS      90 INDEPENDENT ORBITAL ROTATIONS.
 SOLVING FOR   15 NUCLEAR RESPONSES AND 0 ELECTRIC FIELD RESPONSES
           -FA- WILL USE      3129 WORDS,
           -TA- WILL USE      9797 WORDS,
          -FCK- WILL USE     42220 WORDS,
 -WXY- AND -YA- WILL USE     47052 WORDS,
               THERE ARE   1000000 WORDS OF REPLICATED MEMORY AVAILABLE.
        TIME FOR -FA-   =        0.000
        TIME FOR -TA-   =        0.000
        TIME FOR -FCK-  =        0.010
 PRECONDITIONED CONJUGATE GRADIENT SOLVER     CONV. TOLERANCE=5.00E-05
 ITER    RESPONSE ERROR        IMPROVED
   1       3.00855E-01            15
   2       1.13975E-01            15
   3       1.29031E-02            15
   4       1.69969E-03            15
   5       2.16789E-04            15
   6       2.48249E-05            11
 THE CPHF HAS CONVERGED AFTER  6 ITERATIONS.
 IT REQUIRED    86 FOCK-LIKE BUILDS TO FIND THE  15 SYMMETRY UNIQUE RESPONSES.
        TIME FOR -YA-   =        0.020
 ...... DONE WITH CPHF CONTRIBUTIONS ......
 STEP CPU TIME =     0.03 TOTAL CPU TIME =        0.7 (    0.0 MIN)
 TOTAL WALL CLOCK TIME=        3.0 SECONDS, CPU UTILIZATION IS  23.76%

          ---------------
          ENERGY GRADIENT
          ---------------

 UNITS ARE HARTREE/BOHR    E'X               E'Y               E'Z 
    1 C                0.000000216       0.000000188       0.000000687
    2 H               -0.000000068      -0.000002093      -0.000001711
    3 H               -0.000000068       0.000002022      -0.000001744
    4 H               -0.000002210      -0.000000059       0.000001365
    5 H                0.000002130      -0.000000058       0.000001403

          -------------------------------
          CARTESIAN FORCE CONSTANT MATRIX
          -------------------------------

                                   1                          2
                               C                          H         
                          X        Y        Z        X        Y        Z
  1   C            X 0.622267 0.000000 0.000000-0.057572 0.000000 0.000000
                   Y 0.000000 0.622264 0.000000 0.000000-0.253560-0.138584
                   Z 0.000000 0.000000 0.622266 0.000000-0.138584-0.155566
  2   H            X-0.057572 0.000000 0.000000 0.054083 0.000000 0.000000
                   Y 0.000000-0.253560-0.138584 0.000000 0.271724 0.153895
                   Z 0.000000-0.138584-0.155566 0.000000 0.153895 0.162904
  3   H            X-0.057572 0.000000 0.000000-0.001198 0.000000 0.000000
                   Y 0.000000-0.253560 0.138584 0.000000-0.022851 0.018770
                   Z 0.000000 0.138584-0.155567 0.000000-0.018770 0.016711
  4   H            X-0.253561 0.000000 0.138584 0.002343 0.001095-0.001730
                   Y 0.000000-0.057572 0.000000 0.027640 0.002343-0.017041
                   Z 0.138584 0.000000-0.155566 0.017041 0.001730-0.012024
  5   H            X-0.253561 0.000000-0.138584 0.002343-0.001095 0.001730
                   Y 0.000000-0.057572 0.000000-0.027640 0.002343-0.017041
                   Z-0.138584 0.000000-0.155566-0.017041 0.001730-0.012024

                                   3                          4
                               H                          H         
                          X        Y        Z        X        Y        Z
  3   H            X 0.054083 0.000000 0.000000 0.002343-0.027640 0.017041
                   Y 0.000000 0.271724-0.153895-0.001095 0.002343-0.001730
                   Z 0.000000-0.153895 0.162904-0.001730 0.017041-0.012024
  4   H            X 0.002343-0.001095-0.001730 0.271724 0.000000-0.153895
                   Y-0.027640 0.002343 0.017041 0.000000 0.054083 0.000000
                   Z 0.017041-0.001730-0.012024-0.153895 0.000000 0.162903
  5   H            X 0.002343 0.001095 0.001730-0.022850 0.000000-0.018770
                   Y 0.027640 0.002343 0.017041 0.000000-0.001198 0.000000
                   Z-0.017041-0.001730-0.012024 0.018770 0.000000 0.016711

                                   5
                               H         
                          X        Y        Z
  5   H            X 0.271725 0.000000 0.153895
                   Y 0.000000 0.054083 0.000000
                   Z 0.153895 0.000000 0.162904

          ------------------------          ----------------
          DIPOLE DERIVATIVE TENSOR          (DEBYE/ANGSTROM)
          ------------------------          ----------------

        ATOM                 MU-X           MU-Y           MU-Z
     C          D/DX     0.350345262   -0.000000027    0.000000190
                D/DY     0.000000011    0.350344254   -0.000000168
                D/DZ     0.000000172   -0.000000182    0.350341127
     H          D/DX     0.292203020   -0.000000174   -0.000000627
                D/DY     0.000000241   -0.467368498   -0.537096598
                D/DZ    -0.000000343   -0.537103810   -0.087588651
     H          D/DX     0.292202707    0.000000198   -0.000000645
                D/DY    -0.000000251   -0.467366678    0.537095666
                D/DZ    -0.000000329    0.537103400   -0.087587856
     H          D/DX    -0.467366856    0.000000208    0.537094116
                D/DY    -0.000000154    0.292205335    0.000000555
                D/DZ     0.537098550    0.000000297   -0.087586913
     H          D/DX    -0.467364742   -0.000000206   -0.537093034
                D/DY     0.000000153    0.292204979    0.000000545
                D/DZ    -0.537098051    0.000000296   -0.087585981

          --------------------------------------------------------
          NORMAL COORDINATE ANALYSIS IN THE HARMONIC APPROXIMATION
          --------------------------------------------------------

          ATOMIC WEIGHTS (AMU)

    1     C                12.00000
    2     H                 1.00782
    3     H                 1.00782
    4     H                 1.00782
    5     H                 1.00782

 MODES 1 TO 6 ARE TAKEN AS ROTATIONS AND TRANSLATIONS.

 ANALYZING SYMMETRY OF NORMAL MODES...

     FREQUENCIES IN CM**-1, IR INTENSITIES IN DEBYE**2/AMU-ANGSTROM**2,
     REDUCED MASSES IN AMU.

                          1           2           3           4           5
       FREQUENCY:         0.32        0.31        0.00        5.53        6.79  
        SYMMETRY:         A           A           A           A           A   
    REDUCED MASS:      3.19107     3.19164     3.20626     1.00783     1.00933
    IR INTENSITY:      0.00000     0.00000     0.00000     0.00000     0.00000

  1   C            X -0.00013673  0.24949343  0.00000046  0.00013934  0.00001912
                   Y  0.24948320  0.00013675 -0.00000037 -0.00017520  0.01166307
                   Z  0.00000037 -0.00000046  0.24975582  0.00000000  0.00000003
  2   H            X -0.00026324  0.26572597  0.00000046 -0.50066323 -0.00552007
                   Y  0.23303647  0.00012790 -0.00000014 -0.00368093  0.36343819
                   Z  0.02326014  0.00001205  0.24975585  0.00495817 -0.49748530
  3   H            X -0.00002826  0.26553229  0.00000046  0.49536567  0.00440513
                   Y  0.23303645  0.00012791 -0.00000060 -0.00368094  0.36343847
                   Z -0.02325940 -0.00001297  0.24975585 -0.00495817  0.49748537
  4   H            X -0.00012772  0.23335837  0.00000023  0.00292736  0.00059578
                   Y  0.26604803  0.00004875 -0.00000037  0.50134554 -0.33515259
                   Z  0.00001312 -0.02281956  0.24975585  0.00394315  0.00081537
  5   H            X -0.00012771  0.23335835  0.00000069  0.00292737  0.00059562
                   Y  0.26581305  0.00024243 -0.00000037 -0.49468424 -0.34507792
                   Z -0.00001238  0.02281865  0.24975585 -0.00394315 -0.00081547

 TRANS. SAYVETZ    X -0.00219197  3.99970535  0.00000733  0.00223365  0.00030646
                   Y  3.99954125  0.00219224 -0.00000594 -0.00280850  0.18696794
                   Z  0.00000594 -0.00000732  4.00391059 -0.00000001  0.00000029
               TOTAL  3.99954185  3.99970595  4.00391059  0.00358843  0.18696819

   ROT. SAYVETZ    X -0.15678194 -0.00008430 -0.00000001 -0.03341935  3.35330562
                   Y  0.00008594 -0.15381148  0.00000000  0.02657773  0.00549631
                   Z -0.00079191  0.00065275  0.00000000 -3.35686673 -0.03345102
               TOTAL  0.15678396  0.15381289  0.00000001  3.35713828  3.35347696

                          6           7           8           9          10
       FREQUENCY:         6.85     1487.95     1487.95     1487.95     1702.60  
        SYMMETRY:         A           A           A           A           A   
    REDUCED MASS:      1.00928     1.17814     1.17814     1.17814     1.00783
    IR INTENSITY:      0.00000     0.24325     0.24325     0.24324     0.00000

  1   C            X -0.01144256  0.00144225 -0.11233368 -0.02303716 -0.00000008
                   Y  0.00001785 -0.11430261 -0.00325525  0.00871725 -0.00000009
                   Z  0.00000003 -0.00919279  0.02285160 -0.11200415  0.00000000
  2   H            X  0.33639666 -0.00699648  0.54489924  0.11174694  0.49805577
                   Y  0.00056651  0.10167744  0.06415198 -0.30645348  0.00019053
                   Z -0.00077611 -0.27556984 -0.07664942  0.35650548 -0.00026979
  3   H            X  0.34431587 -0.00699543  0.54490003  0.11174701 -0.49805476
                   Y  0.00056669  0.15040438 -0.05697292  0.28722864 -0.00019054
                   Z  0.00077599  0.33029832 -0.05939472  0.31029885 -0.00026911
  4   H            X -0.36323763  0.02277275  0.06330576  0.32224504  0.00019053
                   Y  0.00342864  0.55444913  0.01578981 -0.04228502  0.49805540
                   Z -0.49751554  0.02354189  0.22969328  0.39446069  0.00026975
  5   H            X -0.36323795 -0.02595346  0.18443229 -0.27143954 -0.00019054
                   Y -0.00449045  0.55445000  0.01579075 -0.04228490 -0.49805426
                   Z  0.49751560  0.03118662 -0.36573938  0.27235020  0.00026915

 TRANS. SAYVETZ    X -0.18343181  0.00000001 -0.00000064 -0.00000013  0.00000000
                   Y  0.00028612 -0.00000065 -0.00000002  0.00000005  0.00000000
                   Z  0.00000033  0.00000008 -0.00000019  0.00000093  0.00000000
               TOTAL  0.18343203  0.00000065  0.00000067  0.00000094  0.00000000

   ROT. SAYVETZ    X  0.00523097  0.00001326  0.00000056 -0.00000190  0.00000018
                   Y -3.35350645  0.00000000  0.00000638  0.00000236  0.00000015
                   Z -0.02668984 -0.00000104  0.00000086  0.00000026 -0.00000103
               TOTAL  3.35361674  0.00001330  0.00000646  0.00000304  0.00000105

                         11          12          13          14          15
       FREQUENCY:      1702.60     3197.20     3301.71     3301.71     3301.71  
        SYMMETRY:         A           A           A           A           A   
    REDUCED MASS:      1.00783     1.00783     1.10239     1.10239     1.10239
    IR INTENSITY:      0.00000     0.00000     0.94237     0.94236     0.94236

  1   C            X  0.00000005 -0.00000030  0.00341396 -0.02419222 -0.08489301
                   Y  0.00000005 -0.00000026 -0.08524462 -0.02296432  0.00311611
                   Z -0.00000035 -0.00000100 -0.02292192  0.08179919 -0.02423241
  2   H            X  0.00032974  0.00000010  0.00062026 -0.00439353 -0.01541683
                   Y -0.28755355  0.40666558  0.62535582 -0.22446770  0.08911463
                   Z  0.40666156  0.28755614  0.44897737 -0.14091926  0.05821294
  3   H            X -0.00033028  0.00000010  0.00061982 -0.00439363 -0.01541677
                   Y  0.28755346 -0.40666264  0.42059751  0.50624009 -0.12734929
                   Z  0.40666108  0.28755419 -0.31251672 -0.34606054  0.08604929
  4   H            X -0.28755083  0.40665835 -0.12332806  0.51378034  0.41258266
                   Y  0.00032977  0.00000009 -0.01548097 -0.00417024  0.00056604
                   Z -0.40665954 -0.28755037  0.08348164 -0.35154847 -0.30704052
  5   H            X  0.28755073 -0.40665496  0.08143859 -0.21694104  0.62905583
                   Y -0.00033025  0.00000009 -0.01548090 -0.00417033  0.00056567
                   Z -0.40665899 -0.28754813  0.05298469 -0.13543920  0.45130907

 TRANS. SAYVETZ    X  0.00000000 -0.00000001  0.00000007 -0.00000048 -0.00000170
                   Y  0.00000000 -0.00000001 -0.00000170 -0.00000046  0.00000006
                   Z  0.00000000 -0.00000002 -0.00000042  0.00000149 -0.00000044
               TOTAL  0.00000000  0.00000002  0.00000175  0.00000163  0.00000175

   ROT. SAYVETZ    X  0.00000026  0.00000001  0.00000347  0.00000112 -0.00000018
                   Y  0.00000031  0.00000001 -0.00000003  0.00000042  0.00000223
                   Z  0.00000000  0.00000000 -0.00000022  0.00000000  0.00000019
               TOTAL  0.00000040  0.00000001  0.00000347  0.00000120  0.00000225

 REFERENCE ON SAYVETZ CONDITIONS - A. SAYVETZ, J.CHEM.PHYS., 7, 383-389(1939).

 NOTE - THE MODES J,K ARE ORTHONORMALIZED ACCORDING TO
 SUM ON I   M(I) * (X(I,J)*X(I,K) + Y(I,J)*Y(I,K) + Z(I,J)*Z(I,K)) = DELTA(J,K)

  MODE FREQ(CM**-1)  SYMMETRY  RED. MASS  IR INTENS.
     1       0.317    A        3.191074    0.000000
     2       0.314    A        3.191641    0.000000
     3       0.002    A        3.206260    0.000000
     4       5.528    A        1.007826    0.000000
     5       6.786    A        1.009334    0.000000
     6       6.851    A        1.009278    0.000000
     7    1487.948    A        1.178144    0.243252
     8    1487.950    A        1.178144    0.243248
     9    1487.952    A        1.178143    0.243238
    10    1702.598    A        1.007825    0.000000
    11    1702.599    A        1.007825    0.000000
    12    3197.196    A        1.007825    0.000000
    13    3301.708    A        1.102388    0.942372
    14    3301.710    A        1.102388    0.942364
    15    3301.712    A        1.102388    0.942358

     -------------------------------
     THERMOCHEMISTRY AT T=  298.15 K
     -------------------------------

[...]
   75  H  5  Y    0.656331   0.277744   0.691686  -0.219467   0.000004
   76  H  5  Z    0.207652  -0.020789   0.199338   0.601935  -0.439017
   77  H  5  X    0.126064  -0.005662   0.054287   0.163928   0.553355
   78  H  5  Y   -0.423848  -0.106971  -0.266398   0.084525  -0.000003
   79  H  5  Z   -0.142738   0.008007  -0.076773  -0.231828   0.391274

                     71         72         73         74
                    6.0589     6.0589     6.0589    25.4681
                     A          A          A          A   
    1  C  1  S    0.000001  -0.000001  -0.000001  -2.043669
    2  C  1  S    0.000001  -0.000001  -0.000001   2.268022
    3  C  1  X    0.564638   0.289377   0.017929   0.000000
    4  C  1  Y   -0.036515   0.109913  -0.624061   0.000000
    5  C  1  Z    0.287625  -0.554124  -0.114422   0.000000
    6  C  1  S    0.000000   0.000000   0.000000  -0.825566
    7  C  1  X   -1.983505  -1.016542  -0.062981   0.000000
    8  C  1  Y    0.128272  -0.386110   2.192228   0.000000
    9  C  1  Z   -1.010389   1.946560   0.401947   0.000001
   10  C  1  S    0.000033  -0.000031  -0.000020  -1.109717
   11  C  1  X   -0.779975  -0.399735  -0.024766   0.000001
   12  C  1  Y    0.050440  -0.151830   0.862050   0.000001
   13  C  1  Z   -0.397318   0.765451   0.158059   0.000003
   14  C  1  S    0.000010  -0.000009  -0.000006   0.294761
   15  C  1  X    0.200290   0.102648   0.006360   0.000000
   16  C  1  Y   -0.012953   0.038988  -0.221363   0.000000
   17  C  1  Z    0.102028  -0.196560  -0.040587  -0.000001
   18  C  1 XX   -0.325272   0.626659   0.129401  -0.000001
   19  C  1 YY    0.325269  -0.626648  -0.129400   0.000001
   20  C  1 ZZ    0.000003  -0.000010  -0.000001   0.000000
   21  C  1 XY    0.000002   0.000002  -0.000003   0.000000
   22  C  1 XZ   -0.737324  -0.377880  -0.023413  -0.000001
   23  C  1 YZ   -0.047682   0.143529  -0.814933   0.000000
   24  C  1 XX   -0.454073   0.874805   0.180640  -0.000005
   25  C  1 YY    0.454064  -0.874778  -0.180639   0.000007
   26  C  1 ZZ    0.000009  -0.000027  -0.000001  -0.000001
   27  C  1 XY    0.000005   0.000004  -0.000007   0.000000
   28  C  1 XZ   -1.029283  -0.527510  -0.032683  -0.000002
   29  C  1 YZ   -0.066563   0.200363  -1.137623   0.000002
   30  C  1 XXX  -0.163848  -0.083979  -0.005204   0.000000
   31  C  1 YYY   0.010592  -0.031885   0.181066   0.000000
   32  C  1 ZZZ   0.333832  -0.643153  -0.132809   0.000002
   33  C  1 XXY  -0.042643   0.128363  -0.728845   0.000001
   34  C  1 XXZ  -0.223947   0.431446   0.089095  -0.167929
   35  C  1 YYX   0.659435   0.337967   0.020940   0.000001
   36  C  1 YYZ  -0.223935   0.431434   0.089087   0.167926
   37  C  1 ZZX  -0.439610  -0.225297  -0.013958  -0.000001
   38  C  1 ZZY   0.028433  -0.085585   0.485920   0.000000
   39  C  1 XYZ   0.000005   0.000001   0.000006   0.000000
   40  H  2  S   -0.145647   0.246069   0.615363   0.028489
   41  H  2  S   -0.459395   0.776113   1.940782   0.452401
   42  H  2  S    0.046120  -0.077922  -0.194876   0.054758
   43  H  2  S    0.036800  -0.062171  -0.155463  -0.057093
   44  H  2  X   -0.170624  -0.087445  -0.005415   0.000000
   45  H  2  Y   -0.170139   0.272871   0.954025   0.093014
   46  H  2  Z   -0.215027   0.383891   0.575831   0.065772
   47  H  2  X    0.096909   0.049668   0.003078   0.000000
   48  H  2  Y   -0.066702   0.120963   0.148177   0.144704
   49  H  2  Z    0.006633  -0.022918   0.160883   0.102322
   50  H  3  S   -0.209392   0.437952  -0.474121   0.028489
   51  H  3  S   -0.660446   1.381296  -1.495288   0.452404
   52  H  3  S    0.066307  -0.138689   0.150152   0.054758
   53  H  3  S    0.052906  -0.110650   0.119779  -0.057092
   54  H  3  X   -0.170622  -0.087443  -0.005420   0.000000
   55  H  3  Y    0.271500  -0.577980   0.778332  -0.093014
   56  H  3  Z   -0.271097   0.552667  -0.382442   0.065773
   57  H  3  X    0.096906   0.049666   0.003077   0.000000
   58  H  3  Y    0.080614  -0.162838   0.089571  -0.144705
   59  H  3  Z   -0.012069   0.033375  -0.158722   0.102322
   60  H  4  S   -0.315326  -0.594617  -0.086280   0.028490
   61  H  4  S   -0.994555  -1.875343  -0.272094   0.452408
   62  H  4  S    0.099855   0.188310   0.027326   0.054758
   63  H  4  S    0.079670   0.150229   0.021797  -0.057092
   64  H  4  X   -0.562863  -0.827087  -0.112738   0.093016
   65  H  4  Y    0.011032  -0.033216   0.188585   0.000000
   66  H  4  Z    0.190439   0.690444   0.110463  -0.065771
   67  H  4  X   -0.033926  -0.197016  -0.032711   0.144707
   68  H  4  Y   -0.006267   0.018864  -0.107111   0.000000
   69  H  4  Z    0.141873   0.079324   0.005667  -0.102322
   70  H  5  S    0.670393  -0.089432  -0.054979   0.028491
   71  H  5  S    2.114358  -0.282030  -0.173377   0.452411
   72  H  5  S   -0.212307   0.028325   0.017414   0.054758
   73  H  5  S   -0.169379   0.022595   0.013889  -0.057092
   74  H  5  X   -1.004525   0.023797   0.062968  -0.093016
   75  H  5  Y    0.011036  -0.033213   0.188582   0.000000
   76  H  5  Z   -0.676568   0.246103   0.082933  -0.065772
   77  H  5  X   -0.181218   0.086757   0.025880  -0.144708
   78  H  5  Y   -0.006266   0.018863  -0.107107   0.000000
   79  H  5  Z   -0.147297  -0.068871  -0.003515  -0.102323
 ...... END OF RHF CALCULATION ......
 STEP CPU TIME =     1.07 TOTAL CPU TIME =        3.2 (    0.1 MIN)
 TOTAL WALL CLOCK TIME=       12.1 SECONDS, CPU UTILIZATION IS  26.22%

     ----------------------------------------------------------------
     PROPERTY VALUES FOR THE RHF   SELF-CONSISTENT FIELD WAVEFUNCTION
     ----------------------------------------------------------------

          -----------------
          ENERGY COMPONENTS
          -----------------

         WAVEFUNCTION NORMALIZATION =       1.0000000000

                ONE ELECTRON ENERGY =     -79.7392887873
                TWO ELECTRON ENERGY =      26.0872660319
           NUCLEAR REPULSION ENERGY =      13.4398194935
                                      ------------------
                       TOTAL ENERGY =     -40.2122032619

 ELECTRON-ELECTRON POTENTIAL ENERGY =      26.0872660319
  NUCLEUS-ELECTRON POTENTIAL ENERGY =    -119.9057991028
   NUCLEUS-NUCLEUS POTENTIAL ENERGY =      13.4398194935
                                      ------------------
             TOTAL POTENTIAL ENERGY =     -80.3787135774
               TOTAL KINETIC ENERGY =      40.1665103155
                 VIRIAL RATIO (V/T) =       2.0011375882

          ---------------------------------------
          MULLIKEN AND LOWDIN POPULATION ANALYSES
          ---------------------------------------

     ATOMIC MULLIKEN POPULATION IN EACH MOLECULAR ORBITAL

                      1          2          3          4          5

                  2.000000   2.000000   2.000000   2.000000   2.000000

    1             2.001170   1.142708   1.021090   1.021091   1.021092
    2            -0.000293   0.214323   0.032584   0.100107   0.601492
    3            -0.000293   0.214323   0.058974   0.334035   0.341174
    4            -0.000293   0.214323   0.203133   0.508813   0.022235
    5            -0.000293   0.214323   0.684219   0.035954   0.014008

               ----- POPULATIONS IN EACH AO -----
                             MULLIKEN      LOWDIN
              1  C  1  S      1.10312     1.04348
              2  C  1  S      0.89106     0.90066
              3  C  1  X      0.20221     0.17970
              4  C  1  Y      0.20221     0.17970
              5  C  1  Z      0.20221     0.17951
              6  C  1  S      0.69857     0.24731
              7  C  1  X      0.50128     0.29239
              8  C  1  Y      0.50128     0.29239
              9  C  1  Z      0.50128     0.28939
             10  C  1  S      0.45697     0.18572
             11  C  1  X      0.30607     0.29121
             12  C  1  Y      0.30608     0.29122
             13  C  1  Z      0.30607     0.28935
             14  C  1  S     -0.00769     0.03896
             15  C  1  X     -0.00478     0.04653
             16  C  1  Y     -0.00478     0.04653
             17  C  1  Z     -0.00478     0.04638
             18  C  1 XX      0.00000     0.09776
             19  C  1 YY      0.00480     0.09776
             20  C  1 ZZ      0.00000     0.09434
             21  C  1 XY      0.00480     0.00000
             22  C  1 XZ      0.00480     0.00712
             23  C  1 YZ      0.00000     0.00712
             24  C  1 XX      0.00000     0.10893
             25  C  1 YY      0.01151     0.10893
             26  C  1 ZZ      0.00000     0.08634
             27  C  1 XY      0.01151     0.00000
             28  C  1 XZ      0.01151     0.05337
             29  C  1 YZ      0.00000     0.05337
             30  C  1 XXX     0.00000     0.19330
             31  C  1 YYY     0.00185     0.19330
             32  C  1 ZZZ     0.00000     0.16412
             33  C  1 XXY     0.00000     0.06399
             34  C  1 XXZ     0.00000     0.10623
             35  C  1 YYX     0.00000     0.06399
             36  C  1 YYZ     0.00000     0.10623
             37  C  1 ZZX     0.00000     0.10489
             38  C  1 ZZY     0.00000     0.10489
             39  C  1 XYZ     0.00000     0.00000
             40  H  2  S      0.26637     0.22761
             41  H  2  S      0.52288     0.34136
             42  H  2  S      0.11396     0.13567
             43  H  2  S      0.00822     0.02426
             44  H  2  X      0.00089     0.00105
             45  H  2  Y      0.00412     0.00404
             46  H  2  Z      0.00250     0.00301
             47  H  2  X      0.00745     0.02832
             48  H  2  Y      0.01208     0.03750
             49  H  2  Z      0.00976     0.03306
             50  H  3  S      0.26637     0.22761
             51  H  3  S      0.52288     0.34136
             52  H  3  S      0.11396     0.13567
             53  H  3  S      0.00822     0.02426
             54  H  3  X      0.00089     0.00105
             55  H  3  Y      0.00412     0.00404
             56  H  3  Z      0.00250     0.00301
             57  H  3  X      0.00745     0.02832
             58  H  3  Y      0.01208     0.03750
             59  H  3  Z      0.00976     0.03306
             60  H  4  S      0.26637     0.22761
             61  H  4  S      0.52288     0.34136
             62  H  4  S      0.11396     0.13567
             63  H  4  S      0.00822     0.02426
             64  H  4  X      0.00412     0.00404
             65  H  4  Y      0.00089     0.00105
             66  H  4  Z      0.00250     0.00301
             67  H  4  X      0.01208     0.03750
             68  H  4  Y      0.00745     0.02832
             69  H  4  Z      0.00976     0.03306
             70  H  5  S      0.26637     0.22761
             71  H  5  S      0.52288     0.34136
             72  H  5  S      0.11396     0.13567
             73  H  5  S      0.00822     0.02426
             74  H  5  X      0.00412     0.00404
             75  H  5  Y      0.00089     0.00105
             76  H  5  Z      0.00250     0.00301
             77  H  5  X      0.01208     0.03750
             78  H  5  Y      0.00745     0.02832
             79  H  5  Z      0.00976     0.03306

          ----- MULLIKEN ATOMIC OVERLAP POPULATIONS -----
          (OFF-DIAGONAL ELEMENTS NEED TO BE MULTIPLIED BY 2)

             1           2           3           4           5

    1    4.5504591
    2    0.4141725   0.6212639
    3    0.4141726  -0.0290751   0.6212628
    4    0.4141732  -0.0290745  -0.0290741   0.6212610
    5    0.4141733  -0.0290741  -0.0290737  -0.0290735   0.6212598

          TOTAL MULLIKEN AND LOWDIN ATOMIC POPULATIONS
       ATOM         MULL.POP.    CHARGE          LOW.POP.     CHARGE
    1 C             6.207151   -0.207151         6.656413   -0.656413
    2 H             0.948213    0.051787         0.835897    0.164103
    3 H             0.948213    0.051787         0.835897    0.164103
    4 H             0.948212    0.051788         0.835897    0.164103
    5 H             0.948212    0.051788         0.835896    0.164104

          MULLIKEN SPHERICAL HARMONIC POPULATIONS
       ATOM           S       P       D      F      G      H      I    TOTAL
    1 C             3.14    3.01    0.05   0.00   0.00   0.00   0.00    6.21
    2 H             0.91    0.04    0.00   0.00   0.00   0.00   0.00    0.95
    3 H             0.91    0.04    0.00   0.00   0.00   0.00   0.00    0.95
    4 H             0.91    0.04    0.00   0.00   0.00   0.00   0.00    0.95
    5 H             0.91    0.04    0.00   0.00   0.00   0.00   0.00    0.95

          -------------------------------
          BOND ORDER AND VALENCE ANALYSIS     BOND ORDER THRESHOLD=0.050
          -------------------------------

                   BOND                       BOND                       BOND
  ATOM PAIR DIST  ORDER      ATOM PAIR DIST  ORDER      ATOM PAIR DIST  ORDER
    1   2  1.090  0.994        1   3  1.090  0.994        1   4  1.090  0.994
    1   5  1.090  0.994

                       TOTAL       BONDED        FREE
      ATOM            VALENCE     VALENCE     VALENCE
    1 C                 3.977       3.977       0.000
    2 H                 0.990       0.990       0.000
    3 H                 0.990       0.990       0.000
    4 H                 0.990       0.990       0.000
    5 H                 0.990       0.990       0.000

          ---------------------
          ELECTROSTATIC MOMENTS
          ---------------------

 POINT   1           X           Y           Z (BOHR)    CHARGE
                 0.000002    0.000002    0.000007        0.00 (A.U.)
         DX          DY          DZ         /D/  (DEBYE)
    -0.000002   -0.000001   -0.000005    0.000006
 ...... END OF PROPERTY EVALUATION ......
 STEP CPU TIME =     0.02 TOTAL CPU TIME =        3.2 (    0.1 MIN)
 TOTAL WALL CLOCK TIME=       12.1 SECONDS, CPU UTILIZATION IS  26.26%

 --------------------------   -----------------------------
 RHF-MP2 ENERGY CALCULATION   PROGRAM WRITTEN BY K.ISHIMURA
 --------------------------   -----------------------------
 NUMBER OF OCCUPIED ORBITALS            =    5
 NUMBER OF CORRELATED OCCUPIED ORBITALS =    4
 NUMBER OF VIRTUAL ORBITALS             =   69
 NUMBER OF BASIS FUNCTIONS              =   79
 NUMBER OF BASIS SHELLS                 =   32
 AO-TRANSFORMED INTEGRAL THRESHOLD      = 1.00E-09
 HALF-TRANSFORMED INTEGRAL THRESHOLD    = 4.05E-12
 TOTAL DISK REQUIRED (ALL PROCESSORS)=              0 MBYTES
                  DISK SPACE PER CORE=              0 MBYTES, USING P=    1
 MEMORY REQUIRED FOR TRANSFORMATION OF 1ST THREE INDICES=      200832
 MEMORY REQUIRED FOR    4TH INDEX TRANSF. AND MP2 ENERGY=       82578
 BEGINNING MP2 INTEGRAL TRANSFORMATION...
 BEGINNING    1ST SHELL LOOP...
 BEGINNING   26TH SHELL LOOP...

 RESULTS OF MOLLER-PLESSET 2ND ORDER CORRECTION ARE
               E(0)=       -40.2122032619
               E(1)=         0.0
               E(2)=        -0.1920449502
             E(MP2)=       -40.4042482121
 SPIN-COMPONENT-SCALED MP2 RESULTS ARE
              E(2S)=        -0.1562535877
              E(2T)=        -0.0357913624
             E(2ST)=        -0.1994347594 = 6/5 * E(2S) + 1/3 * E(2T)
            SCS-MP2=       -40.4116380213
 ..... DONE WITH MP2 ENERGY .....
 STEP CPU TIME =     1.77 TOTAL CPU TIME =        5.0 (    0.1 MIN)
 TOTAL WALL CLOCK TIME=       14.0 SECONDS, CPU UTILIZATION IS  35.50%
 STEP CPU TIME =     0.00 TOTAL CPU TIME =        5.0 (    0.1 MIN)
 TOTAL WALL CLOCK TIME=       14.0 SECONDS, CPU UTILIZATION IS  35.50%

    ----------------------------------------------------------------
        DETAILS OF G3(MP2) CALCULATIONS
    ----------------------------------------------------------------
    E(G3(MP2))@0K   = E(CCSD(T))   + DE(BASIS)   + ZPE(SCALED) + HLC
    E(G3(MP2))@298K = E(G3(MP2))@0K + (E(THERMAL) - ZPE)
    H(G3(MP2))      = E(G3(MP2))@298K + KT
    G(G3(MP2))      = H(G3(MP2)) - TDS

        E(CCSD(T))      = CCSD(T)/6-31G(D)//MP2/6-31G(D) FROZEN CORE
        DE(BASIS)       = E(MP2/G3MP2LARGE) - E(MP2/6-31G(D)) FROZEN CORE
        GEOMETRY MP2/6-31G(D) CORE CORRELATION INCLUDED
        ZPE AND OTHER THERMAL CALCULATIONS AT HF/6-31G(D)
        HLCS USED ARE:  A = 0.009170     B = 0.004455 HARTREE

    ----------------------------------------------------------------
                   SUMMARY OF G3(MP2) CALCULATIONS
    ----------------------------------------------------------------
    MP2/6-31G(D)    =   -40.332552   CCSD(T)/6-31G(D) =   -40.355850
    MP2/G3MP2LARGE  =   -40.404248   BASIS CONTRIBUT  =    -0.071696
    ZPE(HF/6-31G(D))=     0.042659   ZPE SCALE FACTOR =     0.892900
    HLC             =    -0.036680   FREE ENERGY      =     0.028134
    THERMAL ENERGY  =     0.050629   THERMAL ENTHALPY =     0.051573
    ----------------------------------------------------------------
    E(G3(MP2)) @ 0K =   -40.421567   E(G3(MP2)) @298K =   -40.418715
    H(G3(MP2))      =   -40.417771   G(G3(MP2))       =   -40.441209
    ----------------------------------------------------------------

    ----------------------------------------------------------------
          HEAT OF FORMATION   (0K):     -16.01 KCAL/MOL
          HEAT OF FORMATION (298K):     -17.83 KCAL/MOL
    ----------------------------------------------------------------
          HEATS OF FORMATIONS BASED ON NIST DATABASE FROM 
          COMPUTATIONAL CHEMISTRY COMPARISON AND BENCHMARK DATABASE
    ----------------------------------------------------------------

 STEP CPU TIME =     0.00 TOTAL CPU TIME =        5.0 (    0.1 MIN)
 TOTAL WALL CLOCK TIME=       14.0 SECONDS, CPU UTILIZATION IS  35.48%
               988691  WORDS OF DYNAMIC MEMORY USED
 EXECUTION OF GAMESS TERMINATED NORMALLY Tue Jan 27 18:44:18 2015
 DDI: 263624 bytes (0.3 MB / 0 MWords) used by master data server.

 ----------------------------------------
 CPU timing information for all processes
 ========================================
 0: 4.103 + 0.864 = 4.968
 ----------------------------------------
 ddikick.x: exited gracefully.
----- accounting info -----
Files used on the master node cl200 were:
-rw-r--r--  1 ostueker rpoirier    89717 Jan 27 18:44 /globalscratch/ostueker/gamess/methane_GAMESS_G3MP2_1may2013.dat
-rw-r--r--  1 ostueker rpoirier      363 Jan 27 18:44 /globalscratch/ostueker/gamess/methane_GAMESS_G3MP2_1may2013.F05
-rw-r--r--  1 ostueker rpoirier 54367248 Jan 27 18:44 /globalscratch/ostueker/gamess/methane_GAMESS_G3MP2_1may2013.F08
-rw-r--r--  1 ostueker rpoirier   542112 Jan 27 18:44 /globalscratch/ostueker/gamess/methane_GAMESS_G3MP2_1may2013.F09
-rw-r--r--  1 ostueker rpoirier  1595840 Jan 27 18:44 /globalscratch/ostueker/gamess/methane_GAMESS_G3MP2_1may2013.F10
-rw-r--r--  1 ostueker rpoirier    33360 Jan 27 18:44 /globalscratch/ostueker/gamess/methane_GAMESS_G3MP2_1may2013.F18
-rw-r--r--  1 ostueker rpoirier   342016 Jan 27 18:44 /globalscratch/ostueker/gamess/methane_GAMESS_G3MP2_1may2013.F70
-rw-r--r--  1 ostueker rpoirier   420480 Jan 27 18:44 /globalscratch/ostueker/gamess/methane_GAMESS_G3MP2_1may2013.F71
-rw-r--r--  1 ostueker rpoirier  2706624 Jan 27 18:44 /globalscratch/ostueker/gamess/methane_GAMESS_G3MP2_1may2013.F72
-rw-r--r--  1 ostueker rpoirier     2304 Jan 27 18:44 /globalscratch/ostueker/gamess/methane_GAMESS_G3MP2_1may2013.F73
-rw-r--r--  1 ostueker rpoirier    82944 Jan 27 18:44 /globalscratch/ostueker/gamess/methane_GAMESS_G3MP2_1may2013.F74
-rw-r--r--  1 ostueker rpoirier        0 Jan 27 18:44 /globalscratch/ostueker/gamess/methane_GAMESS_G3MP2_1may2013.F75
-rw-r--r--  1 ostueker rpoirier        0 Jan 27 18:44 /globalscratch/ostueker/gamess/methane_GAMESS_G3MP2_1may2013.F76
-rw-r--r--  1 ostueker rpoirier        0 Jan 27 18:44 /globalscratch/ostueker/gamess/methane_GAMESS_G3MP2_1may2013.F77
Tue Jan 27 18:44:23 NST 2015
0.150u 0.150s 0:20.41 1.4%	0+0k 8+0io 0pf+0w
