<?xml version="1.0" encoding="UTF-8"?>
<module cmlx:templateRef="gaussian.log" xmlns="http://www.xml-cml.org/schema" xmlns:cmlx="http://www.xml-cml.org/schema/cmlx"> Entering Gaussian System, Link 0=/usr/local/Gaussian/g03/g03 Initial command: /usr/local/Gaussian/g03/l1.exe /export/scratch//webmo/3297/Gau-2178.inp -scrdir=/export/scratch//webmo/3297/ Entering Link 1 = /usr/local/Gaussian/g03/l1.exe PID=      2182.  <module cmlx:lineCount="60" cmlx:templateRef="l1.legal"><scalar dataType="xsd:string" dictRef="g:l1.legal">Copyright (c) 1988,1990,1992,1993,1995,1998,2003, Gaussian, Inc.</scalar></module>  <module cmlx:lineCount="20" cmlx:templateRef="l1.citation"><list cmlx:templateRef="citation"><scalar dataType="xsd:string" dictRef="g:l1.citation">Cite this work as:</scalar></list></module> <module cmlx:lineCount="25" cmlx:templateRef="l1.end"><scalar dataType="xsd:string" dictRef="cc:run.date">21-Aug-2006</scalar><scalar dataType="xsd:string" dictRef="cc:program">Gaussian 03</scalar><scalar dataType="xsd:string" dictRef="cc:version">Sun64-SVR4-Unix-G03RevB.04</scalar><scalar dataType="xsd:string" dictRef="cc:program.date">2-Jun-2003</scalar><list cmlx:templateRef="control"><scalar dataType="xsd:string" dictRef="g:control">1/14=-1,18=20,26=3,38=1/1,3</scalar><scalar dataType="xsd:string" dictRef="g:control">2/9=110,17=6,18=5,40=1/2</scalar><scalar dataType="xsd:string" dictRef="g:control">3/5=4,6=6,7=111,11=2,16=1,25=1,30=1,74=-5/1,2,3</scalar><scalar dataType="xsd:string" dictRef="g:control">4//1</scalar><scalar dataType="xsd:string" dictRef="g:control">5/5=2,38=5/2</scalar><scalar dataType="xsd:string" dictRef="g:control">6/7=2,8=2,9=2,10=2,28=1/1</scalar><scalar dataType="xsd:string" dictRef="g:control">7//1,2,3,16</scalar><scalar dataType="xsd:string" dictRef="g:control">1/14=-1,18=20/3(1)</scalar><scalar dataType="xsd:string" dictRef="g:control">99//99</scalar><scalar dataType="xsd:string" dictRef="g:control">2/9=110/2</scalar><scalar dataType="xsd:string" dictRef="g:control">3/5=4,6=6,7=111,11=2,16=1,25=1,30=1,74=-5/1,2,3</scalar><scalar dataType="xsd:string" dictRef="g:control">4/5=5,16=3/1</scalar><scalar dataType="xsd:string" dictRef="g:control">5/5=2,38=5/2</scalar><scalar dataType="xsd:string" dictRef="g:control">7//1,2,3,16</scalar><scalar dataType="xsd:string" dictRef="g:control">1/14=-1,18=20/3(-5)</scalar><scalar dataType="xsd:string" dictRef="g:control">2/9=110/2</scalar><scalar dataType="xsd:string" dictRef="g:control">6/7=2,8=2,9=2,10=2,19=2,28=1/1</scalar><scalar dataType="xsd:string" dictRef="g:control">99/9=1/99</scalar></list></module><module cmlx:lineCount="3" cmlx:templateRef="l101.title"><scalar dataType="xsd:string" dictRef="cc:title" cmlx:templateRef="title">aniline basis2</scalar></module><module cmlx:lineCount="54" cmlx:templateRef="l101"><list cmlx:templateRef="rest"><scalar dataType="xsd:string" dictRef="x:l101"/></list></module>                    Isotopes and Nuclear Properties:<module cmlx:lineCount="8" cmlx:templateRef="l101.isotope">  Atom         1           2           3           4           5           6           7           8           9          10 IAtWgt=          12          12          12          12          12          12           1          14           1           1 AtmWgt=  12.0000000  12.0000000  12.0000000  12.0000000  12.0000000  12.0000000   1.0078250  14.0030740   1.0078250   1.0078250 IAtSpn=           0           0           0           0           0           0           1           2           1           1 AtZEff=   0.0000000   0.0000000   0.0000000   0.0000000   0.0000000   0.0000000   0.0000000   0.0000000   0.0000000   0.0000000 AtQMom=   0.0000000   0.0000000   0.0000000   0.0000000   0.0000000   0.0000000   0.0000000   1.5600000   0.0000000   0.0000000 AtGFac=   0.0000000   0.0000000   0.0000000   0.0000000   0.0000000   0.0000000   2.7928460   0.4037610   2.7928460   2.7928460</module><module cmlx:lineCount="8" cmlx:templateRef="l101.isotope">  Atom        11          12          13          14 IAtWgt=           1           1           1           1 AtmWgt=   1.0078250   1.0078250   1.0078250   1.0078250 IAtSpn=           1           1           1           1 AtZEff=   0.0000000   0.0000000   0.0000000   0.0000000 AtQMom=   0.0000000   0.0000000   0.0000000   0.0000000 AtGFac=   2.7928460   2.7928460   2.7928460   2.7928460</module><module cmlx:lineCount="76" cmlx:templateRef="l103"><list cmlx:templateRef="berny"><scalar dataType="xsd:string" dictRef="g:optimization">Initialization pass.</scalar></list><module cmlx:lineCount="69" cmlx:templateRef="l103.init"><list cmlx:templateRef="length"><array dataType="xsd:string" size="14" dictRef="g:symbol">R1 R2 R3 R4 R5 R6 R7 R8 R9 R10 R11 R12 R13 R14</array><array dataType="xsd:integer" size="14" dictRef="g:atom1">1 1 1 2 2 3 3 4 4 5 5 6 8 8</array><array dataType="xsd:integer" size="14" dictRef="g:atom2">2 6 7 3 8 4 9 5 10 6 11 12 13 14</array><array dataType="xsd:double" size="14" dictRef="cc:distance">1.4014 1.3879 1.0856 1.4014 1.3919 1.3879 1.0856 1.3915 1.0846 1.3915 1.0832 1.0846 1.0081 1.0081</array><array delimiter="|" dataType="xsd:string" size="14" dictRef="g:deriv">|estimate D2E/DX2|estimate D2E/DX2|estimate D2E/DX2|estimate D2E/DX2|estimate D2E/DX2|estimate D2E/DX2|estimate D2E/DX2|estimate D2E/DX2|estimate D2E/DX2|estimate D2E/DX2|estimate D2E/DX2|estimate D2E/DX2|estimate D2E/DX2|estimate D2E/DX2|</array></list><list cmlx:templateRef="angle"><array dataType="xsd:string" size="21" dictRef="g:symbol">A1 A2 A3 A4 A5 A6 A7 A8 A9 A10 A11 A12 A13 A14 A15 A16 A17 A18 A19 A20 A21</array><array dataType="xsd:integer" size="21" dictRef="g:atom1">2 2 6 1 1 3 2 2 4 3 3 5 4 4 6 1 1 5 2 2 13</array><array dataType="xsd:integer" size="21" dictRef="g:atom2">1 1 1 2 2 2 3 3 3 4 4 4 5 5 5 6 6 6 8 8 8</array><array dataType="xsd:integer" size="21" dictRef="g:atom3">6 7 7 3 8 8 4 9 9 5 10 10 6 11 11 5 12 12 13 14 14</array><array dataType="xsd:double" size="21" dictRef="cc:angle">120.5561 119.4334 120.0098 118.4103 120.7659 120.7663 120.5561 119.4336 120.0096 120.818 119.1829 119.9991 118.8415 120.5793 120.5792 120.8181 119.1829 119.999 115.8695 115.8696 112.5982</array><array delimiter="|" dataType="xsd:string" size="21" dictRef="g:deriv">|estimate D2E/DX2|estimate D2E/DX2|estimate D2E/DX2|estimate D2E/DX2|estimate D2E/DX2|estimate D2E/DX2|estimate D2E/DX2|estimate D2E/DX2|estimate D2E/DX2|estimate D2E/DX2|estimate D2E/DX2|estimate D2E/DX2|estimate D2E/DX2|estimate D2E/DX2|estimate D2E/DX2|estimate D2E/DX2|estimate D2E/DX2|estimate D2E/DX2|estimate D2E/DX2|estimate D2E/DX2|estimate D2E/DX2|</array></list><list cmlx:templateRef="dihed"><array dataType="xsd:string" size="27" dictRef="g:symbol">D1 D2 D3 D4 D5 D6 D7 D8 D9 D10 D11 D12 D13 D14 D15 D16 D17 D18 D19 D20 D21 D22 D23 D24 D25 D26 D27</array><array dataType="xsd:integer" size="27" dictRef="g:atom1">6 6 7 7 2 2 7 7 1 1 8 8 1 1 3 3 2 2 9 9 3 3 10 10 4 4 11</array><array dataType="xsd:integer" size="27" dictRef="g:atom2">1 1 1 1 1 1 1 1 2 2 2 2 2 2 2 2 3 3 3 3 4 4 4 4 5 5 5</array><array dataType="xsd:integer" size="27" dictRef="g:atom3">2 2 2 2 6 6 6 6 3 3 3 3 8 8 8 8 4 4 4 4 5 5 5 5 6 6 6</array><array dataType="xsd:integer" size="27" dictRef="g:atom4">3 8 3 8 5 12 5 12 4 9 4 9 13 14 13 14 5 10 5 10 6 11 6 11 1 12 1</array><array dataType="xsd:double" size="27" dictRef="cc:dihed">0.0024 177.2638 -179.6854 -2.424 0.0032 179.9393 179.6891 -0.3748 -0.0023 179.6859 -177.2637 2.4245 159.0133 23.7972 -23.7901 -159.0062 -0.0034 -179.9393 -179.6898 0.3743 0.0088 -179.9813 179.9442 -0.0459 -0.0087 -179.9443 179.9814</array><array delimiter="|" dataType="xsd:string" size="27" dictRef="g:deriv">|estimate D2E/DX2|estimate D2E/DX2|estimate D2E/DX2|estimate D2E/DX2|estimate D2E/DX2|estimate D2E/DX2|estimate D2E/DX2|estimate D2E/DX2|estimate D2E/DX2|estimate D2E/DX2|estimate D2E/DX2|estimate D2E/DX2|estimate D2E/DX2|estimate D2E/DX2|estimate D2E/DX2|estimate D2E/DX2|estimate D2E/DX2|estimate D2E/DX2|estimate D2E/DX2|estimate D2E/DX2|estimate D2E/DX2|estimate D2E/DX2|estimate D2E/DX2|estimate D2E/DX2|estimate D2E/DX2|estimate D2E/DX2|estimate D2E/DX2|</array></list> ! D28   D(11,5,6,12)            0.0458         estimate D2E/DX2                !</module> --------------------------------------------------------------------------------<module cmlx:lineCount="2" cmlx:templateRef="l103.trust"><scalar dataType="xsd:double" dictRef="g:trustrad">0.3</scalar><scalar dataType="xsd:double" dictRef="g:fncerr">1.0E-7</scalar><scalar dataType="xsd:double" dictRef="g:grderr">1.0E-6</scalar><scalar dataType="xsd:integer" dictRef="g:nstep">73</scalar><scalar dataType="xsd:integer" dictRef="g:allowedstep">100</scalar></module> GradGradGradGradGradGradGradGradGradGradGradGradGradGradGradGradGradGrad</module><module cmlx:lineCount="20" cmlx:templateRef="l202.orient"><molecule id="mol.l202.orient" cmlx:templateRef="atom"><atomArray><atom id="a1" elementType="C" x3="0.0" y3="0.0" z3="0.0"><scalar dataType="xsd:integer" dictRef="cc:serial">1</scalar><scalar dataType="xsd:integer" dictRef="g:atomicType">0</scalar><scalar dataType="xsd:integer" dictRef="compchem:atomicNumber">6</scalar></atom><atom id="a2" elementType="C" x3="0.0" y3="0.0" z3="1.401389"><scalar dataType="xsd:integer" dictRef="cc:serial">2</scalar><scalar dataType="xsd:integer" dictRef="g:atomicType">0</scalar><scalar dataType="xsd:integer" dictRef="compchem:atomicNumber">6</scalar></atom><atom id="a3" elementType="C" x3="1.23261" y3="0.0" z3="2.068144"><scalar dataType="xsd:integer" dictRef="cc:serial">3</scalar><scalar dataType="xsd:integer" dictRef="g:atomicType">0</scalar><scalar dataType="xsd:integer" dictRef="compchem:atomicNumber">6</scalar></atom><atom id="a4" elementType="C" x3="2.421834" y3="-4.8E-5" z3="1.352635"><scalar dataType="xsd:integer" dictRef="cc:serial">4</scalar><scalar dataType="xsd:integer" dictRef="g:atomicType">0</scalar><scalar dataType="xsd:integer" dictRef="compchem:atomicNumber">6</scalar></atom><atom id="a5" elementType="C" x3="2.416597" y3="-1.67E-4" z3="-0.038899"><scalar dataType="xsd:integer" dictRef="cc:serial">5</scalar><scalar dataType="xsd:integer" dictRef="g:atomicType">0</scalar><scalar dataType="xsd:integer" dictRef="compchem:atomicNumber">6</scalar></atom><atom id="a6" elementType="C" x3="1.195147" y3="-5.0E-5" z3="-0.705571"><scalar dataType="xsd:integer" dictRef="cc:serial">6</scalar><scalar dataType="xsd:integer" dictRef="g:atomicType">0</scalar><scalar dataType="xsd:integer" dictRef="compchem:atomicNumber">6</scalar></atom><atom id="a7" elementType="H" x3="-0.945425" y3="0.005192" z3="-0.533455"><scalar dataType="xsd:integer" dictRef="cc:serial">7</scalar><scalar dataType="xsd:integer" dictRef="g:atomicType">0</scalar><scalar dataType="xsd:integer" dictRef="compchem:atomicNumber">1</scalar></atom><atom id="a8" elementType="N" x3="-1.19465" y3="0.057145" z3="2.113393"><scalar dataType="xsd:integer" dictRef="cc:serial">8</scalar><scalar dataType="xsd:integer" dictRef="g:atomicType">0</scalar><scalar dataType="xsd:integer" dictRef="compchem:atomicNumber">7</scalar></atom><atom id="a9" elementType="H" x3="1.252004" y3="0.005183" z3="3.153513"><scalar dataType="xsd:integer" dictRef="cc:serial">9</scalar><scalar dataType="xsd:integer" dictRef="g:atomicType">0</scalar><scalar dataType="xsd:integer" dictRef="compchem:atomicNumber">1</scalar></atom><atom id="a10" elementType="H" x3="3.363144" y3="-0.00105" z3="1.891366"><scalar dataType="xsd:integer" dictRef="cc:serial">10</scalar><scalar dataType="xsd:integer" dictRef="g:atomicType">0</scalar><scalar dataType="xsd:integer" dictRef="compchem:atomicNumber">1</scalar></atom><atom id="a11" elementType="H" x3="3.34705" y3="-5.09E-4" z3="-0.593447"><scalar dataType="xsd:integer" dictRef="cc:serial">11</scalar><scalar dataType="xsd:integer" dictRef="g:atomicType">0</scalar><scalar dataType="xsd:integer" dictRef="compchem:atomicNumber">1</scalar></atom><atom id="a12" elementType="H" x3="1.169156" y3="-0.001053" z3="-1.789832"><scalar dataType="xsd:integer" dictRef="cc:serial">12</scalar><scalar dataType="xsd:integer" dictRef="g:atomicType">0</scalar><scalar dataType="xsd:integer" dictRef="compchem:atomicNumber">1</scalar></atom><atom id="a13" elementType="H" x3="-1.154968" y3="-0.270003" z3="3.06613"><scalar dataType="xsd:integer" dictRef="cc:serial">13</scalar><scalar dataType="xsd:integer" dictRef="g:atomicType">0</scalar><scalar dataType="xsd:integer" dictRef="compchem:atomicNumber">1</scalar></atom><atom id="a14" elementType="H" x3="-2.013742" y3="-0.270106" z3="1.625232"><scalar dataType="xsd:integer" dictRef="cc:serial">14</scalar><scalar dataType="xsd:integer" dictRef="g:atomicType">0</scalar><scalar dataType="xsd:integer" dictRef="compchem:atomicNumber">1</scalar></atom></atomArray><formula formalCharge="0" concise="C 6 H 7 N 1"><atomArray elementType="C H N" count="6.0 7.0 1.0"/></formula><bondArray><bond atomRefs2="a1 a2" id="a1_a2" order="2"/><bond atomRefs2="a1 a6" id="a1_a6" order="S"/><bond atomRefs2="a1 a7" id="a1_a7" order="S"/><bond atomRefs2="a2 a3" id="a2_a3" order="S"/><bond atomRefs2="a2 a8" id="a2_a8" order="S"/><bond atomRefs2="a3 a4" id="a3_a4" order="2"/><bond atomRefs2="a3 a9" id="a3_a9" order="S"/><bond atomRefs2="a4 a5" id="a4_a5" order="S"/><bond atomRefs2="a4 a10" id="a4_a10" order="S"/><bond atomRefs2="a5 a6" id="a5_a6" order="2"/><bond atomRefs2="a5 a11" id="a5_a11" order="S"/><bond atomRefs2="a6 a12" id="a6_a12" order="S"/><bond atomRefs2="a8 a13" id="a8_a13" order="S"/><bond atomRefs2="a8 a14" id="a8_a14" order="S"/></bondArray><property dictRef="cml:molmass"><scalar dataType="xsd:double" units="unit:dalton" xmlns:unit="http://www.xml-cml.org/unit/si/">93.12648</scalar></property></molecule></module><module cmlx:lineCount="31" cmlx:templateRef="l202.distmat"><array dataType="xsd:double" size="95" dictRef="cc:distance">0.0 1.401389 0.0 2.407602 1.401388 0.0 2.773969 2.422325 1.387879 0.0 2.416911 2.813249 2.41691 1.391543 0.0 1.387878 2.422325 2.773968 2.396033 1.391544 0.0 1.085554 2.15348 3.39296 3.859507 3.398206 2.147486 0.0 2.42835 1.391906 2.428354 3.696077 4.204373 3.696073 2.659063 0.0 3.392961 2.153481 1.085554 2.147485 3.398205 3.859506 4.292135 2.659072 0.0 3.858497 3.398649 2.137855 1.084572 2.149854 3.382942 4.944043 4.563569 2.459667 0.0 3.399253 3.896423 3.399253 2.154822 1.083174 2.154822 4.292898 5.28747 4.292896 2.484865 2.137855 3.398649 3.858498 3.382942 2.149855 1.084572 2.459669 4.563565 4.944042 4.285417 3.287553 2.044069 2.601808 3.975231 4.740263 4.452151 3.616165 1.008121 2.424228 4.676082 2.601825 2.04407 3.287542 4.452144 4.740264 3.975241 2.424256 1.00812 3.616148 5.390188</array></module><module cmlx:lineCount="6" cmlx:templateRef="l202.stoich"><scalar dataType="xsd:string" dictRef="cc:formula" cmlx:templateRef="stoich">C6H7N</scalar><scalar dataType="xsd:string" dictRef="cc:frameworkgroup" cmlx:templateRef="framework">C1[X(C6H7N)]</scalar><scalar dataType="xsd:integer" dictRef="cc:degfreedom" cmlx:templateRef="degfreedom">36</scalar><scalar dataType="xsd:string" dictRef="cc:pointgroup">C1</scalar><scalar dataType="xsd:integer" dictRef="cc:operatorcount">1</scalar><scalar dataType="xsd:string" dictRef="cc:largestabelian">C1</scalar><scalar dataType="xsd:integer" dictRef="cc:operatorcount">1</scalar><scalar dataType="xsd:string" dictRef="cc:largestconciseabelian">C1</scalar><scalar dataType="xsd:integer" dictRef="cc:operatorcount">1</scalar></module><module cmlx:lineCount="20" cmlx:templateRef="l202.orient"><molecule id="a14" cmlx:templateRef="atom"><atomArray><atom id="a1" elementType="C" x3="-0.219692" y3="-1.203801" z3="-0.003767"><scalar dataType="xsd:integer" dictRef="cc:serial">1</scalar><scalar dataType="xsd:integer" dictRef="g:atomicType">0</scalar><scalar dataType="xsd:integer" dictRef="compchem:atomicNumber">6</scalar></atom><atom id="a2" elementType="C" x3="-0.937147" y3="0.0" z3="-0.007316"><scalar dataType="xsd:integer" dictRef="cc:serial">2</scalar><scalar dataType="xsd:integer" dictRef="g:atomicType">0</scalar><scalar dataType="xsd:integer" dictRef="compchem:atomicNumber">6</scalar></atom><atom id="a3" elementType="C" x3="-0.219693" y3="1.203801" z3="-0.003764"><scalar dataType="xsd:integer" dictRef="cc:serial">3</scalar><scalar dataType="xsd:integer" dictRef="g:atomicType">0</scalar><scalar dataType="xsd:integer" dictRef="compchem:atomicNumber">6</scalar></atom><atom id="a4" elementType="C" x3="1.168157" y3="1.198017" z3="0.003152"><scalar dataType="xsd:integer" dictRef="cc:serial">4</scalar><scalar dataType="xsd:integer" dictRef="g:atomicType">0</scalar><scalar dataType="xsd:integer" dictRef="compchem:atomicNumber">6</scalar></atom><atom id="a5" elementType="C" x3="1.876067" y3="0.0" z3="0.006773"><scalar dataType="xsd:integer" dictRef="cc:serial">5</scalar><scalar dataType="xsd:integer" dictRef="g:atomicType">0</scalar><scalar dataType="xsd:integer" dictRef="compchem:atomicNumber">6</scalar></atom><atom id="a6" elementType="C" x3="1.168157" y3="-1.198016" z3="0.003151"><scalar dataType="xsd:integer" dictRef="cc:serial">6</scalar><scalar dataType="xsd:integer" dictRef="g:atomicType">0</scalar><scalar dataType="xsd:integer" dictRef="compchem:atomicNumber">6</scalar></atom><atom id="a7" elementType="H" x3="-0.758675" y3="-2.146067" z3="-0.011627"><scalar dataType="xsd:integer" dictRef="cc:serial">7</scalar><scalar dataType="xsd:integer" dictRef="g:atomicType">0</scalar><scalar dataType="xsd:integer" dictRef="compchem:atomicNumber">1</scalar></atom><atom id="a8" elementType="N" x3="-2.32758" y3="-5.0E-6" z3="-0.071343"><scalar dataType="xsd:integer" dictRef="cc:serial">8</scalar><scalar dataType="xsd:integer" dictRef="g:atomicType">0</scalar><scalar dataType="xsd:integer" dictRef="compchem:atomicNumber">7</scalar></atom><atom id="a9" elementType="H" x3="-0.758673" y3="2.146068" z3="-0.011613"><scalar dataType="xsd:integer" dictRef="cc:serial">9</scalar><scalar dataType="xsd:integer" dictRef="g:atomicType">0</scalar><scalar dataType="xsd:integer" dictRef="compchem:atomicNumber">1</scalar></atom><atom id="a10" elementType="H" x3="1.700923" y3="2.142708" z3="0.006792"><scalar dataType="xsd:integer" dictRef="cc:serial">10</scalar><scalar dataType="xsd:integer" dictRef="g:atomicType">0</scalar><scalar dataType="xsd:integer" dictRef="compchem:atomicNumber">1</scalar></atom><atom id="a11" elementType="H" x3="2.959226" y3="0.0" z3="0.012475"><scalar dataType="xsd:integer" dictRef="cc:serial">11</scalar><scalar dataType="xsd:integer" dictRef="g:atomicType">0</scalar><scalar dataType="xsd:integer" dictRef="compchem:atomicNumber">1</scalar></atom><atom id="a12" elementType="H" x3="1.700923" y3="-2.142709" z3="0.006788"><scalar dataType="xsd:integer" dictRef="cc:serial">12</scalar><scalar dataType="xsd:integer" dictRef="g:atomicType">0</scalar><scalar dataType="xsd:integer" dictRef="compchem:atomicNumber">1</scalar></atom><atom id="a13" elementType="H" x3="-2.782876" y3="0.838717" z3="0.253557"><scalar dataType="xsd:integer" dictRef="cc:serial">13</scalar><scalar dataType="xsd:integer" dictRef="g:atomicType">0</scalar><scalar dataType="xsd:integer" dictRef="compchem:atomicNumber">1</scalar></atom><atom id="a14" elementType="H" x3="-2.782877" y3="-0.838686" z3="0.253658"><scalar dataType="xsd:integer" dictRef="cc:serial">14</scalar><scalar dataType="xsd:integer" dictRef="g:atomicType">0</scalar><scalar dataType="xsd:integer" dictRef="compchem:atomicNumber">1</scalar></atom></atomArray><formula formalCharge="0" concise="C 6 H 7 N 1"><atomArray elementType="C H N" count="6.0 7.0 1.0"/></formula><bondArray><bond atomRefs2="a1 a2" id="a1_a2" order="2"/><bond atomRefs2="a1 a6" id="a1_a6" order="S"/><bond atomRefs2="a1 a7" id="a1_a7" order="S"/><bond atomRefs2="a2 a3" id="a2_a3" order="S"/><bond atomRefs2="a2 a8" id="a2_a8" order="S"/><bond atomRefs2="a3 a4" id="a3_a4" order="2"/><bond atomRefs2="a3 a9" id="a3_a9" order="S"/><bond atomRefs2="a4 a5" id="a4_a5" order="S"/><bond atomRefs2="a4 a10" id="a4_a10" order="S"/><bond atomRefs2="a5 a6" id="a5_a6" order="2"/><bond atomRefs2="a5 a11" id="a5_a11" order="S"/><bond atomRefs2="a6 a12" id="a6_a12" order="S"/><bond atomRefs2="a8 a13" id="a8_a13" order="S"/><bond atomRefs2="a8 a14" id="a8_a14" order="S"/></bondArray><property dictRef="cml:molmass"><scalar dataType="xsd:double" units="unit:dalton" xmlns:unit="http://www.xml-cml.org/unit/si/">93.12648</scalar></property></molecule></module><module cmlx:lineCount="1" cmlx:templateRef="l202.rotconst"><array dataType="xsd:double" size="3" dictRef="cc:rotconst" cmlx:templateRef="rotconst">5.6547882 2.6027819 1.7847954</array></module><scalar dataType="xsd:integer" dictRef="g:buffer" cmlx:templateRef="buffer">131072</scalar><scalar dataType="xsd:string" dictRef="g:raffenetti" cmlx:templateRef="raff">Raffenetti</scalar><scalar dataType="xsd:string" dictRef="g:twoe" cmlx:templateRef="twoe">Two-electron</scalar><module cmlx:lineCount="12" cmlx:templateRef="l301.basis"><scalar dataType="xsd:string" dictRef="cc:basis">6-311+G(d,p)</scalar><scalar dataType="xsd:string" dictRef="cc:diffuse">(5D, 7F)</scalar><list cmlx:lineCount="1" cmlx:templateRef="symmadapt"><array dataType="xsd:integer" dictRef="cc:adapted" size="1">196</array><array dataType="xsd:string" dictRef="cc:symm" size="1">A</array></list><scalar dataType="xsd:integer" dictRef="cc:basiscount">196</scalar><scalar dataType="xsd:integer" dictRef="g:primbasis">308</scalar><scalar dataType="xsd:integer" dictRef="cc:cartesianbasis">203</scalar><scalar dataType="xsd:integer" dictRef="cc:alphae">25</scalar><scalar dataType="xsd:integer" dictRef="cc:betae">25</scalar> IExCor= 402 DFT=T Ex=B+HF Corr=LYP ExCW=0 ScaHFX=  0.200000 ScaDFX=  0.800000  0.720000  1.000000  0.810000 IRadAn=      0 IRanWt=     -1 IRanGd=            0 ICorTp=0 NAtoms=   14 NActive=   14 NUniq=   14 SFac= 1.00D+00 NAtFMM=   60 Big=F</module> NPDir=0 NMtPBC=     1 NCelOv=     1 NCel=       1 NClECP=     1 NCelD=      1         NCelK=      1 NCelE2=     1 NClLst=     1 CellRange=     0.0.<module cmlx:lineCount="1" cmlx:templateRef="l302.basis"><list cmlx:templateRef="onee"><scalar dataType="xsd:string" dictRef="g:onee">One-electron integrals</scalar></list></module> NBasis=   196 RedAO= T  NBF=   196 NBsUse=   196 1.00D-06 NBFU=   196 Precomputing XC quadrature grid using IXCGrd= 2 IRadAn=           0 IRanWt=          -1 IRanGd=           0. NRdTot=     898 NPtTot=      113936 NUsed=      120279 NTot=      120311 NSgBfM=   203   203   203   203.<module cmlx:lineCount="1" cmlx:templateRef="l303.basis"><list cmlx:templateRef="l303"><scalar dataType="xsd:integer" dictRef="g:dipdrv">1</scalar></list></module> Harris functional with IExCor=  402 diagonalized for initial guess. ExpMin= 4.38D-02 ExpMax= 6.29D+03 ExpMxC= 9.49D+02 IAcc=2 IRadAn=         4 AccDes= 0.00D+00 HarFok:  IExCor= 402 AccDes= 0.00D+00 IRadAn=         4 IDoV=1 ScaDFX=  1.000000  1.000000  1.000000  1.000000 Harris En= -287.825168604220     Initial guess orbital symmetries:       Occupied  (A) (A) (A) (A) (A) (A) (A) (A) (A) (A) (A) (A)                 (A) (A) (A) (A) (A) (A) (A) (A) (A) (A) (A) (A)                 (A)       Virtual   (A) (A) (A) (A) (A) (A) (A) (A) (A) (A) (A) (A)                 (A) (A) (A) (A) (A) (A) (A) (A) (A) (A) (A) (A)                 (A) (A) (A) (A) (A) (A) (A) (A) (A) (A) (A) (A)                 (A) (A) (A) (A) (A) (A) (A) (A) (A) (A) (A) (A)                 (A) (A) (A) (A) (A) (A) (A) (A) (A) (A) (A) (A)                 (A) (A) (A) (A) (A) (A) (A) (A) (A) (A) (A) (A)                 (A) (A) (A) (A) (A) (A) (A) (A) (A) (A) (A) (A)                 (A) (A) (A) (A) (A) (A) (A) (A) (A) (A) (A) (A)                 (A) (A) (A) (A) (A) (A) (A) (A) (A) (A) (A) (A)                 (A) (A) (A) (A) (A) (A) (A) (A) (A) (A) (A) (A)                 (A) (A) (A) (A) (A) (A) (A) (A) (A) (A) (A) (A)                 (A) (A) (A) (A) (A) (A) (A) (A) (A) (A) (A) (A)                 (A) (A) (A) (A) (A) (A) (A) (A) (A) (A) (A) (A)                 (A) (A) (A) (A) (A) (A) (A) (A) (A) (A) (A) (A)                 (A) (A) (A) The electronic state of the initial guess is 1-A.<module cmlx:lineCount="189" cmlx:templateRef="l502"><list cmlx:templateRef="l502.type"><scalar dataType="xsd:string" dictRef="g:l502.type">Closed</scalar></list> Requested convergence on RMS density matrix=1.00D-08 within 128 cycles. Requested convergence on MAX density matrix=1.00D-06. Requested convergence on             energy=1.00D-06. No special actions if energy rises. Using DIIS extrapolation, IDIIS=  1040. Integral symmetry usage will be decided dynamically.       120278 words used for storage of precomputed grid. IEnd=    284043 IEndB=    284043 NGot=   6291456 MDV=   6065466 LenX=   6065466 Fock matrices will be formed incrementally for  20 cycles.<module cmlx:lineCount="172" cmlx:templateRef="l502.cycle"><list cmlx:templateRef="cycle"><list><scalar dataType="xsd:integer" dictRef="cc:cycle">1</scalar><scalar dataType="xsd:integer" dictRef="g:pass">1</scalar><scalar dataType="xsd:integer" dictRef="g:idiag">1</scalar></list></list><module cmlx:lineCount="1" cmlx:templateRef="l502.e"><list cmlx:templateRef="l502.e"><scalar dataType="xsd:double" dictRef="g:l502.e">-287.403611835913</scalar></list></module> Cycle   2  Pass 1  IDiag  1:<module cmlx:lineCount="1" cmlx:templateRef="l502.ediff"><list cmlx:templateRef="l502.ediff"><list><scalar dataType="xsd:double" dictRef="g:l502.e">-287.516907629013</scalar><scalar dataType="xsd:double" dictRef="g:l502.deltae">-0.1132957931</scalar></list></list></module> Cycle   3  Pass 1  IDiag  1:<module cmlx:lineCount="1" cmlx:templateRef="l502.ediff"><list cmlx:templateRef="l502.ediff"><list><scalar dataType="xsd:double" dictRef="g:l502.e">-287.68454173405</scalar><scalar dataType="xsd:double" dictRef="g:l502.deltae">-0.167634105037</scalar></list></list></module> Cycle   4  Pass 1  IDiag  1:<module cmlx:lineCount="1" cmlx:templateRef="l502.ediff"><list cmlx:templateRef="l502.ediff"><list><scalar dataType="xsd:double" dictRef="g:l502.e">-287.686716233585</scalar><scalar dataType="xsd:double" dictRef="g:l502.deltae">-0.002174499535</scalar></list></list></module> Cycle   5  Pass 1  IDiag  1:<module cmlx:lineCount="1" cmlx:templateRef="l502.ediff"><list cmlx:templateRef="l502.ediff"><list><scalar dataType="xsd:double" dictRef="g:l502.e">-287.687384686178</scalar><scalar dataType="xsd:double" dictRef="g:l502.deltae">-6.68452593E-4</scalar></list></list></module> Cycle   6  Pass 1  IDiag  1:<module cmlx:lineCount="1" cmlx:templateRef="l502.ediff"><list cmlx:templateRef="l502.ediff"><list><scalar dataType="xsd:double" dictRef="g:l502.e">-287.687551525625</scalar><scalar dataType="xsd:double" dictRef="g:l502.deltae">-1.66839447E-4</scalar></list></list></module> Cycle   7  Pass 1  IDiag  1:                    CP:  8.80D-01<module cmlx:lineCount="1" cmlx:templateRef="l502.ediff"><list cmlx:templateRef="l502.ediff"><list><scalar dataType="xsd:double" dictRef="g:l502.e">-287.687557542933</scalar><scalar dataType="xsd:double" dictRef="g:l502.deltae">-6.017308E-6</scalar></list></list></module> Cycle   8  Pass 1  IDiag  1:                    CP:  8.68D-01  8.26D-01<module cmlx:lineCount="1" cmlx:templateRef="l502.ediff"><list cmlx:templateRef="l502.ediff"><list><scalar dataType="xsd:double" dictRef="g:l502.e">-287.687557797438</scalar><scalar dataType="xsd:double" dictRef="g:l502.deltae">-2.54505E-7</scalar></list></list></module> Cycle   9  Pass 1  IDiag  1:                    CP:  8.74D-01  8.71D-01  9.71D-01<module cmlx:lineCount="1" cmlx:templateRef="l502.ediff"><list cmlx:templateRef="l502.ediff"><list><scalar dataType="xsd:double" dictRef="g:l502.e">-287.68755780838</scalar><scalar dataType="xsd:double" dictRef="g:l502.deltae">-1.0942E-8</scalar></list></list></module> Cycle  10  Pass 1  IDiag  1:                    CP:  8.77D-01  8.63D-01  9.57D-01  7.50D-01<module cmlx:lineCount="1" cmlx:templateRef="l502.ediff"><list cmlx:templateRef="l502.ediff"><list><scalar dataType="xsd:double" dictRef="g:l502.e">-287.687557811422</scalar><scalar dataType="xsd:double" dictRef="g:l502.deltae">-3.043E-9</scalar></list></list></module> Cycle  11  Pass 1  IDiag  1:                    CP:  8.76D-01  8.65D-01  9.76D-01  7.96D-01  8.53D-01<module cmlx:lineCount="1" cmlx:templateRef="l502.ediff"><list cmlx:templateRef="l502.ediff"><list><scalar dataType="xsd:double" dictRef="g:l502.e">-287.68755781149</scalar><scalar dataType="xsd:double" dictRef="g:l502.deltae">-6.8E-11</scalar></list></list></module> Cycle  12  Pass 1  IDiag  1:                    CP:  8.76D-01  8.66D-01  9.76D-01  8.02D-01  8.81D-01                    CP:  8.27D-01<module cmlx:lineCount="1" cmlx:templateRef="l502.ediff"><list cmlx:templateRef="l502.ediff"><list><scalar dataType="xsd:double" dictRef="g:l502.e">-287.687557811504</scalar><scalar dataType="xsd:double" dictRef="g:l502.deltae">-1.4E-11</scalar></list></list></module> RMSDP=7.18D-09 MaxDP=1.66D-07 DE=-1.40D-11 OVMax= 2.27D-07</module><module cmlx:lineCount="4" cmlx:templateRef="l502.footer"><list cmlx:templateRef="l502"><scalar dataType="xsd:string" dictRef="g:l502">SCF Done:  E(RB+HF-LYP) =  -287.687557812     A.U. after   12 cycles</scalar><scalar dataType="xsd:string" dictRef="g:l502">Convg  =    0.7184D-08             -V/T =  2.0043</scalar><scalar dataType="xsd:string" dictRef="g:l502">S**2   =   0.0000</scalar><scalar dataType="xsd:string" dictRef="g:l502">KE= 2.864474063431D+02 PE=-1.211918765976D+03 EE= 3.659277108806D+02</scalar></list></module></module> Copying SCF densities to generalized density rwf, ISCF=0 IROHF=0.<module cmlx:lineCount="166" cmlx:templateRef="l601.popanal"> Orbital symmetries:<module cmlx:lineCount="3" cmlx:templateRef="l4601.occupied"><list cmlx:templateRef="occ"><scalar dataType="xsd:string" dictRef="g:occorbs">(A) (A) (A) (A) (A) (A) (A) (A) (A) (A) (A) (A)</scalar></list><list cmlx:templateRef="occ"><scalar dataType="xsd:string" dictRef="g:occorbs">(A) (A) (A) (A) (A) (A) (A) (A) (A) (A) (A) (A)</scalar><scalar dataType="xsd:string" dictRef="g:occorbs">(A)</scalar></list></module><module cmlx:lineCount="15" cmlx:templateRef="l4601.virtual"><list cmlx:templateRef="virt"><scalar dataType="xsd:string" dictRef="g:virtorbs">(A) (A) (A) (A) (A) (A) (A) (A) (A) (A) (A) (A)</scalar></list><list cmlx:templateRef="virt"><scalar dataType="xsd:string" dictRef="g:virtorbs">(A) (A) (A) (A) (A) (A) (A) (A) (A) (A) (A) (A)</scalar><scalar dataType="xsd:string" dictRef="g:virtorbs">(A) (A) (A) (A) (A) (A) (A) (A) (A) (A) (A) (A)</scalar><scalar dataType="xsd:string" dictRef="g:virtorbs">(A) (A) (A) (A) (A) (A) (A) (A) (A) (A) (A) (A)</scalar><scalar dataType="xsd:string" dictRef="g:virtorbs">(A) (A) (A) (A) (A) (A) (A) (A) (A) (A) (A) (A)</scalar><scalar dataType="xsd:string" dictRef="g:virtorbs">(A) (A) (A) (A) (A) (A) (A) (A) (A) (A) (A) (A)</scalar><scalar dataType="xsd:string" dictRef="g:virtorbs">(A) (A) (A) (A) (A) (A) (A) (A) (A) (A) (A) (A)</scalar><scalar dataType="xsd:string" dictRef="g:virtorbs">(A) (A) (A) (A) (A) (A) (A) (A) (A) (A) (A) (A)</scalar><scalar dataType="xsd:string" dictRef="g:virtorbs">(A) (A) (A) (A) (A) (A) (A) (A) (A) (A) (A) (A)</scalar><scalar dataType="xsd:string" dictRef="g:virtorbs">(A) (A) (A) (A) (A) (A) (A) (A) (A) (A) (A) (A)</scalar><scalar dataType="xsd:string" dictRef="g:virtorbs">(A) (A) (A) (A) (A) (A) (A) (A) (A) (A) (A) (A)</scalar><scalar dataType="xsd:string" dictRef="g:virtorbs">(A) (A) (A) (A) (A) (A) (A) (A) (A) (A) (A) (A)</scalar><scalar dataType="xsd:string" dictRef="g:virtorbs">(A) (A) (A) (A) (A) (A) (A) (A) (A) (A) (A) (A)</scalar><scalar dataType="xsd:string" dictRef="g:virtorbs">(A) (A) (A) (A) (A) (A) (A) (A) (A) (A) (A) (A)</scalar><scalar dataType="xsd:string" dictRef="g:virtorbs">(A) (A) (A)</scalar></list></module><module cmlx:lineCount="1" cmlx:templateRef="l601.state"><scalar dataType="xsd:string" dictRef="g:l601.state">1-A.</scalar></module><array dataType="xsd:double" size="25" dictRef="g:alphaocc">-14.32376 -10.21575 -10.17235 -10.17235 -10.16787 -10.16786 -10.16216 -0.92704 -0.84129 -0.74762 -0.72937 -0.61563 -0.6025 -0.53011 -0.51592 -0.48146 -0.43579 -0.43317 -0.42137 -0.38857 -0.36142 -0.34421 -0.31721 -0.25503 -0.21182</array><array dataType="xsd:double" size="171" dictRef="g:alphavirt">-0.01242 -0.00364 0.00365 0.01518 0.02109 0.04092 0.04406 0.06473 0.06914 0.07717 0.08648 0.09209 0.09322 0.11978 0.1293 0.13149 0.13248 0.14073 0.14481 0.14494 0.16754 0.17159 0.1791 0.18166 0.19617 0.19785 0.20298 0.20532 0.21006 0.21182 0.22109 0.22813 0.23475 0.25043 0.25507 0.26477 0.27922 0.28615 0.29295 0.32783 0.32905 0.34794 0.36923 0.45166 0.45513 0.52098 0.53394 0.53438 0.54603 0.55378 0.56238 0.56551 0.57656 0.58227 0.61492 0.6179 0.62926 0.64616 0.68656 0.68932 0.69986 0.72298 0.72829 0.73957 0.77972 0.81457 0.81469 0.8246 0.82913 0.84731 0.85072 0.8557 0.86364 0.86754 0.89451 0.93139 0.97023 1.01209 1.01763 1.02675 1.08681 1.099 1.14622 1.16527 1.2491 1.29989 1.39964 1.43852 1.4664 1.5206 1.52149 1.522 1.56292 1.56875 1.5765 1.59668 1.62527 1.65686 1.6757 1.69687 1.70708 1.74342 1.77761 1.82492 1.84074 1.8709 1.89264 1.93411 1.94033 1.94065 1.95175 1.95242 1.96573 2.00614 2.06475 2.07249 2.08726 2.11635 2.26705 2.28624 2.34969 2.3809 2.40447 2.40675 2.44905 2.56591 2.57647 2.58139 2.63656 2.66649 2.68534 2.70282 2.70282 2.72566 2.74303 2.76026 2.77333 2.79844 2.80371 2.82191 2.87545 2.88803 2.90494 2.94485 2.94607 3.0153 3.08574 3.13439 3.29443 3.32911 3.3614 3.43236 3.49988 3.51593 3.65209 3.83222 3.98336 3.99394 4.06462 4.14478 4.15046 4.76678 4.85534 5.00177 23.58002 23.94942 23.96034 24.07891 24.11597 24.21223 35.63829</array><module cmlx:lineCount="40" cmlx:templateRef="l601.alphabetaeigen"/><module cmlx:lineCount="45" cmlx:templateRef="l601.condensed"><array dataType="xsd:double" size="14" dictRef="x:floatArr">6.112057 0.060533 -0.185996 -0.158269 -0.075786 0.069903 0.360485 -0.077622 -0.057239 -0.001268 -0.018618 -0.044545 0.058892 -0.075284</array><array dataType="xsd:double" size="14" dictRef="x:floatArr">0.060533 5.716437 0.06044 0.162142 -0.106879 0.162168 -0.018048 0.115959 -0.018036 0.013391 0.010513 0.013388 -0.00171 -0.001711</array><array dataType="xsd:double" size="14" dictRef="x:floatArr">-0.185996 0.06044 6.112002 0.069957 -0.075749 -0.158283 -0.057243 -0.077585 0.36047 -0.044543 -0.018617 -0.001268 -0.075281 0.058895</array><array dataType="xsd:double" size="14" dictRef="x:floatArr">-0.158269 0.162142 0.069957 5.064131 0.536702 0.04264 0.011593 0.006499 0.071824 0.393263 -0.003396 -0.002019 0.013555 -0.006321</array><array dataType="xsd:double" size="14" dictRef="x:floatArr">-0.075786 -0.106879 -0.075749 0.536702 4.982006 0.53673 -0.009239 0.002558 -0.009241 -0.010931 0.384478 -0.01093 -5.36E-4 -5.36E-4</array><array dataType="xsd:double" size="14" dictRef="x:floatArr">0.069903 0.162168 -0.158283 0.04264 0.53673 5.064167 0.071824 0.006482 0.011595 -0.00202 -0.003396 0.393266 -0.006321 0.013555</array><array dataType="xsd:double" size="14" dictRef="x:floatArr">0.360485 -0.018048 -0.057243 0.011593 -0.009239 0.071824 0.562562 -0.018664 -1.89E-4 7.4E-5 -2.78E-4 -0.008785 2.51E-4 0.005576</array><array dataType="xsd:double" size="14" dictRef="x:floatArr">-0.077622 0.115959 -0.077585 0.006499 0.002558 0.006482 -0.018664 6.685352 -0.018666 -0.0014 4.19E-4 -0.0014 0.368561 0.368562</array><array dataType="xsd:double" size="14" dictRef="x:floatArr">-0.057239 -0.018036 0.36047 0.071824 -0.009241 0.011595 -1.89E-4 -0.018666 0.562565 -0.008785 -2.78E-4 7.4E-5 0.005576 2.51E-4</array><array dataType="xsd:double" size="14" dictRef="x:floatArr">-0.001268 0.013391 -0.044543 0.393263 -0.010931 -0.00202 7.4E-5 -0.0014 -0.008785 0.548523 -0.008107 -3.28E-4 -1.7E-5 2.4E-5</array><array dataType="xsd:double" size="14" dictRef="x:floatArr">-0.018618 0.010513 -0.018617 -0.003396 0.384478 -0.003396 -2.78E-4 4.19E-4 -2.78E-4 -0.008107 0.547088 -0.008107 -7.0E-6 -7.0E-6</array><array dataType="xsd:double" size="14" dictRef="x:floatArr">-0.044545 0.013388 -0.001268 -0.002019 -0.01093 0.393266 -0.008785 -0.0014 7.4E-5 -3.28E-4 -0.008107 0.548523 2.4E-5 -1.7E-5</array><array dataType="xsd:double" size="14" dictRef="x:floatArr">0.058892 -0.00171 -0.075281 0.013555 -5.36E-4 -0.006321 2.51E-4 0.368561 0.005576 -1.7E-5 -7.0E-6 2.4E-5 0.456084 -0.04238</array><array dataType="xsd:double" size="12" dictRef="x:floatArr">-0.075284 -0.001711 0.058895 -0.006321 -5.36E-4 0.013555 0.005576 0.368562 2.51E-4 2.4E-5 -7.0E-6 -1.7E-5</array></module><list cmlx:templateRef="popanal"><scalar dataType="xsd:string" dictRef="x:popanal">14  H   -0.042380   0.456083</scalar></list><module cmlx:lineCount="36" cmlx:templateRef="mulliken"><module cmlx:lineCount="17" cmlx:templateRef="l601.mullik"><scalar dataType="xsd:string" dictRef="g:title">Mulliken atomic charges:</scalar><scalar dataType="xsd:integer" dictRef="cc:serial">1</scalar><list cmlx:lineCount="14" cmlx:templateRef="row"><array dataType="xsd:integer" dictRef="cc:serial" size="14">1 2 3 4 5 6 7 8 9 10 11 12 13 14</array><array dataType="xsd:string" dictRef="cc:elementType" size="14">C C C C C C H N H H H H H H</array><array dataType="xsd:double" dictRef="x:charge" size="14">0.032756 -0.168588 0.032801 -0.2023 -0.142648 -0.20231 0.100083 -0.359056 0.100081 0.122124 0.118314 0.122124 0.22331 0.22331</array></list><scalar dataType="xsd:string" dictRef="x:type">Mulliken</scalar><scalar dataType="xsd:double" dictRef="x:charge.sum">0.0</scalar></module><module cmlx:lineCount="17" cmlx:templateRef="l601.mullik"><scalar dataType="xsd:string" dictRef="g:title">Atomic charges with hydrogens summed into heavy atoms:</scalar><scalar dataType="xsd:integer" dictRef="cc:serial">1</scalar><list cmlx:lineCount="14" cmlx:templateRef="row"><array dataType="xsd:integer" dictRef="cc:serial" size="14">1 2 3 4 5 6 7 8 9 10 11 12 13 14</array><array dataType="xsd:string" dictRef="cc:elementType" size="14">C C C C C C H N H H H H H H</array><array dataType="xsd:double" dictRef="x:charge" size="14">0.132839 -0.168588 0.132881 -0.080176 -0.024334 -0.080186 0.0 0.087564 0.0 0.0 0.0 0.0 0.0 0.0</array></list><scalar dataType="xsd:string" dictRef="x:type">Mulliken</scalar><scalar dataType="xsd:double" dictRef="x:charge.sum">0.0</scalar></module><scalar dataType="xsd:double" dictRef="g:electextent2">685.5666</scalar> Charge=     0.0000 electrons</module><module cmlx:lineCount="18" cmlx:templateRef="multipole"><array dataType="xsd:double" size="3" dictRef="cc:dipole">-1.3194 0.0 0.9369</array><scalar dataType="xsd:double" dictRef="x:dipole">1.6182</scalar><array dataType="xsd:double" size="3" dictRef="cc:quadrupole">-35.4016 -37.0471 -47.3976</array><array dataType="xsd:double" size="3" dictRef="cc:quadrupole">-2.0E-4 -3.0571 -1.0E-4</array><array dataType="xsd:double" size="6" dictRef="cc:quadrupole">4.5472 2.9017 -7.4488 -2.0E-4 -3.0571 -1.0E-4</array><array dataType="xsd:double" size="10" dictRef="cc:octapole">-16.485 1.0E-4 0.5832 -5.5937 5.0E-4 9.216 -2.5038 -1.0E-4 0.5322 5.0E-4</array><array dataType="xsd:double" size="15" dictRef="cc:hexadecapole">-506.6236 -287.1085 -58.7306 -0.0016 -27.6587 -3.0E-4 0.0 -2.7452 -2.0E-4 -124.3751 -120.9664 -68.6675 -0.0014 -2.1949 1.0E-4</array></module></module><module cmlx:lineCount="2" cmlx:templateRef="l601.nonmr"> Leave Link  601 at Mon Aug 21 21:32:09 2006, MaxMem=    6291456 cpu:       1.2</module><module cmlx:lineCount="1" cmlx:templateRef="l701"/> ... and contract with generalized density number  0.<module cmlx:lineCount="1" cmlx:templateRef="l702"/><module cmlx:lineCount="1" cmlx:templateRef="l701"/> Integral derivatives from FoFDir, PRISM(SPDF). Symmetry not used in FoFDir. MinBra= 0 MaxBra= 2 Meth= 1. IRaf=       0 NMat=   1 IRICut=       1 DoRegI=T DoRafI=F ISym2E= 0 JSym2E=0.<module cmlx:lineCount="2" cmlx:templateRef="l716.dipole"><array dataType="xsd:double" size="3" dictRef="x:d" cmlx:templateRef="dipole">-0.519084962 1.96592246E-5 0.368622808</array> ***** Axes restored to original set *****</module> ------------------------------------------------------------------- Center     Atomic                   Forces (Hartrees/Bohr) Number     Number              X              Y              Z -------------------------------------------------------------------    1          6          -0.002769279    0.000069483   -0.000250478    2          6           0.002167604   -0.000141346   -0.001292299    3          6          -0.001096782    0.000069550    0.002554755    4          6           0.002599457   -0.000076510    0.001319068    5          6           0.002351138    0.000055009   -0.001400965    6          6           0.000076621   -0.000076778   -0.002914810    7          1          -0.000118013    0.000021086   -0.000127451    8          7          -0.002406139    0.000761332    0.001435590    9          1           0.000055733    0.000021223    0.000164668   10          1           0.000121771    0.000008845    0.000039169   11          1           0.000120170   -0.000015050   -0.000071647   12          1           0.000023493    0.000008882   -0.000125412   13          1          -0.000320329   -0.000352972    0.000741539   14          1          -0.000805444   -0.000352753   -0.000071727 ------------------------------------------------------------------- Cartesian Forces:  Max     0.002914810 RMS     0.001159467<module cmlx:lineCount="97" cmlx:templateRef="l103"><list cmlx:templateRef="berny"><scalar dataType="xsd:string" dictRef="g:optimization">Internal  Forces:  Max     0.004110289 RMS     0.000997081</scalar></list> Search for a local minimum. Step number   1 out of a maximum of  73 All quantities printed in internal units (Hartrees-Bohrs-Radians) Second derivative matrix not updated -- first step.     Eigenvalues ---    0.01799   0.01998   0.02092   0.02150   0.02165     Eigenvalues ---    0.02201   0.02202   0.02215   0.02226   0.02229     Eigenvalues ---    0.04021   0.16000   0.16000   0.16000   0.16000     Eigenvalues ---    0.16000   0.16000   0.16000   0.22000   0.22000     Eigenvalues ---    0.23464   0.24969   0.35331   0.35331   0.35447     Eigenvalues ---    0.35448   0.35614   0.42052   0.42446   0.45912     Eigenvalues ---    0.46288   0.46289   0.46356   0.46989   0.47207     Eigenvalues ---    0.476901000.000001000.000001000.000001000.00000     Eigenvalues --- 1000.000001000.000001000.000001000.000001000.00000     Eigenvalues --- 1000.000001000.000001000.000001000.000001000.00000     Eigenvalues --- 1000.000001000.000001000.000001000.000001000.00000     Eigenvalues --- 1000.000001000.000001000.000001000.000001000.00000     Eigenvalues --- 1000.000001000.000001000.00000<module cmlx:lineCount="5" cmlx:templateRef="rfo"><list cmlx:templateRef="rfo"><scalar dataType="xsd:double" dictRef="g:lambda">-1.35704964E-4</scalar></list><list cmlx:templateRef="nolinear"><scalar dataType="xsd:string" dictRef="g:linear">Linear search</scalar></list><list cmlx:lineCount="3" cmlx:templateRef="iteration"><array dataType="xsd:integer" dictRef="cc:serial" size="3">1 2 3</array><array dataType="xsd:double" dictRef="g:rmscart" size="3">0.00402024 1.7E-6 0.0</array><array dataType="xsd:double" dictRef="g:rmsint" size="3">1.51E-6 3.2E-7 3.2E-7</array></list></module><module cmlx:lineCount="65" cmlx:templateRef="l103.deltas"><list cmlx:lineCount="63" cmlx:templateRef="delta"><array dataType="xsd:string" dictRef="cc:variable" size="63">R1 R2 R3 R4 R5 R6 R7 R8 R9 R10 R11 R12 R13 R14 A1 A2 A3 A4 A5 A6 A7 A8 A9 A10 A11 A12 A13 A14 A15 A16 A17 A18 A19 A20 A21 D1 D2 D3 D4 D5 D6 D7 D8 D9 D10 D11 D12 D13 D14 D15 D16 D17 D18 D19 D20 D21 D22 D23 D24 D25 D26 D27 D28</array><array dataType="xsd:double" dictRef="g:lastval" size="63">2.64824 2.62271 2.0514 2.64824 2.63032 2.62271 2.0514 2.62964 2.04954 2.62964 2.0469 2.04954 1.90507 1.90507 2.1041 2.08451 2.09457 2.06665 2.10776 2.10777 2.1041 2.08451 2.09456 2.10867 2.08013 2.09438 2.07418 2.1045 2.1045 2.10867 2.08013 2.09438 2.0223 2.02231 1.96521 4.0E-5 3.09384 -3.1361 -0.04231 6.0E-5 3.14053 3.13617 -0.00654 -4.0E-5 3.13611 -3.09383 0.04232 2.77531 0.41534 -0.41522 -2.77518 -6.0E-5 -3.14053 -3.13618 0.00653 1.5E-4 -3.14127 3.14062 -8.0E-4 -1.5E-4 -3.14062 3.14127 8.0E-4</array><array dataType="xsd:double" dictRef="cc:deriv" size="63">0.00202 0.00308 1.7E-4 0.00202 0.00411 0.00308 1.7E-4 0.00287 1.3E-4 0.00287 1.4E-4 1.2E-4 8.0E-4 8.0E-4 -4.0E-5 7.0E-5 -3.0E-5 4.1E-4 -2.1E-4 -2.1E-4 -4.0E-5 7.0E-5 -3.0E-5 -1.3E-4 9.0E-5 4.0E-5 -7.0E-5 3.0E-5 3.0E-5 -1.3E-4 9.0E-5 4.0E-5 2.9E-4 2.9E-4 -4.4E-4 4.0E-5 3.0E-5 2.0E-5 1.0E-5 -2.0E-5 -1.0E-5 -1.0E-5 1.0E-5 -4.0E-5 -2.0E-5 -3.0E-5 -1.0E-5 -2.0E-5 1.0E-5 -1.0E-5 2.0E-5 2.0E-5 1.0E-5 1.0E-5 -1.0E-5 -1.0E-5 0.0 1.0E-5 1.0E-5 1.0E-5 -1.0E-5 0.0 -1.0E-5</array><array dataType="xsd:double" dictRef="cc:delta.linear" size="63">0.0 0.0 0.0 0.0 0.0 0.0 0.0 0.0 0.0 0.0 0.0 0.0 0.0 0.0 0.0 0.0 0.0 0.0 0.0 0.0 0.0 0.0 0.0 0.0 0.0 0.0 0.0 0.0 0.0 0.0 0.0 0.0 0.0 0.0 0.0 0.0 0.0 0.0 0.0 0.0 0.0 0.0 0.0 0.0 0.0 0.0 0.0 0.0 0.0 0.0 0.0 0.0 0.0 0.0 0.0 0.0 0.0 0.0 0.0 0.0 0.0 0.0 0.0</array><array dataType="xsd:double" dictRef="cc:delta.quad" size="63">0.00435 0.00646 4.7E-4 0.00435 0.00874 0.00646 4.7E-4 0.0062 3.5E-4 0.0062 3.9E-4 3.5E-4 0.00173 0.00174 -3.5E-4 5.2E-4 -1.6E-4 0.00132 -6.6E-4 -6.6E-4 -3.5E-4 5.1E-4 -1.6E-4 -3.8E-4 3.6E-4 2.0E-5 1.3E-4 -6.0E-5 -6.0E-5 -3.8E-4 3.6E-4 2.0E-5 0.00173 0.00173 -0.00287 0.00158 0.00152 9.0E-4 8.4E-4 -9.7E-4 -3.8E-4 -2.8E-4 3.1E-4 -0.00158 -9.1E-4 -0.00152 -8.4E-4 -2.9E-4 2.8E-4 -3.1E-4 2.6E-4 9.7E-4 3.7E-4 2.9E-4 -3.1E-4 -3.1E-4 -3.0E-5 2.9E-4 5.7E-4 3.1E-4 -2.9E-4 3.0E-5 -5.7E-4</array><array dataType="xsd:double" dictRef="cc:delta.total" size="63">0.00435 0.00646 4.7E-4 0.00435 0.00874 0.00646 4.7E-4 0.0062 3.5E-4 0.0062 3.9E-4 3.5E-4 0.00173 0.00174 -3.5E-4 5.2E-4 -1.6E-4 0.00132 -6.6E-4 -6.6E-4 -3.5E-4 5.1E-4 -1.6E-4 -3.8E-4 3.6E-4 2.0E-5 1.3E-4 -6.0E-5 -6.0E-5 -3.8E-4 3.6E-4 2.0E-5 0.00173 0.00173 -0.00287 0.00158 0.00152 9.0E-4 8.4E-4 -9.7E-4 -3.8E-4 -2.8E-4 3.1E-4 -0.00158 -9.1E-4 -0.00152 -8.4E-4 -2.9E-4 2.8E-4 -3.1E-4 2.6E-4 9.7E-4 3.7E-4 2.9E-4 -3.1E-4 -3.1E-4 -3.0E-5 2.9E-4 5.7E-4 3.1E-4 -2.9E-4 3.0E-5 -5.7E-4</array><array dataType="xsd:double" dictRef="cc:newval" size="63">2.65259 2.62917 2.05187 2.65259 2.63907 2.62917 2.05187 2.63583 2.0499 2.63584 2.04729 2.0499 1.90681 1.90681 2.10375 2.08502 2.0944 2.06797 2.1071 2.10711 2.10375 2.08502 2.0944 2.1083 2.08049 2.0944 2.0743 2.10444 2.10444 2.1083 2.08049 2.0944 2.02404 2.02404 1.96234 0.00163 3.09535 -3.1352 -0.04147 -9.1E-4 3.14016 3.13588 -0.00623 -0.00162 3.1352 -3.09535 0.04148 2.77501 0.41561 -0.41552 -2.77492 9.1E-4 -3.14016 -3.13589 0.00623 -1.6E-4 -3.1413 3.14091 -2.3E-4 1.6E-4 -3.14091 3.1413 2.3E-4</array></list></module><module cmlx:lineCount="5" cmlx:templateRef="l103.itemconverge"><list cmlx:lineCount="4" cmlx:templateRef="row"><array dataType="xsd:string" dictRef="g:item"/><array dataType="xsd:double" dictRef="g:value" size="4">4.5E-4 3.0E-4 0.0018 0.0012</array><array dataType="xsd:double" dictRef="g:threshold" size="4">0.0 0.0 0.0 0.0</array><array dataType="xsd:string" dictRef="g:converged" size="4">NO NO NO NO</array></list></module><module cmlx:lineCount="1" cmlx:templateRef="preddelta"><list cmlx:templateRef="predicted"><scalar dataType="xsd:double" dictRef="g:predchange">-6.787357E-5</scalar></list></module> GradGradGradGradGradGradGradGradGradGradGradGradGradGradGradGradGradGrad</module><module cmlx:lineCount="20" cmlx:templateRef="l202.orient"><molecule id="a14" cmlx:templateRef="atom"><atomArray><atom id="a1" elementType="C" x3="-0.00154" y3="7.42E-4" z3="-0.001934"><scalar dataType="xsd:integer" dictRef="cc:serial">1</scalar><scalar dataType="xsd:integer" dictRef="g:atomicType">0</scalar><scalar dataType="xsd:integer" dictRef="compchem:atomicNumber">6</scalar></atom><atom id="a2" elementType="C" x3="-6.12E-4" y3="1.59E-4" z3="1.401754"><scalar dataType="xsd:integer" dictRef="cc:serial">2</scalar><scalar dataType="xsd:integer" dictRef="g:atomicType">0</scalar><scalar dataType="xsd:integer" dictRef="compchem:atomicNumber">6</scalar></atom><atom id="a3" elementType="C" x3="1.23358" y3="7.42E-4" z3="2.070419"><scalar dataType="xsd:integer" dictRef="cc:serial">3</scalar><scalar dataType="xsd:integer" dictRef="g:atomicType">0</scalar><scalar dataType="xsd:integer" dictRef="compchem:atomicNumber">6</scalar></atom><atom id="a4" elementType="C" x3="2.425955" y3="-7.1E-5" z3="1.353519"><scalar dataType="xsd:integer" dictRef="cc:serial">4</scalar><scalar dataType="xsd:integer" dictRef="g:atomicType">0</scalar><scalar dataType="xsd:integer" dictRef="compchem:atomicNumber">6</scalar></atom><atom id="a5" elementType="C" x3="2.420616" y3="-3.93E-4" z3="-0.041294"><scalar dataType="xsd:integer" dictRef="cc:serial">5</scalar><scalar dataType="xsd:integer" dictRef="g:atomicType">0</scalar><scalar dataType="xsd:integer" dictRef="compchem:atomicNumber">6</scalar></atom><atom id="a6" elementType="C" x3="1.196329" y3="-7.6E-5" z3="-0.709617"><scalar dataType="xsd:integer" dictRef="cc:serial">6</scalar><scalar dataType="xsd:integer" dictRef="g:atomicType">0</scalar><scalar dataType="xsd:integer" dictRef="compchem:atomicNumber">6</scalar></atom><atom id="a7" elementType="H" x3="-0.947257" y3="0.00635" z3="-0.535371"><scalar dataType="xsd:integer" dictRef="cc:serial">7</scalar><scalar dataType="xsd:integer" dictRef="g:atomicType">0</scalar><scalar dataType="xsd:integer" dictRef="compchem:atomicNumber">1</scalar></atom><atom id="a8" elementType="N" x3="-1.199268" y3="0.056462" z3="2.116149"><scalar dataType="xsd:integer" dictRef="cc:serial">8</scalar><scalar dataType="xsd:integer" dictRef="g:atomicType">0</scalar><scalar dataType="xsd:integer" dictRef="compchem:atomicNumber">7</scalar></atom><atom id="a9" elementType="H" x3="1.252818" y3="0.006345" z3="3.156037"><scalar dataType="xsd:integer" dictRef="cc:serial">9</scalar><scalar dataType="xsd:integer" dictRef="g:atomicType">0</scalar><scalar dataType="xsd:integer" dictRef="compchem:atomicNumber">1</scalar></atom><atom id="a10" elementType="H" x3="3.367451" y3="-9.53E-4" z3="1.892301"><scalar dataType="xsd:integer" dictRef="cc:serial">10</scalar><scalar dataType="xsd:integer" dictRef="g:atomicType">0</scalar><scalar dataType="xsd:integer" dictRef="compchem:atomicNumber">1</scalar></atom><atom id="a11" elementType="H" x3="3.351246" y3="-0.001303" z3="-0.595949"><scalar dataType="xsd:integer" dictRef="cc:serial">11</scalar><scalar dataType="xsd:integer" dictRef="g:atomicType">0</scalar><scalar dataType="xsd:integer" dictRef="compchem:atomicNumber">1</scalar></atom><atom id="a12" elementType="H" x3="1.170383" y3="-9.61E-4" z3="-1.794065"><scalar dataType="xsd:integer" dictRef="cc:serial">12</scalar><scalar dataType="xsd:integer" dictRef="g:atomicType">0</scalar><scalar dataType="xsd:integer" dictRef="compchem:atomicNumber">1</scalar></atom><atom id="a13" elementType="H" x3="-1.161105" y3="-0.271215" z3="3.069738"><scalar dataType="xsd:integer" dictRef="cc:serial">13</scalar><scalar dataType="xsd:integer" dictRef="g:atomicType">0</scalar><scalar dataType="xsd:integer" dictRef="compchem:atomicNumber">1</scalar></atom><atom id="a14" elementType="H" x3="-2.019839" y3="-0.271293" z3="1.628911"><scalar dataType="xsd:integer" dictRef="cc:serial">14</scalar><scalar dataType="xsd:integer" dictRef="g:atomicType">0</scalar><scalar dataType="xsd:integer" dictRef="compchem:atomicNumber">1</scalar></atom></atomArray><formula formalCharge="0" concise="C 6 H 7 N 1"><atomArray elementType="C H N" count="6.0 7.0 1.0"/></formula><bondArray><bond atomRefs2="a1 a2" id="a1_a2" order="2"/><bond atomRefs2="a1 a6" id="a1_a6" order="S"/><bond atomRefs2="a1 a7" id="a1_a7" order="S"/><bond atomRefs2="a2 a3" id="a2_a3" order="S"/><bond atomRefs2="a2 a8" id="a2_a8" order="S"/><bond atomRefs2="a3 a4" id="a3_a4" order="2"/><bond atomRefs2="a3 a9" id="a3_a9" order="S"/><bond atomRefs2="a4 a5" id="a4_a5" order="S"/><bond atomRefs2="a4 a10" id="a4_a10" order="S"/><bond atomRefs2="a5 a6" id="a5_a6" order="2"/><bond atomRefs2="a5 a11" id="a5_a11" order="S"/><bond atomRefs2="a6 a12" id="a6_a12" order="S"/><bond atomRefs2="a8 a13" id="a8_a13" order="S"/><bond atomRefs2="a8 a14" id="a8_a14" order="S"/></bondArray><property dictRef="cml:molmass"><scalar dataType="xsd:double" units="unit:dalton" xmlns:unit="http://www.xml-cml.org/unit/si/">93.12648</scalar></property></molecule></module><module cmlx:lineCount="31" cmlx:templateRef="l202.distmat"><array dataType="xsd:double" size="95" dictRef="cc:distance">0.0 1.403689 0.0 2.412503 1.403689 0.0 2.780286 2.427047 1.391296 0.0 2.422475 2.81864 2.422476 1.394823 0.0 1.391296 2.427046 2.780286 2.401773 1.394824 0.0 1.085802 2.156068 3.397973 3.866071 3.403928 2.150666 0.0 2.433913 1.396534 2.433916 3.705003 4.214422 3.705001 2.66394 0.0 3.397974 2.156068 1.085802 2.150665 3.403927 3.866071 4.297303 2.663946 0.0 3.865001 3.403599 2.141293 1.084759 2.152972 3.388768 4.950793 4.572563 2.463485 0.0 3.405001 3.902022 3.405001 2.157913 1.083382 2.157914 4.298937 5.297735 4.298936 2.488302 2.141293 3.403599 3.865001 3.388768 2.152972 1.084759 2.463486 4.572561 4.950793 4.291433 3.294499 2.050014 2.609045 3.985716 4.751904 4.46257 3.622096 1.009039 2.43136 4.686921 2.609059 2.050016 3.29449 4.462565 4.751906 3.985725 2.431385 1.009039 3.622082 5.400496</array></module><module cmlx:lineCount="6" cmlx:templateRef="l202.stoich"><scalar dataType="xsd:string" dictRef="cc:formula" cmlx:templateRef="stoich">C6H7N</scalar><scalar dataType="xsd:string" dictRef="cc:frameworkgroup" cmlx:templateRef="framework">C1[X(C6H7N)]</scalar><scalar dataType="xsd:integer" dictRef="cc:degfreedom" cmlx:templateRef="degfreedom">36</scalar><scalar dataType="xsd:string" dictRef="cc:pointgroup">C1</scalar><scalar dataType="xsd:integer" dictRef="cc:operatorcount">1</scalar><scalar dataType="xsd:string" dictRef="cc:largestabelian">C1</scalar><scalar dataType="xsd:integer" dictRef="cc:operatorcount">1</scalar><scalar dataType="xsd:string" dictRef="cc:largestconciseabelian">C1</scalar><scalar dataType="xsd:integer" dictRef="cc:operatorcount">1</scalar></module><module cmlx:lineCount="20" cmlx:templateRef="l202.orient"><molecule id="a14" cmlx:templateRef="atom"><atomArray><atom id="a1" elementType="C" x3="-0.220322" y3="-1.206252" z3="-0.004473"><scalar dataType="xsd:integer" dictRef="cc:serial">1</scalar><scalar dataType="xsd:integer" dictRef="g:atomicType">0</scalar><scalar dataType="xsd:integer" dictRef="compchem:atomicNumber">6</scalar></atom><atom id="a2" elementType="C" x3="-0.938161" y3="0.0" z3="-0.007487"><scalar dataType="xsd:integer" dictRef="cc:serial">2</scalar><scalar dataType="xsd:integer" dictRef="g:atomicType">0</scalar><scalar dataType="xsd:integer" dictRef="compchem:atomicNumber">6</scalar></atom><atom id="a3" elementType="C" x3="-0.220324" y3="1.206251" z3="-0.004469"><scalar dataType="xsd:integer" dictRef="cc:serial">3</scalar><scalar dataType="xsd:integer" dictRef="g:atomicType">0</scalar><scalar dataType="xsd:integer" dictRef="compchem:atomicNumber">6</scalar></atom><atom id="a4" elementType="C" x3="1.170941" y3="1.200887" z3="0.003322"><scalar dataType="xsd:integer" dictRef="cc:serial">4</scalar><scalar dataType="xsd:integer" dictRef="g:atomicType">0</scalar><scalar dataType="xsd:integer" dictRef="compchem:atomicNumber">6</scalar></atom><atom id="a5" elementType="C" x3="1.880441" y3="1.0E-6" z3="0.0072"><scalar dataType="xsd:integer" dictRef="cc:serial">5</scalar><scalar dataType="xsd:integer" dictRef="g:atomicType">0</scalar><scalar dataType="xsd:integer" dictRef="compchem:atomicNumber">6</scalar></atom><atom id="a6" elementType="C" x3="1.170941" y3="-1.200886" z3="0.003323"><scalar dataType="xsd:integer" dictRef="cc:serial">6</scalar><scalar dataType="xsd:integer" dictRef="g:atomicType">0</scalar><scalar dataType="xsd:integer" dictRef="compchem:atomicNumber">6</scalar></atom><atom id="a7" elementType="H" x3="-0.759562" y3="-2.148652" z3="-0.012787"><scalar dataType="xsd:integer" dictRef="cc:serial">7</scalar><scalar dataType="xsd:integer" dictRef="g:atomicType">0</scalar><scalar dataType="xsd:integer" dictRef="compchem:atomicNumber">1</scalar></atom><atom id="a8" elementType="N" x3="-2.333259" y3="-4.0E-6" z3="-0.070788"><scalar dataType="xsd:integer" dictRef="cc:serial">8</scalar><scalar dataType="xsd:integer" dictRef="g:atomicType">0</scalar><scalar dataType="xsd:integer" dictRef="compchem:atomicNumber">7</scalar></atom><atom id="a9" elementType="H" x3="-0.759563" y3="2.148652" z3="-0.012774"><scalar dataType="xsd:integer" dictRef="cc:serial">9</scalar><scalar dataType="xsd:integer" dictRef="g:atomicType">0</scalar><scalar dataType="xsd:integer" dictRef="compchem:atomicNumber">1</scalar></atom><atom id="a10" elementType="H" x3="1.703842" y3="2.145717" z3="0.006879"><scalar dataType="xsd:integer" dictRef="cc:serial">10</scalar><scalar dataType="xsd:integer" dictRef="g:atomicType">0</scalar><scalar dataType="xsd:integer" dictRef="compchem:atomicNumber">1</scalar></atom><atom id="a11" elementType="H" x3="2.963804" y3="1.0E-6" z3="0.013544"><scalar dataType="xsd:integer" dictRef="cc:serial">11</scalar><scalar dataType="xsd:integer" dictRef="g:atomicType">0</scalar><scalar dataType="xsd:integer" dictRef="compchem:atomicNumber">1</scalar></atom><atom id="a12" elementType="H" x3="1.703843" y3="-2.145716" z3="0.006879"><scalar dataType="xsd:integer" dictRef="cc:serial">12</scalar><scalar dataType="xsd:integer" dictRef="g:atomicType">0</scalar><scalar dataType="xsd:integer" dictRef="compchem:atomicNumber">1</scalar></atom><atom id="a13" elementType="H" x3="-2.79032" y3="0.838672" z3="0.254602"><scalar dataType="xsd:integer" dictRef="cc:serial">13</scalar><scalar dataType="xsd:integer" dictRef="g:atomicType">0</scalar><scalar dataType="xsd:integer" dictRef="compchem:atomicNumber">1</scalar></atom><atom id="a14" elementType="H" x3="-2.790322" y3="-0.838649" z3="0.254677"><scalar dataType="xsd:integer" dictRef="cc:serial">14</scalar><scalar dataType="xsd:integer" dictRef="g:atomicType">0</scalar><scalar dataType="xsd:integer" dictRef="compchem:atomicNumber">1</scalar></atom></atomArray><formula formalCharge="0" concise="C 6 H 7 N 1"><atomArray elementType="C H N" count="6.0 7.0 1.0"/></formula><bondArray><bond atomRefs2="a1 a2" id="a1_a2" order="2"/><bond atomRefs2="a1 a6" id="a1_a6" order="S"/><bond atomRefs2="a1 a7" id="a1_a7" order="S"/><bond atomRefs2="a2 a3" id="a2_a3" order="S"/><bond atomRefs2="a2 a8" id="a2_a8" order="S"/><bond atomRefs2="a3 a4" id="a3_a4" order="2"/><bond atomRefs2="a3 a9" id="a3_a9" order="S"/><bond atomRefs2="a4 a5" id="a4_a5" order="S"/><bond atomRefs2="a4 a10" id="a4_a10" order="S"/><bond atomRefs2="a5 a6" id="a5_a6" order="2"/><bond atomRefs2="a5 a11" id="a5_a11" order="S"/><bond atomRefs2="a6 a12" id="a6_a12" order="S"/><bond atomRefs2="a8 a13" id="a8_a13" order="S"/><bond atomRefs2="a8 a14" id="a8_a14" order="S"/></bondArray><property dictRef="cml:molmass"><scalar dataType="xsd:double" units="unit:dalton" xmlns:unit="http://www.xml-cml.org/unit/si/">93.12648</scalar></property></molecule></module><module cmlx:lineCount="1" cmlx:templateRef="l202.rotconst"><array dataType="xsd:double" size="3" dictRef="cc:rotconst" cmlx:templateRef="rotconst">5.6323854 2.5909392 1.7769984</array></module><scalar dataType="xsd:integer" dictRef="g:buffer" cmlx:templateRef="buffer">131072</scalar><scalar dataType="xsd:string" dictRef="g:raffenetti" cmlx:templateRef="raff">Raffenetti</scalar><scalar dataType="xsd:string" dictRef="g:twoe" cmlx:templateRef="twoe">Two-electron</scalar><module cmlx:lineCount="12" cmlx:templateRef="l301.basis"><scalar dataType="xsd:string" dictRef="cc:basis">6-311+G(d,p)</scalar><scalar dataType="xsd:string" dictRef="cc:diffuse">(5D, 7F)</scalar><list cmlx:lineCount="1" cmlx:templateRef="symmadapt"><array dataType="xsd:integer" dictRef="cc:adapted" size="1">196</array><array dataType="xsd:string" dictRef="cc:symm" size="1">A</array></list><scalar dataType="xsd:integer" dictRef="cc:basiscount">196</scalar><scalar dataType="xsd:integer" dictRef="g:primbasis">308</scalar><scalar dataType="xsd:integer" dictRef="cc:cartesianbasis">203</scalar><scalar dataType="xsd:integer" dictRef="cc:alphae">25</scalar><scalar dataType="xsd:integer" dictRef="cc:betae">25</scalar> IExCor= 402 DFT=T Ex=B+HF Corr=LYP ExCW=0 ScaHFX=  0.200000 ScaDFX=  0.800000  0.720000  1.000000  0.810000 IRadAn=      0 IRanWt=     -1 IRanGd=            0 ICorTp=0 NAtoms=   14 NActive=   14 NUniq=   14 SFac= 1.00D+00 NAtFMM=   60 Big=F</module> NPDir=0 NMtPBC=     1 NCelOv=     1 NCel=       1 NClECP=     1 NCelD=      1         NCelK=      1 NCelE2=     1 NClLst=     1 CellRange=     0.0.<module cmlx:lineCount="1" cmlx:templateRef="l302.basis"><list cmlx:templateRef="onee"><scalar dataType="xsd:string" dictRef="g:onee">One-electron integrals</scalar></list></module> NBasis=   196 RedAO= T  NBF=   196 NBsUse=   196 1.00D-06 NBFU=   196 Precomputing XC quadrature grid using IXCGrd= 2 IRadAn=           0 IRanWt=          -1 IRanGd=           0. NRdTot=     898 NPtTot=      113936 NUsed=      120279 NTot=      120311 NSgBfM=   203   203   203   203.<module cmlx:lineCount="1" cmlx:templateRef="l303.basis"><list cmlx:templateRef="l303"><scalar dataType="xsd:integer" dictRef="g:dipdrv">1</scalar></list></module> Initial guess read from the read-write file: Guess basis will be translated and rotated to current coordinates. Initial guess orbital symmetries:       Occupied  (A) (A) (A) (A) (A) (A) (A) (A) (A) (A) (A) (A)                 (A) (A) (A) (A) (A) (A) (A) (A) (A) (A) (A) (A)                 (A)       Virtual   (A) (A) (A) (A) (A) (A) (A) (A) (A) (A) (A) (A)                 (A) (A) (A) (A) (A) (A) (A) (A) (A) (A) (A) (A)                 (A) (A) (A) (A) (A) (A) (A) (A) (A) (A) (A) (A)                 (A) (A) (A) (A) (A) (A) (A) (A) (A) (A) (A) (A)                 (A) (A) (A) (A) (A) (A) (A) (A) (A) (A) (A) (A)                 (A) (A) (A) (A) (A) (A) (A) (A) (A) (A) (A) (A)                 (A) (A) (A) (A) (A) (A) (A) (A) (A) (A) (A) (A)                 (A) (A) (A) (A) (A) (A) (A) (A) (A) (A) (A) (A)                 (A) (A) (A) (A) (A) (A) (A) (A) (A) (A) (A) (A)                 (A) (A) (A) (A) (A) (A) (A) (A) (A) (A) (A) (A)                 (A) (A) (A) (A) (A) (A) (A) (A) (A) (A) (A) (A)                 (A) (A) (A) (A) (A) (A) (A) (A) (A) (A) (A) (A)                 (A) (A) (A) (A) (A) (A) (A) (A) (A) (A) (A) (A)                 (A) (A) (A) (A) (A) (A) (A) (A) (A) (A) (A) (A)                 (A) (A) (A) The electronic state of the initial guess is 1-A.<module cmlx:lineCount="138" cmlx:templateRef="l502"><list cmlx:templateRef="l502.type"><scalar dataType="xsd:string" dictRef="g:l502.type">Closed</scalar></list> Requested convergence on RMS density matrix=1.00D-08 within 128 cycles. Requested convergence on MAX density matrix=1.00D-06. Requested convergence on             energy=1.00D-06. No special actions if energy rises. Using DIIS extrapolation, IDIIS=  1040. Integral symmetry usage will be decided dynamically.       120278 words used for storage of precomputed grid. IEnd=    284043 IEndB=    284043 NGot=   6291456 MDV=   6065466 LenX=   6065466 Fock matrices will be formed incrementally for  20 cycles.<module cmlx:lineCount="121" cmlx:templateRef="l502.cycle"><list cmlx:templateRef="cycle"><list><scalar dataType="xsd:integer" dictRef="cc:cycle">1</scalar><scalar dataType="xsd:integer" dictRef="g:pass">1</scalar><scalar dataType="xsd:integer" dictRef="g:idiag">1</scalar></list></list><module cmlx:lineCount="1" cmlx:templateRef="l502.e"><list cmlx:templateRef="l502.e"><scalar dataType="xsd:double" dictRef="g:l502.e">-287.687600732334</scalar></list></module> Cycle   2  Pass 1  IDiag  1:<module cmlx:lineCount="1" cmlx:templateRef="l502.ediff"><list cmlx:templateRef="l502.ediff"><list><scalar dataType="xsd:double" dictRef="g:l502.e">-287.687618687115</scalar><scalar dataType="xsd:double" dictRef="g:l502.deltae">-1.7954781E-5</scalar></list></list></module> Cycle   3  Pass 1  IDiag  1:<module cmlx:lineCount="1" cmlx:templateRef="l502.ediff"><list cmlx:templateRef="l502.ediff"><list><scalar dataType="xsd:double" dictRef="g:l502.e">-287.687620037721</scalar><scalar dataType="xsd:double" dictRef="g:l502.deltae">-1.350606E-6</scalar></list></list></module> Cycle   4  Pass 1  IDiag  1:<module cmlx:lineCount="1" cmlx:templateRef="l502.ediff"><list cmlx:templateRef="l502.ediff"><list><scalar dataType="xsd:double" dictRef="g:l502.e">-287.687621986322</scalar><scalar dataType="xsd:double" dictRef="g:l502.deltae">-1.9486E-6</scalar></list></list></module> Cycle   5  Pass 1  IDiag  1:<module cmlx:lineCount="1" cmlx:templateRef="l502.ediff"><list cmlx:templateRef="l502.ediff"><list><scalar dataType="xsd:double" dictRef="g:l502.e">-287.687622010848</scalar><scalar dataType="xsd:double" dictRef="g:l502.deltae">-2.4526E-8</scalar></list></list></module> Cycle   6  Pass 1  IDiag  1:<module cmlx:lineCount="1" cmlx:templateRef="l502.ediff"><list cmlx:templateRef="l502.ediff"><list><scalar dataType="xsd:double" dictRef="g:l502.e">-287.68762202272</scalar><scalar dataType="xsd:double" dictRef="g:l502.deltae">-1.1872E-8</scalar></list></list></module> Cycle   7  Pass 1  IDiag  1:                    CP:  8.29D-01<module cmlx:lineCount="1" cmlx:templateRef="l502.ediff"><list cmlx:templateRef="l502.ediff"><list><scalar dataType="xsd:double" dictRef="g:l502.e">-287.6876220231</scalar><scalar dataType="xsd:double" dictRef="g:l502.deltae">-3.8E-10</scalar></list></list></module> Cycle   8  Pass 1  IDiag  1:                    CP:  8.21D-01  7.88D-01<module cmlx:lineCount="1" cmlx:templateRef="l502.ediff"><list cmlx:templateRef="l502.ediff"><list><scalar dataType="xsd:double" dictRef="g:l502.e">-287.687622023185</scalar><scalar dataType="xsd:double" dictRef="g:l502.deltae">-8.5E-11</scalar></list></list></module> Cycle   9  Pass 1  IDiag  1:                    CP:  8.27D-01  8.28D-01  9.79D-01<module cmlx:lineCount="1" cmlx:templateRef="l502.ediff"><list cmlx:templateRef="l502.ediff"><list><scalar dataType="xsd:double" dictRef="g:l502.e">-287.687622023181</scalar><scalar dataType="xsd:double" dictRef="g:l502.deltae">3.0E-12</scalar></list></list></module> RMSDP=8.48D-09 MaxDP=3.72D-07 DE= 3.30D-12 OVMax= 2.44D-07</module><module cmlx:lineCount="4" cmlx:templateRef="l502.footer"><list cmlx:templateRef="l502"><scalar dataType="xsd:string" dictRef="g:l502">SCF Done:  E(RB+HF-LYP) =  -287.687622023     A.U. after    9 cycles</scalar><scalar dataType="xsd:string" dictRef="g:l502">Convg  =    0.8484D-08             -V/T =  2.0045</scalar><scalar dataType="xsd:string" dictRef="g:l502">S**2   =   0.0000</scalar><scalar dataType="xsd:string" dictRef="g:l502">KE= 2.863874778219D+02 PE=-1.210755616349D+03 EE= 3.653812194935D+02</scalar></list></module></module><module cmlx:lineCount="1" cmlx:templateRef="l701"/> ... and contract with generalized density number  0.<module cmlx:lineCount="1" cmlx:templateRef="l702"/><module cmlx:lineCount="1" cmlx:templateRef="l701"/> Integral derivatives from FoFDir, PRISM(SPDF). Symmetry not used in FoFDir. MinBra= 0 MaxBra= 2 Meth= 1. IRaf=       0 NMat=   1 IRICut=       1 DoRegI=T DoRafI=F ISym2E= 0 JSym2E=0.<module cmlx:lineCount="2" cmlx:templateRef="l716.dipole"><array dataType="xsd:double" size="3" dictRef="x:d" cmlx:templateRef="dipole">-0.513311873 1.43214648E-5 0.369246693</array> ***** Axes restored to original set *****</module> ------------------------------------------------------------------- Center     Atomic                   Forces (Hartrees/Bohr) Number     Number              X              Y              Z -------------------------------------------------------------------    1          6          -0.000286075    0.000003566    0.000356522    2          6           0.001103538   -0.000214130   -0.000658106    3          6          -0.000449370    0.000003943    0.000082087    4          6          -0.000051172    0.000013329   -0.000134341    5          6          -0.000225360   -0.000007601    0.000134313    6          6           0.000093955    0.000013506    0.000108815    7          1           0.000099642    0.000004567    0.000008075    8          7          -0.000404417    0.000453967    0.000241456    9          1           0.000040228    0.000004650   -0.000091506   10          1          -0.000066267    0.000005174   -0.000038138   11          1          -0.000045890   -0.000012621    0.000027341   12          1           0.000002006    0.000005164    0.000076452   13          1           0.000085932   -0.000136965   -0.000070951   14          1           0.000103251   -0.000136549   -0.000042018 ------------------------------------------------------------------- Cartesian Forces:  Max     0.001103538 RMS     0.000255881<module cmlx:lineCount="98" cmlx:templateRef="l103"><list cmlx:templateRef="berny"><scalar dataType="xsd:string" dictRef="g:optimization">Internal  Forces:  Max     0.000495551 RMS     0.000135825</scalar></list> Search for a local minimum. Step number   2 out of a maximum of  73 All quantities printed in internal units (Hartrees-Bohrs-Radians) Update second derivatives using D2CorX and points  1  2<module cmlx:lineCount="1" cmlx:templateRef="l103.trust"> Trust test= 9.46D-01 RLast= 1.78D-02 DXMaxT set to 3.00D-01</module>     Eigenvalues ---    0.01799   0.01998   0.02091   0.02150   0.02165     Eigenvalues ---    0.02200   0.02202   0.02215   0.02226   0.02229     Eigenvalues ---    0.03994   0.15981   0.16000   0.16000   0.16000     Eigenvalues ---    0.16000   0.16000   0.16159   0.21993   0.22000     Eigenvalues ---    0.23063   0.24969   0.35331   0.35343   0.35448     Eigenvalues ---    0.35453   0.35619   0.41241   0.42463   0.45257     Eigenvalues ---    0.45913   0.46289   0.46312   0.47207   0.47305     Eigenvalues ---    0.526171000.000001000.000001000.000001000.00000     Eigenvalues --- 1000.000001000.000001000.000001000.000001000.00000     Eigenvalues --- 1000.000001000.000001000.000001000.000001000.00000     Eigenvalues --- 1000.000001000.000001000.000001000.000001000.00000     Eigenvalues --- 1000.000001000.000001000.000001000.000001000.00000     Eigenvalues --- 1000.000001000.000001000.00000<module cmlx:lineCount="5" cmlx:templateRef="rfo"> Quartic linear search produced a step of -0.04842. Iteration  1 RMS(Cart)=  0.00101609 RMS(Int)=  0.00000281 Iteration  2 RMS(Cart)=  0.00000212 RMS(Int)=  0.00000203 Iteration  3 RMS(Cart)=  0.00000000 RMS(Int)=  0.00000203</module><module cmlx:lineCount="65" cmlx:templateRef="l103.deltas"><list cmlx:lineCount="63" cmlx:templateRef="delta"><array dataType="xsd:string" dictRef="cc:variable" size="63">R1 R2 R3 R4 R5 R6 R7 R8 R9 R10 R11 R12 R13 R14 A1 A2 A3 A4 A5 A6 A7 A8 A9 A10 A11 A12 A13 A14 A15 A16 A17 A18 A19 A20 A21 D1 D2 D3 D4 D5 D6 D7 D8 D9 D10 D11 D12 D13 D14 D15 D16 D17 D18 D19 D20 D21 D22 D23 D24 D25 D26 D27 D28</array><array dataType="xsd:double" dictRef="g:lastval" size="63">2.65259 2.62917 2.05187 2.65259 2.63907 2.62917 2.05187 2.63583 2.0499 2.63584 2.04729 2.0499 1.90681 1.90681 2.10375 2.08502 2.0944 2.06797 2.1071 2.10711 2.10375 2.08502 2.0944 2.1083 2.08049 2.0944 2.0743 2.10444 2.10444 2.1083 2.08049 2.0944 2.02404 2.02404 1.96234 0.00163 3.09535 -3.1352 -0.04147 -9.1E-4 3.14016 3.13588 -0.00623 -0.00162 3.1352 -3.09535 0.04148 2.77501 0.41561 -0.41552 -2.77492 9.1E-4 -3.14016 -3.13589 0.00623 -1.6E-4 -3.1413 3.14091 -2.3E-4 1.6E-4 -3.14091 3.1413 2.3E-4</array><array dataType="xsd:double" dictRef="cc:deriv" size="63">-5.0E-4 -1.7E-4 -9.0E-5 -5.0E-4 2.6E-4 -1.7E-4 -9.0E-5 -2.2E-4 -8.0E-5 -2.2E-4 -5.0E-5 -8.0E-5 -2.0E-5 -2.0E-5 -1.6E-4 1.2E-4 4.0E-5 3.5E-4 -1.8E-4 -1.8E-4 -1.6E-4 1.2E-4 4.0E-5 -4.0E-5 2.0E-5 2.0E-5 6.0E-5 -3.0E-5 -3.0E-5 -4.0E-5 2.0E-5 2.0E-5 -1.7E-4 -1.7E-4 8.0E-5 1.0E-5 -1.0E-5 1.0E-5 -1.0E-5 0.0 0.0 0.0 0.0 -1.0E-5 -1.0E-5 1.0E-5 1.0E-5 -1.3E-4 1.4E-4 -1.4E-4 1.3E-4 0.0 0.0 0.0 0.0 1.0E-5 1.0E-5 1.0E-5 0.0 -1.0E-5 -1.0E-5 -1.0E-5 0.0</array><array dataType="xsd:double" dictRef="cc:delta.linear" size="63">-2.1E-4 -3.1E-4 -2.0E-5 -2.1E-4 -4.2E-4 -3.1E-4 -2.0E-5 -3.0E-4 -2.0E-5 -3.0E-4 -2.0E-5 -2.0E-5 -8.0E-5 -8.0E-5 2.0E-5 -2.0E-5 1.0E-5 -6.0E-5 3.0E-5 3.0E-5 2.0E-5 -2.0E-5 1.0E-5 2.0E-5 -2.0E-5 0.0 -1.0E-5 0.0 0.0 2.0E-5 -2.0E-5 0.0 -8.0E-5 -8.0E-5 1.4E-4 -8.0E-5 -7.0E-5 -4.0E-5 -4.0E-5 5.0E-5 2.0E-5 1.0E-5 -2.0E-5 8.0E-5 4.0E-5 7.0E-5 4.0E-5 1.0E-5 -1.0E-5 1.0E-5 -1.0E-5 -5.0E-5 -2.0E-5 -1.0E-5 1.0E-5 2.0E-5 0.0 -1.0E-5 -3.0E-5 -2.0E-5 1.0E-5 0.0 3.0E-5</array><array dataType="xsd:double" dictRef="cc:delta.quad" size="63">-7.0E-4 1.9E-4 -2.1E-4 -7.0E-4 0.00123 1.9E-4 -2.1E-4 8.0E-5 -1.8E-4 8.0E-5 -1.1E-4 -1.8E-4 1.0E-4 1.0E-4 -7.3E-4 6.5E-4 8.0E-5 0.00141 -7.2E-4 -7.2E-4 -7.3E-4 6.5E-4 8.0E-5 -1.5E-4 9.0E-5 6.0E-5 3.5E-4 -1.7E-4 -1.7E-4 -1.5E-4 9.0E-5 6.0E-5 -0.00192 -0.00192 -0.0012 3.6E-4 -3.8E-4 4.9E-4 -2.5E-4 1.0E-5 2.0E-5 -1.3E-4 -1.2E-4 -3.6E-4 -5.0E-4 3.8E-4 2.4E-4 -0.00291 0.00358 -0.00361 0.00289 0.0 -2.0E-5 1.3E-4 1.2E-4 3.7E-4 2.3E-4 3.8E-4 2.4E-4 -3.7E-4 -3.8E-4 -2.3E-4 -2.4E-4</array><array dataType="xsd:double" dictRef="cc:delta.total" size="63">-9.1E-4 -1.3E-4 -2.3E-4 -9.1E-4 8.1E-4 -1.3E-4 -2.3E-4 -2.2E-4 -1.9E-4 -2.2E-4 -1.3E-4 -1.9E-4 2.0E-5 2.0E-5 -7.1E-4 6.2E-4 9.0E-5 0.00135 -6.9E-4 -6.9E-4 -7.1E-4 6.2E-4 9.0E-5 -1.3E-4 7.0E-5 6.0E-5 3.4E-4 -1.7E-4 -1.7E-4 -1.3E-4 7.0E-5 6.0E-5 -0.00201 -0.00201 -0.00107 2.8E-4 -4.6E-4 4.5E-4 -2.9E-4 5.0E-5 4.0E-5 -1.2E-4 -1.3E-4 -2.8E-4 -4.5E-4 4.6E-4 2.9E-4 -0.00289 0.00357 -0.00359 0.00287 -5.0E-5 -3.0E-5 1.2E-4 1.4E-4 3.8E-4 2.3E-4 3.7E-4 2.1E-4 -3.8E-4 -3.7E-4 -2.3E-4 -2.1E-4</array><array dataType="xsd:double" dictRef="cc:newval" size="63">2.65168 2.62904 2.05164 2.65168 2.63988 2.62904 2.05164 2.63562 2.0497 2.63562 2.04717 2.0497 1.90683 1.90683 2.10304 2.08564 2.09449 2.06932 2.10641 2.10641 2.10304 2.08564 2.09449 2.10816 2.08056 2.09446 2.07464 2.10427 2.10427 2.10816 2.08057 2.09446 2.02202 2.02203 1.96126 0.00191 3.0949 -3.13475 -0.04176 -8.6E-4 3.14019 3.13577 -0.00637 -0.0019 3.13475 -3.09489 0.04176 2.77212 0.41918 -0.41911 -2.77205 8.6E-4 -3.14019 -3.13577 0.00636 2.3E-4 -3.14107 3.14127 -2.0E-5 -2.2E-4 -3.14127 3.14107 2.0E-5</array></list></module><module cmlx:lineCount="5" cmlx:templateRef="l103.itemconverge"><list cmlx:lineCount="4" cmlx:templateRef="row"><array dataType="xsd:string" dictRef="g:item"/><array dataType="xsd:double" dictRef="g:value" size="4">4.5E-4 3.0E-4 0.0018 0.0012</array><array dataType="xsd:double" dictRef="g:threshold" size="4">0.0 0.0 0.0 0.0</array><array dataType="xsd:string" dictRef="g:converged" size="4">NO YES NO YES</array></list></module><module cmlx:lineCount="1" cmlx:templateRef="preddelta"><list cmlx:templateRef="predicted"><scalar dataType="xsd:double" dictRef="g:predchange">-2.438532E-6</scalar></list></module> GradGradGradGradGradGradGradGradGradGradGradGradGradGradGradGradGradGrad</module><module cmlx:lineCount="20" cmlx:templateRef="l202.orient"><molecule id="a14" cmlx:templateRef="atom"><atomArray><atom id="a1" elementType="C" x3="-0.001892" y3="0.001125" z3="-0.001807"><scalar dataType="xsd:integer" dictRef="cc:serial">1</scalar><scalar dataType="xsd:integer" dictRef="g:atomicType">0</scalar><scalar dataType="xsd:integer" dictRef="compchem:atomicNumber">6</scalar></atom><atom id="a2" elementType="C" x3="-1.6E-5" y3="5.74E-4" z3="1.4014"><scalar dataType="xsd:integer" dictRef="cc:serial">2</scalar><scalar dataType="xsd:integer" dictRef="g:atomicType">0</scalar><scalar dataType="xsd:integer" dictRef="compchem:atomicNumber">6</scalar></atom><atom id="a3" elementType="C" x3="1.233301" y3="0.001127" z3="2.070669"><scalar dataType="xsd:integer" dictRef="cc:serial">3</scalar><scalar dataType="xsd:integer" dictRef="g:atomicType">0</scalar><scalar dataType="xsd:integer" dictRef="compchem:atomicNumber">6</scalar></atom><atom id="a4" elementType="C" x3="2.425594" y3="-8.2E-5" z3="1.35376"><scalar dataType="xsd:integer" dictRef="cc:serial">4</scalar><scalar dataType="xsd:integer" dictRef="g:atomicType">0</scalar><scalar dataType="xsd:integer" dictRef="compchem:atomicNumber">6</scalar></atom><atom id="a5" elementType="C" x3="2.420017" y3="-8.39E-4" z3="-0.040937"><scalar dataType="xsd:integer" dictRef="cc:serial">5</scalar><scalar dataType="xsd:integer" dictRef="g:atomicType">0</scalar><scalar dataType="xsd:integer" dictRef="compchem:atomicNumber">6</scalar></atom><atom id="a6" elementType="C" x3="1.195944" y3="-8.7E-5" z3="-0.709413"><scalar dataType="xsd:integer" dictRef="cc:serial">6</scalar><scalar dataType="xsd:integer" dictRef="g:atomicType">0</scalar><scalar dataType="xsd:integer" dictRef="compchem:atomicNumber">6</scalar></atom><atom id="a7" elementType="H" x3="-0.94753" y3="0.007178" z3="-0.535133"><scalar dataType="xsd:integer" dictRef="cc:serial">7</scalar><scalar dataType="xsd:integer" dictRef="g:atomicType">0</scalar><scalar dataType="xsd:integer" dictRef="compchem:atomicNumber">1</scalar></atom><atom id="a8" elementType="N" x3="-1.199007" y3="0.057862" z3="2.115995"><scalar dataType="xsd:integer" dictRef="cc:serial">8</scalar><scalar dataType="xsd:integer" dictRef="g:atomicType">0</scalar><scalar dataType="xsd:integer" dictRef="compchem:atomicNumber">7</scalar></atom><atom id="a9" elementType="H" x3="1.25248" y3="0.007177" z3="3.156164"><scalar dataType="xsd:integer" dictRef="cc:serial">9</scalar><scalar dataType="xsd:integer" dictRef="g:atomicType">0</scalar><scalar dataType="xsd:integer" dictRef="compchem:atomicNumber">1</scalar></atom><atom id="a10" elementType="H" x3="3.36706" y3="-9.48E-4" z3="1.892388"><scalar dataType="xsd:integer" dictRef="cc:serial">10</scalar><scalar dataType="xsd:integer" dictRef="g:atomicType">0</scalar><scalar dataType="xsd:integer" dictRef="compchem:atomicNumber">1</scalar></atom><atom id="a11" elementType="H" x3="3.350588" y3="-0.002271" z3="-0.595557"><scalar dataType="xsd:integer" dictRef="cc:serial">11</scalar><scalar dataType="xsd:integer" dictRef="g:atomicType">0</scalar><scalar dataType="xsd:integer" dictRef="compchem:atomicNumber">1</scalar></atom><atom id="a12" elementType="H" x3="1.170119" y3="-9.56E-4" z3="-1.793761"><scalar dataType="xsd:integer" dictRef="cc:serial">12</scalar><scalar dataType="xsd:integer" dictRef="g:atomicType">0</scalar><scalar dataType="xsd:integer" dictRef="compchem:atomicNumber">1</scalar></atom><atom id="a13" elementType="H" x3="-1.159733" y3="-0.272632" z3="3.068576"><scalar dataType="xsd:integer" dictRef="cc:serial">13</scalar><scalar dataType="xsd:integer" dictRef="g:atomicType">0</scalar><scalar dataType="xsd:integer" dictRef="compchem:atomicNumber">1</scalar></atom><atom id="a14" elementType="H" x3="-2.018166" y3="-0.272694" z3="1.628253"><scalar dataType="xsd:integer" dictRef="cc:serial">14</scalar><scalar dataType="xsd:integer" dictRef="g:atomicType">0</scalar><scalar dataType="xsd:integer" dictRef="compchem:atomicNumber">1</scalar></atom></atomArray><formula formalCharge="0" concise="C 6 H 7 N 1"><atomArray elementType="C H N" count="6.0 7.0 1.0"/></formula><bondArray><bond atomRefs2="a1 a2" id="a1_a2" order="2"/><bond atomRefs2="a1 a6" id="a1_a6" order="S"/><bond atomRefs2="a1 a7" id="a1_a7" order="S"/><bond atomRefs2="a2 a3" id="a2_a3" order="S"/><bond atomRefs2="a2 a8" id="a2_a8" order="S"/><bond atomRefs2="a3 a4" id="a3_a4" order="2"/><bond atomRefs2="a3 a9" id="a3_a9" order="S"/><bond atomRefs2="a4 a5" id="a4_a5" order="S"/><bond atomRefs2="a4 a10" id="a4_a10" order="S"/><bond atomRefs2="a5 a6" id="a5_a6" order="2"/><bond atomRefs2="a5 a11" id="a5_a11" order="S"/><bond atomRefs2="a6 a12" id="a6_a12" order="S"/><bond atomRefs2="a8 a13" id="a8_a13" order="S"/><bond atomRefs2="a8 a14" id="a8_a14" order="S"/></bondArray><property dictRef="cml:molmass"><scalar dataType="xsd:double" units="unit:dalton" xmlns:unit="http://www.xml-cml.org/unit/si/">93.12648</scalar></property></molecule></module><module cmlx:lineCount="31" cmlx:templateRef="l202.distmat"><array dataType="xsd:double" s
[...]
A10 A11 A12 A13 A14 A15 A16 A17 A18 A19 A20 A21</array><array dataType="xsd:integer" size="21" dictRef="g:atom1">2 2 6 1 1 3 2 2 4 3 3 5 4 4 6 1 1 5 2 2 13</array><array dataType="xsd:integer" size="21" dictRef="g:atom2">1 1 1 2 2 2 3 3 3 4 4 4 5 5 5 6 6 6 8 8 8</array><array dataType="xsd:integer" size="21" dictRef="g:atom3">6 7 7 3 8 8 4 9 9 5 10 10 6 11 11 5 12 12 13 14 14</array><array dataType="xsd:double" size="21" dictRef="cc:angle">120.47 119.521 120.0084 118.6133 120.6626 120.6626 120.47 119.521 120.0084 120.78 119.223 119.997 118.8866 120.5567 120.5567 120.78 119.223 119.997 115.6871 115.6871 112.2204</array><array delimiter="|" dataType="xsd:string" size="21" dictRef="g:deriv">|-DE/DX =    0.0|-DE/DX =    0.0|-DE/DX =    0.0|-DE/DX =   -0.0001|-DE/DX =    0.0|-DE/DX =    0.0|-DE/DX =    0.0|-DE/DX =    0.0|-DE/DX =    0.0|-DE/DX =    0.0|-DE/DX =    0.0|-DE/DX =    0.0|-DE/DX =    0.0|-DE/DX =    0.0|-DE/DX =    0.0|-DE/DX =    0.0|-DE/DX =    0.0|-DE/DX =    0.0|-DE/DX =    0.0|-DE/DX =    0.0|-DE/DX =    0.0|</array></list><list cmlx:templateRef="dihed"><array dataType="xsd:string" size="27" dictRef="g:symbol">D1 D2 D3 D4 D5 D6 D7 D8 D9 D10 D11 D12 D13 D14 D15 D16 D17 D18 D19 D20 D21 D22 D23 D24 D25 D26 D27</array><array dataType="xsd:integer" size="27" dictRef="g:atom1">6 6 7 7 2 2 7 7 1 1 8 8 1 1 3 3 2 2 9 9 3 3 10 10 4 4 11</array><array dataType="xsd:integer" size="27" dictRef="g:atom2">1 1 1 1 1 1 1 1 2 2 2 2 2 2 2 2 3 3 3 3 4 4 4 4 5 5 5</array><array dataType="xsd:integer" size="27" dictRef="g:atom3">2 2 2 2 6 6 6 6 3 3 3 3 8 8 8 8 4 4 4 4 5 5 5 5 6 6 6</array><array dataType="xsd:integer" size="27" dictRef="g:atom4">3 8 3 8 5 12 5 12 4 9 4 9 13 14 13 14 5 10 5 10 6 11 6 11 1 12 1</array><array dataType="xsd:double" size="27" dictRef="cc:dihed">0.1305 177.2971 -179.5805 -2.4138 -0.06 179.9183 179.6496 -0.3721 -0.1304 179.5806 -177.2971 2.4139 158.5406 24.3527 -24.351 -158.5389 0.0599 -179.9184 -179.6498 0.372 0.0131 -179.9628 179.9912 0.0153 -0.0131 -179.9912 179.9629</array><array delimiter="|" dataType="xsd:string" size="27" dictRef="g:deriv">|-DE/DX =    0.0|-DE/DX =    0.0|-DE/DX =    0.0|-DE/DX =    0.0|-DE/DX =    0.0|-DE/DX =    0.0|-DE/DX =    0.0|-DE/DX =    0.0|-DE/DX =    0.0|-DE/DX =    0.0|-DE/DX =    0.0|-DE/DX =    0.0|-DE/DX =    0.0|-DE/DX =    0.0|-DE/DX =    0.0|-DE/DX =    0.0|-DE/DX =    0.0|-DE/DX =    0.0|-DE/DX =    0.0|-DE/DX =    0.0|-DE/DX =    0.0|-DE/DX =    0.0|-DE/DX =    0.0|-DE/DX =    0.0|-DE/DX =    0.0|-DE/DX =    0.0|-DE/DX =    0.0|</array></list> ! D28   D(11,5,6,12)           -0.0153         -DE/DX =    0.0                 !</module> -------------------------------------------------------------------------------- GradGradGradGradGradGradGradGradGradGradGradGradGradGradGradGradGradGrad</module><module cmlx:lineCount="188" cmlx:templateRef="l9999.archive"><scalar dataType="xsd:string" dictRef="cc:hostname">GINC-PUBLIX</scalar><scalar dataType="xsd:string" dictRef="g:operation">Freq</scalar><scalar dataType="xsd:string" dictRef="cc:method">RB3LYP</scalar><scalar dataType="xsd:string" dictRef="cc:basis">6-311+G(d,p)</scalar><scalar dataType="xsd:string" dictRef="cc:jobname">NOBODY</scalar><scalar dataType="xsd:date" dictRef="cc:date">2006-08-22T00:00:00Z</scalar><scalar dataType="xsd:string" dictRef="g:keyword">#P</scalar><scalar dataType="xsd:string" dictRef="g:keyword">GEOM=ALLCHECK</scalar><scalar dataType="xsd:string" dictRef="g:keyword">GUESS=READ</scalar><scalar dataType="xsd:string" dictRef="g:keyword">SCRF=CHECK</scalar><scalar dataType="xsd:string" dictRef="g:keyword">GENCHK</scalar><scalar dataType="xsd:string" dictRef="g:keyword">RB3LYP/6-311+G(D,P)</scalar><scalar dataType="xsd:string" dictRef="g:keyword">FREQ</scalar><scalar dataType="xsd:string" dictRef="cc:title">aniline basis2</scalar><molecule id="a14"><atomArray><atom id="a1" elementType="C" x3="-0.8071662174" y3="0.0037780803" z3="-0.9232352407"><scalar dataType="xsd:integer" dictRef="compchem:atomicNumber">6</scalar></atom><atom id="a2" elementType="C" x3="-0.804679417" y3="0.0034153968" z3="0.4795885118"><scalar dataType="xsd:integer" dictRef="compchem:atomicNumber">6</scalar></atom><atom id="a3" elementType="C" x3="0.428010891" y3="0.0037834936" z3="1.1492113747"><scalar dataType="xsd:integer" dictRef="compchem:atomicNumber">6</scalar></atom><atom id="a4" elementType="C" x3="1.6203341337" y3="0.0017641957" z3="0.4322758283"><scalar dataType="xsd:integer" dictRef="compchem:atomicNumber">6</scalar></atom><atom id="a5" elementType="C" x3="1.6145347642" y3="5.925046E-4" z3="-0.9622618926"><scalar dataType="xsd:integer" dictRef="compchem:atomicNumber">6</scalar></atom><atom id="a6" elementType="C" x3="0.3907082465" y3="0.001757651" z3="-1.6308562736"><scalar dataType="xsd:integer" dictRef="compchem:atomicNumber">6</scalar></atom><atom id="a7" elementType="H" x3="-1.7527295333" y3="0.010416656" z3="-1.4564660494"><scalar dataType="xsd:integer" dictRef="compchem:atomicNumber">1</scalar></atom><atom id="a8" elementType="N" x3="-2.0045162896" y3="0.0621451176" z3="1.194689484"><scalar dataType="xsd:integer" dictRef="compchem:atomicNumber">7</scalar></atom><atom id="a9" elementType="H" x3="0.4471415554" y3="0.0104245174" z3="2.2345957195"><scalar dataType="xsd:integer" dictRef="compchem:atomicNumber">1</scalar></atom><atom id="a10" elementType="H" x3="2.5619136028" y3="7.436408E-4" z3="0.9706258617"><scalar dataType="xsd:integer" dictRef="compchem:atomicNumber">1</scalar></atom><atom id="a11" elementType="H" x3="2.5450967981" y3="-0.001584849" z3="-1.5168765284"><scalar dataType="xsd:integer" dictRef="compchem:atomicNumber">1</scalar></atom><atom id="a12" elementType="H" x3="0.3651797634" y3="7.323274E-4" z3="-2.7151721437"><scalar dataType="xsd:integer" dictRef="compchem:atomicNumber">1</scalar></atom><atom id="a13" elementType="H" x3="-1.9638226776" y3="-0.2731335442" z3="2.1456948217"><scalar dataType="xsd:integer" dictRef="compchem:atomicNumber">1</scalar></atom><atom id="a14" elementType="H" x3="-2.8216198884" y3="-0.2731625036" z3="0.7064380833"><scalar dataType="xsd:integer" dictRef="compchem:atomicNumber">1</scalar></atom></atomArray><formula formalCharge="0" concise="C 6 H 7 N 1" dictRef="cc:formula.calc"/><bondArray><bond atomRefs2="a1 a2" id="a1_a2" order="2"/><bond atomRefs2="a1 a6" id="a1_a6" order="S"/><bond atomRefs2="a1 a7" id="a1_a7" order="S"/><bond atomRefs2="a2 a3" id="a2_a3" order="S"/><bond atomRefs2="a2 a8" id="a2_a8" order="S"/><bond atomRefs2="a3 a4" id="a3_a4" order="2"/><bond atomRefs2="a3 a9" id="a3_a9" order="S"/><bond atomRefs2="a4 a5" id="a4_a5" order="S"/><bond atomRefs2="a4 a10" id="a4_a10" order="S"/><bond atomRefs2="a5 a6" id="a5_a6" order="2"/><bond atomRefs2="a5 a11" id="a5_a11" order="S"/><bond atomRefs2="a6 a12" id="a6_a12" order="S"/><bond atomRefs2="a8 a13" id="a8_a13" order="S"/><bond atomRefs2="a8 a14" id="a8_a14" order="S"/></bondArray><property dictRef="cml:molmass"><scalar dataType="xsd:double" units="unit:dalton" xmlns:unit="http://www.xml-cml.org/unit/si/">93.12648</scalar></property><formula concise="C 6 H 7 N 1" dictRef="cc:formula.user"/></molecule><scalar dataType="xsd:string" dictRef="cc:version">Sun64-SVR4-Unix-G03RevB.04</scalar><scalar dataType="xsd:string" dictRef="cc:electronicstate">1-A</scalar><scalar dataType="xsd:double" dictRef="cc:hfenergy" units="nonsi:hartree">-287.6876275</scalar><scalar dataType="xsd:double" dictRef="cc:rmsd" units="nonsi:unknown">4.727E-9</scalar><scalar dataType="xsd:double" dictRef="cc:rmsf" units="nonsi:unknown">5.207E-5</scalar><array dataType="xsd:double" size="3" dictRef="cc:dipole" units="nonsi:debye">-0.4284889 -0.3792912 0.2553859</array><array dataType="xsd:double" size="126" dictRef="cc:dipolederiv" units="nonsi:unknown">-0.1247212 -0.0071125 0.041106 -0.0183463 -0.1754431 8.701E-4 0.449354 -0.016386 -0.2020617 1.141572 -0.0458126 -0.6905497 -0.0438167 0.0423329 0.0261128 -0.6905499 0.0273028 0.3944949 -0.3898028 0.0110299 0.3059649 -0.009498 -0.1754429 0.0157264 -0.1022837 0.0140515 0.0630185 0.1505639 -0.0032635 -0.1078958 -0.0040066 -0.1289761 0.0023748 0.0109565 -0.0013564 0.222459 -0.142015 0.0034152 -0.0742121 0.0045318 -0.1846547 -0.0027007 -0.0742119 -0.0020358 -0.2223019 0.2467509 -3.581E-4 0.0629872 -0.0039942 -0.1289761 0.0023945 -0.055865 0.0035168 0.1262714 -0.1009191 -0.001089 -0.0702322 2.629E-4 0.1431118 -5.015E-4 -0.0614417 6.459E-4 0.0306112 -1.1108855 0.0973123 0.588055 0.3741964 -0.459436 -0.223015 0.5880483 -0.0579913 -0.4746865 0.0559396 -0.0010864 0.0234081 5.661E-4 0.1431118 7.4E-6 0.0146174 6.497E-4 -0.1262486 -0.0708352 -5.11E-4 -0.0772272 -2.915E-4 0.1351118 6.121E-4 -0.0834258 6.293E-4 0.0258624 -0.0673928 1.894E-4 0.0769353 6.167E-4 0.1527933 -3.679E-4 0.0769353 -1.132E-4 0.0158399 0.0712032 -7.968E-4 -0.0065933 -6.778E-4 0.1351118 -3.59E-5 -3.948E-4 1.489E-4 -0.116176 0.1396197 -8.644E-4 -0.0584813 -0.1166723 0.2506794 0.1447928 -0.0464227 0.0575746 0.1621074 0.2009225 -0.0510526 -0.013265 -0.1828705 0.250676 0.0337303 -0.0253161 -0.026637 0.10081</array><array dataType="xsd:double" size="6" dictRef="cc:polarizability" units="nonsi:unknown">97.4069597 -0.0994395 47.9155487 -7.4617781 0.0593874 89.3343649</array><scalar dataType="xsd:string" dictRef="cc:pointgroup">C01 [X(C6H7N1)]</scalar><array dataType="xsd:double" size="903" dictRef="x:unknown">0.729029 -0.00309594 0.12164326 0.01279282 3.2211E-4 0.66174752 -0.12848008 -7.4427E-4 0.02011196 0.68477237 7.3936E-4 -0.06722923 0.00128848 0.00516662 0.1608724 -0.04690157 6.3314E-4 -0.29908676 -0.00201972 -0.00307706 0.68258711 0.02926716 3.0159E-4 -0.06470969 -0.24925653 -7.8237E-4 -0.04521911 0.66627063 2.4786E-4 0.00750457 -2.0895E-4 -9.1185E-4 -0.06722916 3.5276E-4 -0.00175476 0.12164319 -0.02806064 -1.1867E-4 -0.02091479 -0.11223277 -0.00126413 -0.1783107 -0.02115442 0.00257139 0.72450555 -0.01617519 -3.5432E-4 0.02278256 -0.06008357 6.2106E-4 -0.02088857 -0.28361091 0.00134933 0.12558234 0.71418388 1.3E-6 -0.00448797 2.85E-6 -5.4677E-4 0.00231654 2.705E-5 5.576E-4 -0.05696455 -1.6413E-4 -0.00101392 0.13514198 0.02865094 4.8411E-4 -0.04889855 0.02711087 4.5749E-4 0.06976378 0.06465037 -0.00115166 -0.18294887 0.03056681 5.6421E-4 0.67733071 -0.05854922 -4.4339E-4 0.02607148 -0.01425683 -7.0786E-4 -0.0357763 0.03017288 3.4629E-4 0.02768839 -0.125478 2.577E-5 0.03067191 0.71529067 6.973E-5 0.008574 9.613E-5 2.1875E-4 -0.00553354 -1.3058E-4 -5.104E-5 0.00857401 -1.0714E-4 1.648E-4 -0.06200018 -3.1429E-4 -9.2789E-4 0.1240164 -0.02030379 -6.3342E-4 0.05925307 -0.0357763 4.2177E-4 -0.05296164 0.07406369 6.9146E-4 -0.02946907 -0.03216108 -3.2475E-4 -0.32770529 -0.04138925 5.5469E-4 0.67051415 -0.28534423 0.00165483 0.06371315 0.03776669 -1.066E-4 0.08004079 -0.06301493 -5.9454E-4 0.00331409 0.02925859 2.609E-5 -0.07777429 -0.28130416 3.539E-4 -0.05361866 0.66008981 4.0974E-4 -0.05696453 -4.1275E-4 -2.8374E-4 0.00231655 4.6815E-4 -2.0E-6 -0.00448799 -2.5E-6 -5.994E-5 0.00724922 -6.232E-5 2.967E-4 -0.06200021 1.3114E-4 -9.7738E-4 0.13514201 0.12464513 -6.3909E-4 -0.18121607 0.03204136 -7.6403E-4 -0.02808649 -0.00255433 8.125E-5 -0.00205883 -0.02952767 8.215E-5 -0.02878394 -0.11645165 3.75E-6 -0.1718786 0.00130545 6.2609E-4 0.73142474 -0.26219781 0.00142719 -0.11712909 -1.3586E-4 -3.524E-5 0.00237286 0.00182453 5.693E-5 3.4387E-4 2.0711E-4 -1.641E-5 6.4071E-4 -0.00244299 8.323E-5 0.00439112 -0.01954845 1.2179E-4 -0.01599201 0.28000681 0.0019262 -0.03240243 0.00116916 -8.84E-6 0.0039125 -2.9441E-4 3.239E-5 0.00548784 -3.4E-6 -2.787E-5 -7.5465E-4 5.245E-5 -1.912E-5 0.00700649 4.87E-6 -1.2319E-4 0.00208642 2.63E-6 -0.00163942 0.02248551 -0.1167942 0.00106376 -0.12603346 -0.02937104 1.1918E-4 -0.01015446 0.00133404 -3.241E-5 -0.00566052 0.00100174 -8.87E-6 -9.383E-4 0.00322798 3.069E-5 -7.2449E-4 0.0152258 -1.1431E-4 0.01162361 0.12619149 -0.00126502 0.12990498 -0.00211729 4.1035E-4 0.01516156 -0.24506584 0.01631167 0.07401468 -0.0537835 0.00183295 0.0203147 0.00474162 2.167E-5 -0.00807538 -0.00399628 -2.1535E-4 0.00651061 -3.5849E-4 -9.1033E-4 -0.00515317 0.00190841 7.4161E-4 -8.7185E-4 0.66597662 -3.8765E-4 0.00734685 -0.00418682 -0.02217437 -0.03872582 0.01321457 0.00349793 0.007347 0.00233317 -0.00220822 0.00494299 9.698E-5 0.00214247 -0.00129994 -0.00127699 -0.00113581 0.00494289 0.00189601 1.868E-5 -0.00287562 -3.9136E-4 0.13307376 0.13242804 0.04826244 -0.00186225 -0.03459345 0.07401573 -0.00972293 -0.16499224 -0.01278626 5.2515E-4 0.01707265 -0.00239425 0.00104674 -0.00751427 0.00651059 1.2836E-4 0.00304738 -0.01083424 -5.172E-4 -0.00241412 5.9427E-4 4.8947E-4 0.00193065 0.07086599 -0.07929959 0.74264914 -0.00466832 5.555E-5 -0.00217813 0.00341155 -1.2166E-4 -0.02745209 -0.0589645 -2.5671E-4 -0.00685983 0.00488794 1.5858E-4 0.0284441 -0.00430194 1.258E-5 0.00222242 -0.00136635 0.0 1.5061E-4 8.3E-5 1.681E-5 -0.00147447 0.00204179 3.5312E-4 -7.9977E-4 0.05826604 1.836E-5 0.00548784 -2.691E-5 2.5484E-4 0.00391249 1.4769E-4 -1.121E-4 -0.0324024 -0.00225108 -6.089E-5 0.00208641 1.0711E-4 -1.339E-5 0.00700647 1.451E-5 -5.943E-5 -7.5465E-4 -4.4E-7 8.9E-6 -1.43E-5 -1.431E-5 -7.764E-5 -0.00287567 -8.8511E-4 3.3275E-4 0.02248551 -0.0031683 -3.467E-5 8.3234E-4 0.0042918 -2.575E-5 -0.01370195 -0.00719472 -0.00176206 -0.3292666 -0.00277371 -5.281E-5 -0.01281279 0.00338557 -8.781E-5 0.00113446 -2.1041E-4 1.866E-5 6.3515E-4 4.858E-5 -1.03E-6 -6.8831E-4 6.6641E-4 1.698E-4 0.00179729 0.00624592 0.00204458 0.35164564 2.1929E-4 -6.18E-6 8.2957E-4 -0.00224515 8.943E-5 0.00390145 -0.01898197 6.05E-5 -0.01550706 -0.26595572 1.8864E-4 -0.11811767 0.00324196 2.752E-5 0.00189697 0.00183358 8.98E-6 2.169E-4 -5.79E-5 -2.34E-6 -7.504E-5 -0.00113291 -1.2527E-4 -9.1144E-4 9.6575E-4 -2.92E-6 2.8713E-4 0.28168897 -1.04E-5 -9.4291E-4 -5.179E-5 -3.931E-5 0.00750697 5.641E-5 -1.589E-5 0.00335035 2.345E-5 2.2299E-4 -0.036946 1.4503E-4 -2.681E-5 0.00366041 -6.368E-5 2.635E-5 0.00683978 -1.707E-5 -2.6E-6 -9.0295E-4 5.3E-6 1.1083E-4 1.6411E-4 -6.386E-5 -1.51E-5 -0.0042434 4.662E-5 -2.7013E-4 0.02543844 9.1488E-4 1.746E-5 -5.87E-4 0.00359023 -1.1689E-4 -0.00100354 0.01523577 -4.329E-5 0.01105283 -0.11857032 1.3501E-4 -0.12685756 -0.02900279 3.434E-5 -0.00965383 0.00102141 -1.681E-5 -0.00595068 -8.887E-5 -5.6E-7 6.616E-5 4.1597E-4 1.7002E-4 6.2119E-4 -4.3502E-4 8.84E-6 8.9547E-4 0.12762114 -1.1672E-4 0.13118242 -0.00267902 2.59E-6 -0.00400653 2.658E-5 3.282E-5 -9.1914E-4 0.00170549 1.1E-6 -5.6264E-4 0.00387392 3.58E-6 -0.00265855 -0.26371985 4.9714E-4 0.12253087 -0.01864076 5.034E-5 0.01658475 -0.00105269 -9.96E-6 7.8041E-4 1.3276E-4 -3.911E-5 1.7661E-4 4.389E-5 1.33E-6 -1.8494E-4 7.0227E-4 -8.78E-6 4.8099E-4 0.27864354 -6.14E-6 0.00636696 5.06E-6 -8.0E-8 -5.0828E-4 4.0E-8 -7.42E-6 0.00636697 2.95E-6 3.855E-5 0.00157352 -1.0E-7 5.3227E-4 -0.03173169 -3.1731E-4 1.828E-5 0.00157352 -3.376E-5 -4.08E-6 5.2257E-4 1.01E-5 1.355E-4 -5.9135E-4 -8.074E-5 -1.082E-5 5.2257E-4 -1.22E-6 -1.605E-5 -0.00390606 -6.7E-7 -5.5463E-4 0.02388817 -0.00293434 1.3E-7 -7.661E-4 -9.1913E-4 -1.956E-5 -9.6779E-4 -0.00163483 -2.4E-6 -0.0051506 0.02876355 -5.528E-5 -0.0111077 0.12253086 -2.9638E-4 -0.13115937 -0.01483735 2.315E-5 0.01140698 -7.7811E-4 -6.89E-6 3.6599E-4 1.7661E-4 2.331E-5 3.2382E-4 0.00137358 1.204E-5 -7.3059E-4 -4.2213E-4 7.03E-6 0.0010159 -0.13186726 3.3067E-4 0.13598245 0.00436748 6.697E-5 0.02786613 -0.00441972 1.4536E-4 0.00241394 -0.0011345 -1.829E-5 1.8258E-4 -0.00470679 1.902E-5 -0.00251645 0.00460857 -1.724E-5 -0.02826355 -0.05929575 -2.908E-5 -0.00678231 9.7326E-4 -9.16E-6 -4.3095E-4 4.3147E-4 -2.0912E-4 0.00126219 1.0667E-4 -6.2E-7 1.4E-7 6.15E-6 -2.68E-6 -0.0014406 9.2027E-4 -7.03E-6 5.9892E-4 0.05843851 -2.82E-5 0.00335035 2.83E-6 -6.832E-5 0.00750699 7.71E-6 4.061E-5 -9.4291E-4 3.38E-5 2.75E-5 0.00683977 -1.507E-5 4.322E-5 0.0036604 5.371E-5 -2.151E-5 -0.036946 -2.6643E-4 -4.819E-5 -0.00424341 -8.88E-6 1.0891E-4 1.6412E-4 -6.708E-5 -5.89E-6 -9.0295E-4 -2.3E-7 9.4E-7 1.1845E-4 3.55E-6 -1.035E-5 -0.00390605 4.4E-6 -2.574E-5 0.02543844 -0.00287671 -3.268E-5 -0.01229662 0.00272517 -2.307E-5 0.00117103 9.727E-5 -2.87E-6 7.6679E-4 -0.00332097 6.0E-8 5.8969E-4 0.0026362 -4.06E-5 -0.01102043 -0.00632966 -2.3146E-4 -0.33351756 2.912E-4 -1.61E-6 8.8795E-4 -6.523E-5 2.928E-5 -9.4319E-4 1.398E-5 2.33E-6 -9.841E-5 1.5947E-4 -2.52E-6 -6.8685E-4 -3.0421E-4 1.445E-5 7.9789E-4 0.00685887 2.9458E-4 0.35443291 -0.00561431 -1.8895E-4 0.00124667 0.00502723 -0.01099341 0.0330443 0.00155173 4.0809E-4 0.00184168 -2.7356E-4 1.2647E-4 -1.1495E-4 -1.0505E-4 -1.2553E-4 -2.568E-4 8.9936E-4 3.2743E-4 0.00126856 1.8038E-4 -2.237E-5 2.0742E-4 -0.06804452 -0.0035247 -0.02615249 -7.0933E-4 -1.2887E-4 -0.0013444 4.085E-5 5.79E-6 -1.412E-5 -2.93E-6 4.011E-5 -1.1879E-4 -3.6188E-4 3.017E-5 1.8886E-4 0.06549564 3.8936E-4 0.00192437 0.00110163 0.00679194 -0.00455929 -0.01036139 -9.2087E-4 -1.712E-4 -1.8703E-4 -3.721E-5 -5.9805E-4 2.6591E-4 -9.825E-4 3.369E-5 -2.2932E-4 0.00119061 0.00160101 -8.7724E-4 5.32E-5 -6.2463E-4 7.352E-5 -0.00643912 -0.05547981 0.16147987 -4.7985E-4 3.1669E-4 -2.3229E-4 -2.774E-5 1.08E-5 -1.155E-5 1.55E-6 -8.543E-5 -3.594E-5 9.066E-5 -1.4799E-4 -3.578E-5 5.6016E-4 0.05660189 0.00317934 7.6965E-4 0.00139271 7.4527E-4 0.00583023 -0.01817212 -0.00330478 -8.1836E-4 0.00255807 6.2774E-4 -0.00112244 -9.0271E-4 -3.5756E-4 3.51E-5 7.8447E-4 -5.2174E-4 -3.3264E-4 -9.8283E-4 -6.174E-5 1.7016E-4 2.8947E-4 -0.02194348 0.12232865 -0.3948413 5.286E-4 9.0203E-4 9.226E-5 -8.799E-5 5.219E-5 1.844E-5 4.167E-5 2.0185E-4 1.929E-5 2.5148E-4 -1.296E-5 -7.625E-5 0.01853139 -0.13551448 0.42194381 0.00294253 9.1397E-4 -0.00255247 -0.02706086 -0.01035918 -0.01661153 -0.00204558 -7.669E-4 0.00510971 -8.6932E-4 4.4838E-4 -0.00147842 8.4023E-4 -9.06E-5 1.5375E-4 -9.7492E-4 0.00104748 2.4838E-4 2.522E-4 -8.5473E-4 0.00104868 -0.30073383 -0.10928172 -0.14780937 2.0381E-4 -1.6033E-4 -4.907E-5 -3.2518E-4 2.576E-5 2.7133E-4 4.653E-5 -1.5847E-4 6.843E-5 6.624E-5 -4.315E-5 -7.425E-5 0.00191638 -1.9019E-4 0.0023718 0.32574175 -2.7359E-4 -1.7113E-4 8.9896E-4 0.01234541 -0.00455911 -0.00104406 -7.8365E-4 0.00192428 -8.6667E-4 0.00133814 0.00160098 -6.2986E-4 -2.6577E-4 3.369E-5 9.7332E-4 -2.5161E-4 -5.9801E-4 -9.382E-5 -2.4E-5 3.1666E-4 5.3261E-4 -0.1451048 -0.05548779 -0.07117084 -3.936E-5 -6.2461E-4 -8.178E-5 7.461E-5 -1.4798E-4 -6.272E-5 3.236E-5 -8.543E-5 1.574E-5 -3.03E-6 1.08E-5 2.989E-5 0.0134856 0.00117794 0.00751102 0.11946969 0.05660973 0.00259399 3.043E-5 0.00116716 0.01568658 0.00689628 0.01391576 0.003177 -2.0001E-4 -0.00217591 3.1182E-4 -1.2978E-4 7.858E-4 2.5456E-4 9.373E-5 -1.608E-4 -4.9435E-4 4.2279E-4 -2.0137E-4 -8.2427E-4 -3.1581E-4 -8.6929E-4 -0.15201742 -0.05510703 -0.16214356 2.2009E-4 -6.128E-5 2.6604E-4 2.0871E-4 -2.037E-5 -1.1295E-4 -9.203E-5 -1.3132E-4 -3.018E-5 -3.8E-7 -2.992E-5 -6.95E-6 -0.02832731 -0.01543592 -0.01212331 0.15930303 0.06398821 0.16168954</array><array dataType="xsd:double" size="42" dictRef="x:unknown">-1.3144E-4 -3.0E-6 7.14E-5 1.6181E-4 2.148E-5 -9.633E-5 -1.2537E-4 -3.09E-6 8.161E-5 1.622E-5 -3.92E-6 -3.235E-5 -8.43E-6 6.21E-6 5.12E-6 3.606E-5 -3.93E-6 1.1E-6 3.357E-5 2.63E-6 4.51E-6 -3.638E-5 -1.2534E-4 2.155E-5 1.2E-5 2.61E-6 -3.166E-5 -1.614E-5 3.73E-6 -1.197E-5 -1.446E-5 -2.21E-6 8.61E-6 2.85E-6 3.72E-6 1.99E-5 2.307E-5 5.063E-5 -4.056E-5 4.665E-5 5.049E-5 -9.3E-7</array></module> OLD HORSE! OLD HORSE! WHAT BROUGHT YOU HERE? FROM SACARAP' TO PORTLAND PIER I'VE CARTED STONE THIS MANY A YEAR; TILL, KILLED BY BLOWS AND SORE ABUSE, THEY SALTED ME DOWN FOR SAILORS' USE. THE SAILORS THEY DO ME DESPISE; THEY TURN ME OVER AND DAMN MY EYES; CUT OFF MY MEAT, AND SCRAPE MY BONES, AND PITCH ME OVER TO DAVY JONES.    SAILORS' COMPLAINT ABOUT THE BEEF    SERVED ON SHIPBOARD, CIRCA 1835.<module cmlx:lineCount="3" cmlx:templateRef="jobcpu"><scalar dictRef="cc:jobtime" dataType="xsd:string">PT10797.800S</scalar><scalar dataType="xsd:date" dictRef="cc:jobdatetime.end">2006-08-22T10:12:34Z</scalar><scalar dataType="xsd:string" dictRef="cc:program">Gaussian 03</scalar></module></module>
