 Entering Gaussian System, Link 0=/usr/local/Gaussian/g03/g03
 Initial command:
 /usr/local/Gaussian/g03/l1.exe /export/scratch//webmo/3297/Gau-2178.inp -scrdir=/export/scratch//webmo/3297/
 Entering Link 1 = /usr/local/Gaussian/g03/l1.exe PID=      2182.
  
 Copyright (c) 1988,1990,1992,1993,1995,1998,2003, Gaussian, Inc.
                  All Rights Reserved.
  
 This is the Gaussian(R) 03 program.  It is based on the
 the Gaussian(R) 98 system (copyright 1998, Gaussian, Inc.),
 the Gaussian(R) 94 system (copyright 1995, Gaussian, Inc.),
 the Gaussian 92(TM) system (copyright 1992, Gaussian, Inc.),
 the Gaussian 90(TM) system (copyright 1990, Gaussian, Inc.),
 the Gaussian 88(TM) system (copyright 1988, Gaussian, Inc.),
 the Gaussian 86(TM) system (copyright 1986, Carnegie Mellon
 University), and the Gaussian 82(TM) system (copyright 1983,
 Carnegie Mellon University). Gaussian is a federally registered
 trademark of Gaussian, Inc.
  
 This software contains proprietary and confidential information,
 including trade secrets, belonging to Gaussian, Inc.
  
 This software is provided under written license and may be
 used, copied, transmitted, or stored only in accord with that
 written license.
  
 The following legend is applicable only to US Government
 contracts under DFARS:
  
                    RESTRICTED RIGHTS LEGEND
  
 Use, duplication or disclosure by the US Government is subject
 to restrictions as set forth in subparagraph (c)(1)(ii) of the
 Rights in Technical Data and Computer Software clause at DFARS
 252.227-7013.
  
 Gaussian, Inc.
 Carnegie Office Park, Building 6, Pittsburgh, PA 15106 USA
  
 The following legend is applicable only to US Government
 contracts under FAR:
  
                    RESTRICTED RIGHTS LEGEND
  
 Use, reproduction and disclosure by the US Government is subject
 to restrictions as set forth in subparagraph (c) of the
 Commercial Computer Software - Restricted Rights clause at FAR
 52.227-19.
  
 Gaussian, Inc.
 Carnegie Office Park, Building 6, Pittsburgh, PA 15106 USA
  
  
 ---------------------------------------------------------------
 Warning -- This program may not be used in any manner that
 competes with the business of Gaussian, Inc. or will provide
 assistance to any competitor of Gaussian, Inc.  The licensee
 of this program is prohibited from giving any competitor of
 Gaussian, Inc. access to this program.  By using this program,
 the user acknowledges that Gaussian, Inc. is engaged in the
 business of creating and licensing software in the field of
 computational chemistry and represents and warrants to the
 licensee that it is not a competitor of Gaussian, Inc. and that
 it will not use this program in any manner prohibited above.
 ---------------------------------------------------------------
  

 Cite this work as:
 Gaussian 03, Revision B.04,
 M. J. Frisch, G. W. Trucks, H. B. Schlegel, G. E. Scuseria, 
 M. A. Robb, J. R. Cheeseman, J. A. Montgomery, Jr., T. Vreven, 
 K. N. Kudin, J. C. Burant, J. M. Millam, S. S. Iyengar, J. Tomasi, 
 V. Barone, B. Mennucci, M. Cossi, G. Scalmani, N. Rega, 
 G. A. Petersson, H. Nakatsuji, M. Hada, M. Ehara, K. Toyota, 
 R. Fukuda, J. Hasegawa, M. Ishida, T. Nakajima, Y. Honda, O. Kitao, 
 H. Nakai, M. Klene, X. Li, J. E. Knox, H. P. Hratchian, J. B. Cross, 
 C. Adamo, J. Jaramillo, R. Gomperts, R. E. Stratmann, O. Yazyev, 
 A. J. Austin, R. Cammi, C. Pomelli, J. W. Ochterski, P. Y. Ayala, 
 K. Morokuma, G. A. Voth, P. Salvador, J. J. Dannenberg, 
 V. G. Zakrzewski, S. Dapprich, A. D. Daniels, M. C. Strain, 
 O. Farkas, D. K. Malick, A. D. Rabuck, K. Raghavachari, 
 J. B. Foresman, J. V. Ortiz, Q. Cui, A. G. Baboul, S. Clifford, 
 J. Cioslowski, B. B. Stefanov, G. Liu, A. Liashenko, P. Piskorz, 
 I. Komaromi, R. L. Martin, D. J. Fox, T. Keith, M. A. Al-Laham, 
 C. Y. Peng, A. Nanayakkara, M. Challacombe, P. M. W. Gill, 
 B. Johnson, W. Chen, M. W. Wong, C. Gonzalez, and J. A. Pople, 
 Gaussian, Inc., Pittsburgh PA, 2003.
 
 ***************************************************
 Gaussian 03:  Sun64-SVR4-Unix-G03RevB.04 2-Jun-2003
                     21-Aug-2006 
 ***************************************************
 ------------------------------
 #P B3LYP/6-311+G(d,p) OPT FREQ
 ------------------------------
 1/14=-1,18=20,26=3,38=1/1,3;
 2/9=110,17=6,18=5,40=1/2;
 3/5=4,6=6,7=111,11=2,16=1,25=1,30=1,74=-5/1,2,3;
 4//1;
 5/5=2,38=5/2;
 6/7=2,8=2,9=2,10=2,28=1/1;
 7//1,2,3,16;
 1/14=-1,18=20/3(1);
 99//99;
 2/9=110/2;
 3/5=4,6=6,7=111,11=2,16=1,25=1,30=1,74=-5/1,2,3;
 4/5=5,16=3/1;
 5/5=2,38=5/2;
 7//1,2,3,16;
 1/14=-1,18=20/3(-5);
 2/9=110/2;
 6/7=2,8=2,9=2,10=2,19=2,28=1/1;
 99/9=1/99;
 Leave Link    1 at Mon Aug 21 20:31:17 2006, MaxMem=          0 cpu:       0.3
 (Enter /usr/local/Gaussian/g03/l101.exe)
 --------------
 aniline basis2
 --------------
 Symbolic Z-matrix:
 Charge =  0 Multiplicity = 1
 C
 C                    1    B1
 C                    1    B2       2    A1
 C                    1    B3       2    A2       3    D1       0
 C                    1    B4       2    A3       3    D2       0
 C                    1    B5       2    A4       3    D3       0
 H                    1    B6       2    A5       3    D4       0
 N                    1    B7       2    A6       3    D5       0
 H                    1    B8       2    A7       3    D6       0
 H                    1    B9       2    A8       3    D7       0
 H                    1    B10      2    A9       3    D8       0
 H                    1    B11      2    A10      3    D9       0
 H                    1    B12      2    A11      3    D10      0
 H                    1    B13      2    A12      3    D11      0
       Variables:
  A10                 146.84657                  
  A11                  21.14857                  
  A12                  51.34345                  
  B1                    1.40139                  
  B2                    2.4076                   
  B3                    2.77397                  
  B4                    2.41691                  
  B5                    1.38788                  
  B6                    1.08555                  
  B7                    2.42835                  
  B8                    3.39296                  
  B10                   3.39925                  
  B9                    3.8585                   
  B11                   2.13785                  
  B12                   3.28755                  
  B13                   2.60183                  
  D10                 166.84198                  
  D11                 172.36044                  
  D1                    0.00113                  
  D2                    0.00396                  
  D3                    0.00239                  
  A1                   30.79486                  
  D4                 -179.68538                  
  A2                   60.81592                  
  D5                 -177.26138                  
  A3                   90.92218                  
  A4                  120.55606                  
  D6                   -0.23718                  
  D7                    0.01789                  
  A5                  119.43344                  
  D8                    0.00871                  
  A6                   29.50648                  
  D9                    0.05158                  
  A7                   21.65418                  
  A8                   60.64745                  
  A9                  100.05431                  
 
                    Isotopes and Nuclear Properties:

  Atom         1           2           3           4           5           6           7           8           9          10
 IAtWgt=          12          12          12          12          12          12           1          14           1           1
 AtmWgt=  12.0000000  12.0000000  12.0000000  12.0000000  12.0000000  12.0000000   1.0078250  14.0030740   1.0078250   1.0078250
 IAtSpn=           0           0           0           0           0           0           1           2           1           1
 AtZEff=   0.0000000   0.0000000   0.0000000   0.0000000   0.0000000   0.0000000   0.0000000   0.0000000   0.0000000   0.0000000
 AtQMom=   0.0000000   0.0000000   0.0000000   0.0000000   0.0000000   0.0000000   0.0000000   1.5600000   0.0000000   0.0000000
 AtGFac=   0.0000000   0.0000000   0.0000000   0.0000000   0.0000000   0.0000000   2.7928460   0.4037610   2.7928460   2.7928460

  Atom        11          12          13          14
 IAtWgt=           1           1           1           1
 AtmWgt=   1.0078250   1.0078250   1.0078250   1.0078250
 IAtSpn=           1           1           1           1
 AtZEff=   0.0000000   0.0000000   0.0000000   0.0000000
 AtQMom=   0.0000000   0.0000000   0.0000000   0.0000000
 AtGFac=   2.7928460   2.7928460   2.7928460   2.7928460
 Leave Link  101 at Mon Aug 21 20:31:19 2006, MaxMem=    6291456 cpu:       0.2
 (Enter /usr/local/Gaussian/g03/l103.exe)

 GradGradGradGradGradGradGradGradGradGradGradGradGradGradGradGradGradGrad
 Berny optimization.
 Initialization pass.
                           ----------------------------
                           !    Initial Parameters    !
                           ! (Angstroms and Degrees)  !
 --------------------------                            --------------------------
 ! Name  Definition              Value          Derivative Info.                !
 --------------------------------------------------------------------------------
 ! R1    R(1,2)                  1.4014         estimate D2E/DX2                !
 ! R2    R(1,6)                  1.3879         estimate D2E/DX2                !
 ! R3    R(1,7)                  1.0856         estimate D2E/DX2                !
 ! R4    R(2,3)                  1.4014         estimate D2E/DX2                !
 ! R5    R(2,8)                  1.3919         estimate D2E/DX2                !
 ! R6    R(3,4)                  1.3879         estimate D2E/DX2                !
 ! R7    R(3,9)                  1.0856         estimate D2E/DX2                !
 ! R8    R(4,5)                  1.3915         estimate D2E/DX2                !
 ! R9    R(4,10)                 1.0846         estimate D2E/DX2                !
 ! R10   R(5,6)                  1.3915         estimate D2E/DX2                !
 ! R11   R(5,11)                 1.0832         estimate D2E/DX2                !
 ! R12   R(6,12)                 1.0846         estimate D2E/DX2                !
 ! R13   R(8,13)                 1.0081         estimate D2E/DX2                !
 ! R14   R(8,14)                 1.0081         estimate D2E/DX2                !
 ! A1    A(2,1,6)              120.5561         estimate D2E/DX2                !
 ! A2    A(2,1,7)              119.4334         estimate D2E/DX2                !
 ! A3    A(6,1,7)              120.0098         estimate D2E/DX2                !
 ! A4    A(1,2,3)              118.4103         estimate D2E/DX2                !
 ! A5    A(1,2,8)              120.7659         estimate D2E/DX2                !
 ! A6    A(3,2,8)              120.7663         estimate D2E/DX2                !
 ! A7    A(2,3,4)              120.5561         estimate D2E/DX2                !
 ! A8    A(2,3,9)              119.4336         estimate D2E/DX2                !
 ! A9    A(4,3,9)              120.0096         estimate D2E/DX2                !
 ! A10   A(3,4,5)              120.818          estimate D2E/DX2                !
 ! A11   A(3,4,10)             119.1829         estimate D2E/DX2                !
 ! A12   A(5,4,10)             119.9991         estimate D2E/DX2                !
 ! A13   A(4,5,6)              118.8415         estimate D2E/DX2                !
 ! A14   A(4,5,11)             120.5793         estimate D2E/DX2                !
 ! A15   A(6,5,11)             120.5792         estimate D2E/DX2                !
 ! A16   A(1,6,5)              120.8181         estimate D2E/DX2                !
 ! A17   A(1,6,12)             119.1829         estimate D2E/DX2                !
 ! A18   A(5,6,12)             119.999          estimate D2E/DX2                !
 ! A19   A(2,8,13)             115.8695         estimate D2E/DX2                !
 ! A20   A(2,8,14)             115.8696         estimate D2E/DX2                !
 ! A21   A(13,8,14)            112.5982         estimate D2E/DX2                !
 ! D1    D(6,1,2,3)              0.0024         estimate D2E/DX2                !
 ! D2    D(6,1,2,8)            177.2638         estimate D2E/DX2                !
 ! D3    D(7,1,2,3)           -179.6854         estimate D2E/DX2                !
 ! D4    D(7,1,2,8)             -2.424          estimate D2E/DX2                !
 ! D5    D(2,1,6,5)              0.0032         estimate D2E/DX2                !
 ! D6    D(2,1,6,12)           179.9393         estimate D2E/DX2                !
 ! D7    D(7,1,6,5)            179.6891         estimate D2E/DX2                !
 ! D8    D(7,1,6,12)            -0.3748         estimate D2E/DX2                !
 ! D9    D(1,2,3,4)             -0.0023         estimate D2E/DX2                !
 ! D10   D(1,2,3,9)            179.6859         estimate D2E/DX2                !
 ! D11   D(8,2,3,4)           -177.2637         estimate D2E/DX2                !
 ! D12   D(8,2,3,9)              2.4245         estimate D2E/DX2                !
 ! D13   D(1,2,8,13)           159.0133         estimate D2E/DX2                !
 ! D14   D(1,2,8,14)            23.7972         estimate D2E/DX2                !
 ! D15   D(3,2,8,13)           -23.7901         estimate D2E/DX2                !
 ! D16   D(3,2,8,14)          -159.0062         estimate D2E/DX2                !
 ! D17   D(2,3,4,5)             -0.0034         estimate D2E/DX2                !
 ! D18   D(2,3,4,10)          -179.9393         estimate D2E/DX2                !
 ! D19   D(9,3,4,5)           -179.6898         estimate D2E/DX2                !
 ! D20   D(9,3,4,10)             0.3743         estimate D2E/DX2                !
 ! D21   D(3,4,5,6)              0.0088         estimate D2E/DX2                !
 ! D22   D(3,4,5,11)          -179.9813         estimate D2E/DX2                !
 ! D23   D(10,4,5,6)           179.9442         estimate D2E/DX2                !
 ! D24   D(10,4,5,11)           -0.0459         estimate D2E/DX2                !
 ! D25   D(4,5,6,1)             -0.0087         estimate D2E/DX2                !
 ! D26   D(4,5,6,12)          -179.9443         estimate D2E/DX2                !
 ! D27   D(11,5,6,1)           179.9814         estimate D2E/DX2                !
 ! D28   D(11,5,6,12)            0.0458         estimate D2E/DX2                !
 --------------------------------------------------------------------------------
 Trust Radius=3.00D-01 FncErr=1.00D-07 GrdErr=1.00D-06
 Number of steps in this run=  73 maximum allowed number of steps= 100.
 GradGradGradGradGradGradGradGradGradGradGradGradGradGradGradGradGradGrad

 Leave Link  103 at Mon Aug 21 20:31:20 2006, MaxMem=    6291456 cpu:       0.0
 (Enter /usr/local/Gaussian/g03/l202.exe)
                          Input orientation:                          
 ---------------------------------------------------------------------
 Center     Atomic     Atomic              Coordinates (Angstroms)
 Number     Number      Type              X           Y           Z
 ---------------------------------------------------------------------
    1          6             0        0.000000    0.000000    0.000000
    2          6             0        0.000000    0.000000    1.401389
    3          6             0        1.232610    0.000000    2.068144
    4          6             0        2.421834   -0.000048    1.352635
    5          6             0        2.416597   -0.000167   -0.038899
    6          6             0        1.195147   -0.000050   -0.705571
    7          1             0       -0.945425    0.005192   -0.533455
    8          7             0       -1.194650    0.057145    2.113393
    9          1             0        1.252004    0.005183    3.153513
   10          1             0        3.363144   -0.001050    1.891366
   11          1             0        3.347050   -0.000509   -0.593447
   12          1             0        1.169156   -0.001053   -1.789832
   13          1             0       -1.154968   -0.270003    3.066130
   14          1             0       -2.013742   -0.270106    1.625232
 ---------------------------------------------------------------------
                    Distance matrix (angstroms):
                    1          2          3          4          5
     1  C    0.000000
     2  C    1.401389   0.000000
     3  C    2.407602   1.401388   0.000000
     4  C    2.773969   2.422325   1.387879   0.000000
     5  C    2.416911   2.813249   2.416910   1.391543   0.000000
     6  C    1.387878   2.422325   2.773968   2.396033   1.391544
     7  H    1.085554   2.153480   3.392960   3.859507   3.398206
     8  N    2.428350   1.391906   2.428354   3.696077   4.204373
     9  H    3.392961   2.153481   1.085554   2.147485   3.398205
    10  H    3.858497   3.398649   2.137855   1.084572   2.149854
    11  H    3.399253   3.896423   3.399253   2.154822   1.083174
    12  H    2.137855   3.398649   3.858498   3.382942   2.149855
    13  H    3.287553   2.044069   2.601808   3.975231   4.740263
    14  H    2.601825   2.044070   3.287542   4.452144   4.740264
                    6          7          8          9         10
     6  C    0.000000
     7  H    2.147486   0.000000
     8  N    3.696073   2.659063   0.000000
     9  H    3.859506   4.292135   2.659072   0.000000
    10  H    3.382942   4.944043   4.563569   2.459667   0.000000
    11  H    2.154822   4.292898   5.287470   4.292896   2.484865
    12  H    1.084572   2.459669   4.563565   4.944042   4.285417
    13  H    4.452151   3.616165   1.008121   2.424228   4.676082
    14  H    3.975241   2.424256   1.008120   3.616148   5.390188
                   11         12         13         14
    11  H    0.000000
    12  H    2.484866   0.000000
    13  H    5.808038   5.390200   0.000000
    14  H    5.808039   4.676098   1.677403   0.000000
 Stoichiometry    C6H7N
 Framework group  C1[X(C6H7N)]
 Deg. of freedom    36
 Full point group                 C1      NOp   1
 Largest Abelian subgroup         C1      NOp   1
 Largest concise Abelian subgroup C1      NOp   1
                         Standard orientation:                         
 ---------------------------------------------------------------------
 Center     Atomic     Atomic              Coordinates (Angstroms)
 Number     Number      Type              X           Y           Z
 ---------------------------------------------------------------------
    1          6             0       -0.219692   -1.203801   -0.003767
    2          6             0       -0.937147    0.000000   -0.007316
    3          6             0       -0.219693    1.203801   -0.003764
    4          6             0        1.168157    1.198017    0.003152
    5          6             0        1.876067    0.000000    0.006773
    6          6             0        1.168157   -1.198016    0.003151
    7          1             0       -0.758675   -2.146067   -0.011627
    8          7             0       -2.327580   -0.000005   -0.071343
    9          1             0       -0.758673    2.146068   -0.011613
   10          1             0        1.700923    2.142708    0.006792
   11          1             0        2.959226    0.000000    0.012475
   12          1             0        1.700923   -2.142709    0.006788
   13          1             0       -2.782876    0.838717    0.253557
   14          1             0       -2.782877   -0.838686    0.253658
 ---------------------------------------------------------------------
 Rotational constants (GHZ):      5.6547882      2.6027819      1.7847954
 Leave Link  202 at Mon Aug 21 20:31:21 2006, MaxMem=    6291456 cpu:       0.5
 (Enter /usr/local/Gaussian/g03/l301.exe)
 Standard basis: 6-311+G(d,p) (5D, 7F)
 There are   196 symmetry adapted basis functions of A   symmetry.
 Integral buffers will be    131072 words long.
 Raffenetti 2 integral format.
 Two-electron integral symmetry is turned on.
   196 basis functions,   308 primitive gaussians,   203 cartesian basis functions
    25 alpha electrons       25 beta electrons
       nuclear repulsion energy       271.8560909409 Hartrees.
 IExCor= 402 DFT=T Ex=B+HF Corr=LYP ExCW=0 ScaHFX=  0.200000
 ScaDFX=  0.800000  0.720000  1.000000  0.810000
 IRadAn=      0 IRanWt=     -1 IRanGd=            0 ICorTp=0
 NAtoms=   14 NActive=   14 NUniq=   14 SFac= 1.00D+00 NAtFMM=   60 Big=F
 Leave Link  301 at Mon Aug 21 20:31:22 2006, MaxMem=    6291456 cpu:       0.1
 (Enter /usr/local/Gaussian/g03/l302.exe)
 NPDir=0 NMtPBC=     1 NCelOv=     1 NCel=       1 NClECP=     1 NCelD=      1
         NCelK=      1 NCelE2=     1 NClLst=     1 CellRange=     0.0.
 One-electron integrals computed using PRISM.
 NBasis=   196 RedAO= T  NBF=   196
 NBsUse=   196 1.00D-06 NBFU=   196
 Precomputing XC quadrature grid using
 IXCGrd= 2 IRadAn=           0 IRanWt=          -1 IRanGd=           0.
 NRdTot=     898 NPtTot=      113936 NUsed=      120279 NTot=      120311
 NSgBfM=   203   203   203   203.
 Leave Link  302 at Mon Aug 21 20:31:31 2006, MaxMem=    6291456 cpu:       2.5
 (Enter /usr/local/Gaussian/g03/l303.exe)
 DipDrv:  MaxL=1.
 Leave Link  303 at Mon Aug 21 20:31:32 2006, MaxMem=    6291456 cpu:       0.1
 (Enter /usr/local/Gaussian/g03/l401.exe)
 Harris functional with IExCor=  402 diagonalized for initial guess.
 ExpMin= 4.38D-02 ExpMax= 6.29D+03 ExpMxC= 9.49D+02 IAcc=2 IRadAn=         4 AccDes= 0.00D+00
 HarFok:  IExCor= 402 AccDes= 0.00D+00 IRadAn=         4 IDoV=1
 ScaDFX=  1.000000  1.000000  1.000000  1.000000
 Harris En= -287.825168604220    
 Initial guess orbital symmetries:
       Occupied  (A) (A) (A) (A) (A) (A) (A) (A) (A) (A) (A) (A)
                 (A) (A) (A) (A) (A) (A) (A) (A) (A) (A) (A) (A)
                 (A)
       Virtual   (A) (A) (A) (A) (A) (A) (A) (A) (A) (A) (A) (A)
                 (A) (A) (A) (A) (A) (A) (A) (A) (A) (A) (A) (A)
                 (A) (A) (A) (A) (A) (A) (A) (A) (A) (A) (A) (A)
                 (A) (A) (A) (A) (A) (A) (A) (A) (A) (A) (A) (A)
                 (A) (A) (A) (A) (A) (A) (A) (A) (A) (A) (A) (A)
                 (A) (A) (A) (A) (A) (A) (A) (A) (A) (A) (A) (A)
                 (A) (A) (A) (A) (A) (A) (A) (A) (A) (A) (A) (A)
                 (A) (A) (A) (A) (A) (A) (A) (A) (A) (A) (A) (A)
                 (A) (A) (A) (A) (A) (A) (A) (A) (A) (A) (A) (A)
                 (A) (A) (A) (A) (A) (A) (A) (A) (A) (A) (A) (A)
                 (A) (A) (A) (A) (A) (A) (A) (A) (A) (A) (A) (A)
                 (A) (A) (A) (A) (A) (A) (A) (A) (A) (A) (A) (A)
                 (A) (A) (A) (A) (A) (A) (A) (A) (A) (A) (A) (A)
                 (A) (A) (A) (A) (A) (A) (A) (A) (A) (A) (A) (A)
                 (A) (A) (A)
 The electronic state of the initial guess is 1-A.
 Leave Link  401 at Mon Aug 21 20:32:55 2006, MaxMem=    6291456 cpu:      26.3
 (Enter /usr/local/Gaussian/g03/l502.exe)
 Closed shell SCF:
 Requested convergence on RMS density matrix=1.00D-08 within 128 cycles.
 Requested convergence on MAX density matrix=1.00D-06.
 Requested convergence on             energy=1.00D-06.
 No special actions if energy rises.
 Using DIIS extrapolation, IDIIS=  1040.
 Integral symmetry usage will be decided dynamically.
       120278 words used for storage of precomputed grid.
 IEnd=    284043 IEndB=    284043 NGot=   6291456 MDV=   6065466
 LenX=   6065466
 Fock matrices will be formed incrementally for  20 cycles.

 Cycle   1  Pass 1  IDiag  1:
 Petite list used in FoFDir.
 MinBra= 0 MaxBra= 2 Meth= 1.
 IRaf=       0 NMat=   1 IRICut=       1 DoRegI=T DoRafI=F ISym2E= 1 JSym2E=1.
 E= -287.403611835913    
 DIIS: error= 4.71D-02 at cycle   1 NSaved=   1.
 NSaved= 1 IEnMin= 1 EnMin= -287.403611835913     IErMin= 1 ErrMin= 4.71D-02
 ErrMax= 4.71D-02 EMaxC= 1.00D-01 BMatC= 2.82D-01 BMatP= 2.82D-01
 IDIUse=3 WtCom= 5.29D-01 WtEn= 4.71D-01
 Coeff-Com:  0.100D+01
 Coeff-En:   0.100D+01
 Coeff:      0.100D+01
 Gap=     0.218 Goal=   None    Shift=    0.000
 GapD=    0.218 DampG=1.000 DampE=0.500 DampFc=0.5000 IDamp=-1.
 Damping current iteration by 5.00D-01
 RMSDP=1.49D-02 MaxDP=7.46D-01              OVMax= 2.49D-01

 Cycle   2  Pass 1  IDiag  1:
 RMSU=  7.35D-03    CP:  1.08D+00
 E= -287.516907629013     Delta-E=       -0.113295793100 Rises=F Damp=T
 DIIS: error= 9.93D-03 at cycle   2 NSaved=   2.
 NSaved= 2 IEnMin= 2 EnMin= -287.516907629013     IErMin= 2 ErrMin= 9.93D-03
 ErrMax= 9.93D-03 EMaxC= 1.00D-01 BMatC= 1.08D-02 BMatP= 2.82D-01
 IDIUse=3 WtCom= 9.01D-01 WtEn= 9.93D-02
 Coeff-Com:  0.793D-01 0.921D+00
 Coeff-En:   0.193D+00 0.807D+00
 Coeff:      0.906D-01 0.909D+00
 Gap=     0.212 Goal=   None    Shift=    0.000
 RMSDP=5.42D-03 MaxDP=2.69D-01 DE=-1.13D-01 OVMax= 1.55D-01

 Cycle   3  Pass 1  IDiag  1:
 RMSU=  2.78D-03    CP:  1.03D+00  3.79D-01
 E= -287.684541734050     Delta-E=       -0.167634105037 Rises=F Damp=F
 DIIS: error= 5.58D-03 at cycle   3 NSaved=   3.
 NSaved= 3 IEnMin= 3 EnMin= -287.684541734050     IErMin= 3 ErrMin= 5.58D-03
 ErrMax= 5.58D-03 EMaxC= 1.00D-01 BMatC= 3.08D-03 BMatP= 1.08D-02
 IDIUse=3 WtCom= 9.44D-01 WtEn= 5.58D-02
 Coeff-Com: -0.166D-01 0.312D+00 0.705D+00
 Coeff-En:   0.000D+00 0.000D+00 0.100D+01
 Coeff:     -0.156D-01 0.294D+00 0.721D+00
 Gap=     0.200 Goal=   None    Shift=    0.000
 RMSDP=8.17D-04 MaxDP=3.64D-02 DE=-1.68D-01 OVMax= 2.54D-02

 Cycle   4  Pass 1  IDiag  1:
 RMSU=  7.00D-04    CP:  1.01D+00  3.70D-01  8.91D-01
 E= -287.686716233585     Delta-E=       -0.002174499535 Rises=F Damp=F
 DIIS: error= 4.56D-03 at cycle   4 NSaved=   4.
 NSaved= 4 IEnMin= 4 EnMin= -287.686716233585     IErMin= 4 ErrMin= 4.56D-03
 ErrMax= 4.56D-03 EMaxC= 1.00D-01 BMatC= 7.78D-04 BMatP= 3.08D-03
 IDIUse=3 WtCom= 9.54D-01 WtEn= 4.56D-02
 Coeff-Com: -0.172D-01 0.128D+00 0.399D+00 0.491D+00
 Coeff-En:   0.000D+00 0.000D+00 0.145D+00 0.855D+00
 Coeff:     -0.164D-01 0.122D+00 0.387D+00 0.507D+00
 Gap=     0.199 Goal=   None    Shift=    0.000
 RMSDP=3.09D-04 MaxDP=1.66D-02 DE=-2.17D-03 OVMax= 1.81D-02

 Cycle   5  Pass 1  IDiag  1:
 RMSU=  2.64D-04    CP:  1.00D+00  3.66D-01  9.35D-01  9.33D-01
 E= -287.687384686178     Delta-E=       -0.000668452593 Rises=F Damp=F
 DIIS: error= 2.02D-03 at cycle   5 NSaved=   5.
 NSaved= 5 IEnMin= 5 EnMin= -287.687384686178     IErMin= 5 ErrMin= 2.02D-03
 ErrMax= 2.02D-03 EMaxC= 1.00D-01 BMatC= 1.48D-04 BMatP= 7.78D-04
 IDIUse=3 WtCom= 9.80D-01 WtEn= 2.02D-02
 Coeff-Com: -0.773D-02 0.183D-01 0.853D-01 0.320D+00 0.584D+00
 Coeff-En:   0.000D+00 0.000D+00 0.000D+00 0.201D+00 0.799D+00
 Coeff:     -0.757D-02 0.179D-01 0.836D-01 0.318D+00 0.588D+00
 Gap=     0.200 Goal=   None    Shift=    0.000
 RMSDP=9.37D-05 MaxDP=3.61D-03 DE=-6.68D-04 OVMax= 6.75D-03

 Cycle   6  Pass 1  IDiag  1:
 RMSU=  4.72D-05    CP:  1.00D+00  3.67D-01  9.29D-01  9.63D-01  7.16D-01
 E= -287.687551525625     Delta-E=       -0.000166839447 Rises=F Damp=F
 DIIS: error= 2.30D-04 at cycle   6 NSaved=   6.
 NSaved= 6 IEnMin= 6 EnMin= -287.687551525625     IErMin= 6 ErrMin= 2.30D-04
 ErrMax= 2.30D-04 EMaxC= 1.00D-01 BMatC= 6.46D-06 BMatP= 1.48D-04
 IDIUse=3 WtCom= 9.98D-01 WtEn= 2.30D-03
 Coeff-Com: -0.317D-02 0.297D-02 0.247D-01 0.146D+00 0.320D+00 0.509D+00
 Coeff-En:   0.000D+00 0.000D+00 0.000D+00 0.000D+00 0.000D+00 0.100D+01
 Coeff:     -0.316D-02 0.297D-02 0.247D-01 0.146D+00 0.320D+00 0.510D+00
 Gap=     0.199 Goal=   None    Shift=    0.000
 RMSDP=3.16D-05 MaxDP=1.70D-03 DE=-1.67D-04 OVMax= 1.20D-03

 Cycle   7  Pass 1  IDiag  1:
 RMSU=  1.44D-05    CP:  1.00D+00  3.65D-01  9.31D-01  9.73D-01  7.82D-01
                    CP:  8.80D-01
 E= -287.687557542933     Delta-E=       -0.000006017308 Rises=F Damp=F
 DIIS: error= 3.75D-05 at cycle   7 NSaved=   7.
 NSaved= 7 IEnMin= 7 EnMin= -287.687557542933     IErMin= 7 ErrMin= 3.75D-05
 ErrMax= 3.75D-05 EMaxC= 1.00D-01 BMatC= 2.81D-07 BMatP= 6.46D-06
 IDIUse=1 WtCom= 1.00D+00 WtEn= 0.00D+00
 Coeff-Com: -0.221D-03-0.863D-03-0.294D-03 0.210D-01 0.629D-01 0.210D+00
 Coeff-Com:  0.707D+00
 Coeff:     -0.221D-03-0.863D-03-0.294D-03 0.210D-01 0.629D-01 0.210D+00
 Coeff:      0.707D+00
 Gap=     0.199 Goal=   None    Shift=    0.000
 RMSDP=7.39D-06 MaxDP=3.58D-04 DE=-6.02D-06 OVMax= 1.69D-04

 Cycle   8  Pass 1  IDiag  1:
 RMSU=  5.67D-06    CP:  1.00D+00  3.65D-01  9.30D-01  9.73D-01  7.71D-01
                    CP:  8.68D-01  8.26D-01
 E= -287.687557797438     Delta-E=       -0.000000254505 Rises=F Damp=F
 DIIS: error= 9.99D-06 at cycle   8 NSaved=   8.
 NSaved= 8 IEnMin= 8 EnMin= -287.687557797438     IErMin= 8 ErrMin= 9.99D-06
 ErrMax= 9.99D-06 EMaxC= 1.00D-01 BMatC= 1.61D-08 BMatP= 2.81D-07
 IDIUse=1 WtCom= 1.00D+00 WtEn= 0.00D+00
 Coeff-Com:  0.527D-05-0.422D-03-0.780D-03 0.498D-02 0.177D-01 0.753D-01
 Coeff-Com:  0.306D+00 0.598D+00
 Coeff:      0.527D-05-0.422D-03-0.780D-03 0.498D-02 0.177D-01 0.753D-01
 Coeff:      0.306D+00 0.598D+00
 Gap=     0.199 Goal=   None    Shift=    0.000
 RMSDP=1.64D-06 MaxDP=6.16D-05 DE=-2.55D-07 OVMax= 3.86D-05

 Cycle   9  Pass 1  IDiag  1:
 RMSU=  9.94D-07    CP:  1.00D+00  3.65D-01  9.30D-01  9.73D-01  7.72D-01
                    CP:  8.74D-01  8.71D-01  9.71D-01
 E= -287.687557808380     Delta-E=       -0.000000010942 Rises=F Damp=F
 DIIS: error= 5.87D-06 at cycle   9 NSaved=   9.
 NSaved= 9 IEnMin= 9 EnMin= -287.687557808380     IErMin= 9 ErrMin= 5.87D-06
 ErrMax= 5.87D-06 EMaxC= 1.00D-01 BMatC= 3.52D-09 BMatP= 1.61D-08
 IDIUse=1 WtCom= 1.00D+00 WtEn= 0.00D+00
 Coeff-Com:  0.274D-04-0.126D-03-0.366D-03 0.392D-03 0.231D-02 0.137D-01
 Coeff-Com:  0.713D-01 0.335D+00 0.578D+00
 Coeff:      0.274D-04-0.126D-03-0.366D-03 0.392D-03 0.231D-02 0.137D-01
 Coeff:      0.713D-01 0.335D+00 0.578D+00
 Gap=     0.199 Goal=   None    Shift=    0.000
 RMSDP=5.17D-07 MaxDP=1.41D-05 DE=-1.09D-08 OVMax= 1.98D-05

 Cycle  10  Pass 1  IDiag  1:
 RMSU=  3.40D-07    CP:  1.00D+00  3.65D-01  9.30D-01  9.73D-01  7.72D-01
                    CP:  8.77D-01  8.63D-01  9.57D-01  7.50D-01
 E= -287.687557811422     Delta-E=       -0.000000003043 Rises=F Damp=F
 DIIS: error= 7.04D-07 at cycle  10 NSaved=  10.
 NSaved=10 IEnMin=10 EnMin= -287.687557811422     IErMin=10 ErrMin= 7.04D-07
 ErrMax= 7.04D-07 EMaxC= 1.00D-01 BMatC= 6.76D-11 BMatP= 3.52D-09
 IDIUse=1 WtCom= 1.00D+00 WtEn= 0.00D+00
 Coeff-Com:  0.264D-05-0.508D-05-0.394D-04-0.139D-03-0.200D-03-0.114D-02
 Coeff-Com:  0.261D-04 0.400D-01 0.160D+00 0.802D+00
 Coeff:      0.264D-05-0.508D-05-0.394D-04-0.139D-03-0.200D-03-0.114D-02
 Coeff:      0.261D-04 0.400D-01 0.160D+00 0.802D+00
 Gap=     0.199 Goal=   None    Shift=    0.000
 RMSDP=1.58D-07 MaxDP=4.11D-06 DE=-3.04D-09 OVMax= 2.50D-06

 Cycle  11  Pass 1  IDiag  1:
 RMSU=  6.89D-08    CP:  1.00D+00  3.65D-01  9.30D-01  9.73D-01  7.72D-01
                    CP:  8.76D-01  8.65D-01  9.76D-01  7.96D-01  8.53D-01
 E= -287.687557811490     Delta-E=       -0.000000000068 Rises=F Damp=F
 DIIS: error= 1.77D-07 at cycle  11 NSaved=  11.
 NSaved=11 IEnMin=11 EnMin= -287.687557811490     IErMin=11 ErrMin= 1.77D-07
 ErrMax= 1.77D-07 EMaxC= 1.00D-01 BMatC= 4.79D-12 BMatP= 6.76D-11
 IDIUse=1 WtCom= 1.00D+00 WtEn= 0.00D+00
 Coeff-Com:  0.106D-06 0.124D-05-0.676D-05-0.733D-04-0.145D-03-0.911D-03
 Coeff-Com: -0.197D-02 0.649D-02 0.537D-01 0.339D+00 0.604D+00
 Coeff:      0.106D-06 0.124D-05-0.676D-05-0.733D-04-0.145D-03-0.911D-03
 Coeff:     -0.197D-02 0.649D-02 0.537D-01 0.339D+00 0.604D+00
 Gap=     0.199 Goal=   None    Shift=    0.000
 RMSDP=3.51D-08 MaxDP=1.45D-06 DE=-6.79D-11 OVMax= 8.84D-07

 Cycle  12  Pass 1  IDiag  1:
 RMSU=  2.15D-08    CP:  1.00D+00  3.65D-01  9.30D-01  9.73D-01  7.72D-01
                    CP:  8.76D-01  8.66D-01  9.76D-01  8.02D-01  8.81D-01
                    CP:  8.27D-01
 E= -287.687557811504     Delta-E=       -0.000000000014 Rises=F Damp=F
 DIIS: error= 5.42D-08 at cycle  12 NSaved=  12.
 NSaved=12 IEnMin=12 EnMin= -287.687557811504     IErMin=12 ErrMin= 5.42D-08
 ErrMax= 5.42D-08 EMaxC= 1.00D-01 BMatC= 5.63D-13 BMatP= 4.79D-12
 IDIUse=1 WtCom= 1.00D+00 WtEn= 0.00D+00
 Coeff-Com: -0.140D-06 0.793D-06-0.166D-06-0.241D-04-0.549D-04-0.313D-03
 Coeff-Com: -0.824D-03-0.106D-02 0.934D-02 0.672D-01 0.281D+00 0.645D+00
 Coeff:     -0.140D-06 0.793D-06-0.166D-06-0.241D-04-0.549D-04-0.313D-03
 Coeff:     -0.824D-03-0.106D-02 0.934D-02 0.672D-01 0.281D+00 0.645D+00
 Gap=     0.199 Goal=   None    Shift=    0.000
 RMSDP=7.18D-09 MaxDP=1.66D-07 DE=-1.40D-11 OVMax= 2.27D-07

 SCF Done:  E(RB+HF-LYP) =  -287.687557812     A.U. after   12 cycles
             Convg  =    0.7184D-08             -V/T =  2.0043
             S**2   =   0.0000
 KE= 2.864474063431D+02 PE=-1.211918765976D+03 EE= 3.659277108806D+02
 Leave Link  502 at Mon Aug 21 21:32:04 2006, MaxMem=    6291456 cpu:    1122.3
 (Enter /usr/local/Gaussian/g03/l601.exe)
 Copying SCF densities to generalized density rwf, ISCF=0 IROHF=0.

 **********************************************************************

            Population analysis using the SCF density.

 **********************************************************************

 Orbital symmetries:
       Occupied  (A) (A) (A) (A) (A) (A) (A) (A) (A) (A) (A) (A)
                 (A) (A) (A) (A) (A) (A) (A) (A) (A) (A) (A) (A)
                 (A)
       Virtual   (A) (A) (A) (A) (A) (A) (A) (A) (A) (A) (A) (A)
                 (A) (A) (A) (A) (A) (A) (A) (A) (A) (A) (A) (A)
                 (A) (A) (A) (A) (A) (A) (A) (A) (A) (A) (A) (A)
                 (A) (A) (A) (A) (A) (A) (A) (A) (A) (A) (A) (A)
                 (A) (A) (A) (A) (A) (A) (A) (A) (A) (A) (A) (A)
                 (A) (A) (A) (A) (A) (A) (A) (A) (A) (A) (A) (A)
                 (A) (A) (A) (A) (A) (A) (A) (A) (A) (A) (A) (A)
                 (A) (A) (A) (A) (A) (A) (A) (A) (A) (A) (A) (A)
                 (A) (A) (A) (A) (A) (A) (A) (A) (A) (A) (A) (A)
                 (A) (A) (A) (A) (A) (A) (A) (A) (A) (A) (A) (A)
                 (A) (A) (A) (A) (A) (A) (A) (A) (A) (A) (A) (A)
                 (A) (A) (A) (A) (A) (A) (A) (A) (A) (A) (A) (A)
                 (A) (A) (A) (A) (A) (A) (A) (A) (A) (A) (A) (A)
                 (A) (A) (A) (A) (A) (A) (A) (A) (A) (A) (A) (A)
                 (A) (A) (A)
 The electronic state is 1-A.
 Alpha  occ. eigenvalues --  -14.32376 -10.21575 -10.17235 -10.17235 -10.16787
 Alpha  occ. eigenvalues --  -10.16786 -10.16216  -0.92704  -0.84129  -0.74762
 Alpha  occ. eigenvalues --   -0.72937  -0.61563  -0.60250  -0.53011  -0.51592
 Alpha  occ. eigenvalues --   -0.48146  -0.43579  -0.43317  -0.42137  -0.38857
 Alpha  occ. eigenvalues --   -0.36142  -0.34421  -0.31721  -0.25503  -0.21182
 Alpha virt. eigenvalues --   -0.01242  -0.00364   0.00365   0.01518   0.02109
 Alpha virt. eigenvalues --    0.04092   0.04406   0.06473   0.06914   0.07717
 Alpha virt. eigenvalues --    0.08648   0.09209   0.09322   0.11978   0.12930
 Alpha virt. eigenvalues --    0.13149   0.13248   0.14073   0.14481   0.14494
 Alpha virt. eigenvalues --    0.16754   0.17159   0.17910   0.18166   0.19617
 Alpha virt. eigenvalues --    0.19785   0.20298   0.20532   0.21006   0.21182
 Alpha virt. eigenvalues --    0.22109   0.22813   0.23475   0.25043   0.25507
 Alpha virt. eigenvalues --    0.26477   0.27922   0.28615   0.29295   0.32783
 Alpha virt. eigenvalues --    0.32905   0.34794   0.36923   0.45166   0.45513
 Alpha virt. eigenvalues --    0.52098   0.53394   0.53438   0.54603   0.55378
 Alpha virt. eigenvalues --    0.56238   0.56551   0.57656   0.58227   0.61492
 Alpha virt. eigenvalues --    0.61790   0.62926   0.64616   0.68656   0.68932
 Alpha virt. eigenvalues --    0.69986   0.72298   0.72829   0.73957   0.77972
 Alpha virt. eigenvalues --    0.81457   0.81469   0.82460   0.82913   0.84731
 Alpha virt. eigenvalues --    0.85072   0.85570   0.86364   0.86754   0.89451
 Alpha virt. eigenvalues --    0.93139   0.97023   1.01209   1.01763   1.02675
 Alpha virt. eigenvalues --    1.08681   1.09900   1.14622   1.16527   1.24910
 Alpha virt. eigenvalues --    1.29989   1.39964   1.43852   1.46640   1.52060
 Alpha virt. eigenvalues --    1.52149   1.52200   1.56292   1.56875   1.57650
 Alpha virt. eigenvalues --    1.59668   1.62527   1.65686   1.67570   1.69687
 Alpha virt. eigenvalues --    1.70708   1.74342   1.77761   1.82492   1.84074
 Alpha virt. eigenvalues --    1.87090   1.89264   1.93411   1.94033   1.94065
 Alpha virt. eigenvalues --    1.95175   1.95242   1.96573   2.00614   2.06475
 Alpha virt. eigenvalues --    2.07249   2.08726   2.11635   2.26705   2.28624
 Alpha virt. eigenvalues --    2.34969   2.38090   2.40447   2.40675   2.44905
 Alpha virt. eigenvalues --    2.56591   2.57647   2.58139   2.63656   2.66649
 Alpha virt. eigenvalues --    2.68534   2.70282   2.70282   2.72566   2.74303
 Alpha virt. eigenvalues --    2.76026   2.77333   2.79844   2.80371   2.82191
 Alpha virt. eigenvalues --    2.87545   2.88803   2.90494   2.94485   2.94607
 Alpha virt. eigenvalues --    3.01530   3.08574   3.13439   3.29443   3.32911
 Alpha virt. eigenvalues --    3.36140   3.43236   3.49988   3.51593   3.65209
 Alpha virt. eigenvalues --    3.83222   3.98336   3.99394   4.06462   4.14478
 Alpha virt. eigenvalues --    4.15046   4.76678   4.85534   5.00177  23.58002
 Alpha virt. eigenvalues --   23.94942  23.96034  24.07891  24.11597  24.21223
 Alpha virt. eigenvalues --   35.63829
          Condensed to atoms (all electrons):
              1          2          3          4          5          6
     1  C    6.112057   0.060533  -0.185996  -0.158269  -0.075786   0.069903
     2  C    0.060533   5.716437   0.060440   0.162142  -0.106879   0.162168
     3  C   -0.185996   0.060440   6.112002   0.069957  -0.075749  -0.158283
     4  C   -0.158269   0.162142   0.069957   5.064131   0.536702   0.042640
     5  C   -0.075786  -0.106879  -0.075749   0.536702   4.982006   0.536730
     6  C    0.069903   0.162168  -0.158283   0.042640   0.536730   5.064167
     7  H    0.360485  -0.018048  -0.057243   0.011593  -0.009239   0.071824
     8  N   -0.077622   0.115959  -0.077585   0.006499   0.002558   0.006482
     9  H   -0.057239  -0.018036   0.360470   0.071824  -0.009241   0.011595
    10  H   -0.001268   0.013391  -0.044543   0.393263  -0.010931  -0.002020
    11  H   -0.018618   0.010513  -0.018617  -0.003396   0.384478  -0.003396
    12  H   -0.044545   0.013388  -0.001268  -0.002019  -0.010930   0.393266
    13  H    0.058892  -0.001710  -0.075281   0.013555  -0.000536  -0.006321
    14  H   -0.075284  -0.001711   0.058895  -0.006321  -0.000536   0.013555
              7          8          9         10         11         12
     1  C    0.360485  -0.077622  -0.057239  -0.001268  -0.018618  -0.044545
     2  C   -0.018048   0.115959  -0.018036   0.013391   0.010513   0.013388
     3  C   -0.057243  -0.077585   0.360470  -0.044543  -0.018617  -0.001268
     4  C    0.011593   0.006499   0.071824   0.393263  -0.003396  -0.002019
     5  C   -0.009239   0.002558  -0.009241  -0.010931   0.384478  -0.010930
     6  C    0.071824   0.006482   0.011595  -0.002020  -0.003396   0.393266
     7  H    0.562562  -0.018664  -0.000189   0.000074  -0.000278  -0.008785
     8  N   -0.018664   6.685352  -0.018666  -0.001400   0.000419  -0.001400
     9  H   -0.000189  -0.018666   0.562565  -0.008785  -0.000278   0.000074
    10  H    0.000074  -0.001400  -0.008785   0.548523  -0.008107  -0.000328
    11  H   -0.000278   0.000419  -0.000278  -0.008107   0.547088  -0.008107
    12  H   -0.008785  -0.001400   0.000074  -0.000328  -0.008107   0.548523
    13  H    0.000251   0.368561   0.005576  -0.000017  -0.000007   0.000024
    14  H    0.005576   0.368562   0.000251   0.000024  -0.000007  -0.000017
             13         14
     1  C    0.058892  -0.075284
     2  C   -0.001710  -0.001711
     3  C   -0.075281   0.058895
     4  C    0.013555  -0.006321
     5  C   -0.000536  -0.000536
     6  C   -0.006321   0.013555
     7  H    0.000251   0.005576
     8  N    0.368561   0.368562
     9  H    0.005576   0.000251
    10  H   -0.000017   0.000024
    11  H   -0.000007  -0.000007
    12  H    0.000024  -0.000017
    13  H    0.456084  -0.042380
    14  H   -0.042380   0.456083
 Mulliken atomic charges:
              1
     1  C    0.032756
     2  C   -0.168588
     3  C    0.032801
     4  C   -0.202300
     5  C   -0.142648
     6  C   -0.202310
     7  H    0.100083
     8  N   -0.359056
     9  H    0.100081
    10  H    0.122124
    11  H    0.118314
    12  H    0.122124
    13  H    0.223310
    14  H    0.223310
 Sum of Mulliken charges=   0.00000
 Atomic charges with hydrogens summed into heavy atoms:
              1
     1  C    0.132839
     2  C   -0.168588
     3  C    0.132881
     4  C   -0.080176
     5  C   -0.024334
     6  C   -0.080186
     7  H    0.000000
     8  N    0.087564
     9  H    0.000000
    10  H    0.000000
    11  H    0.000000
    12  H    0.000000
    13  H    0.000000
    14  H    0.000000
 Sum of Mulliken charges=   0.00000
 Electronic spatial extent (au):  <R**2>=   685.5666
 Charge=     0.0000 electrons
 Dipole moment (field-independent basis, Debye):
    X=    -1.3194    Y=     0.0000    Z=     0.9369  Tot=     1.6182
 Quadrupole moment (field-independent basis, Debye-Ang):
   XX=   -35.4016   YY=   -37.0471   ZZ=   -47.3976
   XY=    -0.0002   XZ=    -3.0571   YZ=    -0.0001
 Traceless Quadrupole moment (field-independent basis, Debye-Ang):
   XX=     4.5472   YY=     2.9017   ZZ=    -7.4488
   XY=    -0.0002   XZ=    -3.0571   YZ=    -0.0001
 Octapole moment (field-independent basis, Debye-Ang**2):
  XXX=   -16.4850  YYY=     0.0001  ZZZ=     0.5832  XYY=    -5.5937
  XXY=     0.0005  XXZ=     9.2160  XZZ=    -2.5038  YZZ=    -0.0001
  YYZ=     0.5322  XYZ=     0.0005
 Hexadecapole moment (field-independent basis, Debye-Ang**3):
 XXXX=  -506.6236 YYYY=  -287.1085 ZZZZ=   -58.7306 XXXY=    -0.0016
 XXXZ=   -27.6587 YYYX=    -0.0003 YYYZ=     0.0000 ZZZX=    -2.7452
 ZZZY=    -0.0002 XXYY=  -124.3751 XXZZ=  -120.9664 YYZZ=   -68.6675
 XXYZ=    -0.0014 YYXZ=    -2.1949 ZZXY=     0.0001
 N-N= 2.718560909409D+02 E-N=-1.211918765322D+03  KE= 2.864474063431D+02
 No NMR shielding tensors so no spin-rotation constants.
 Leave Link  601 at Mon Aug 21 21:32:09 2006, MaxMem=    6291456 cpu:       1.2
 (Enter /usr/local/Gaussian/g03/l701.exe)
 Compute integral first derivatives.
 ... and contract with generalized density number  0.
 Leave Link  701 at Mon Aug 21 21:32:13 2006, MaxMem=    6291456 cpu:       1.0
 (Enter /usr/local/Gaussian/g03/l702.exe)
 L702 exits ... SP integral derivatives will be done elsewhere.
 Leave Link  702 at Mon Aug 21 21:32:14 2006, MaxMem=    6291456 cpu:       0.0
 (Enter /usr/local/Gaussian/g03/l703.exe)
 Compute integral first derivatives, UseDBF=F.
 Integral derivatives from FoFDir, PRISM(SPDF).
 Symmetry not used in FoFDir.
 MinBra= 0 MaxBra= 2 Meth= 1.
 IRaf=       0 NMat=   1 IRICut=       1 DoRegI=T DoRafI=F ISym2E= 0 JSym2E=0.
 Leave Link  703 at Mon Aug 21 21:50:26 2006, MaxMem=    6291456 cpu:     347.6
 (Enter /usr/local/Gaussian/g03/l716.exe)
 Dipole        =-5.19084962D-01 1.96592246D-05 3.68622808D-01
 ***** Axes restored to original set *****
 -------------------------------------------------------------------
 Center     Atomic                   Forces (Hartrees/Bohr)
 Number     Number              X              Y              Z
 -------------------------------------------------------------------
    1          6          -0.002769279    0.000069483   -0.000250478
    2          6           0.002167604   -0.000141346   -0.001292299
    3          6          -0.001096782    0.000069550    0.002554755
    4          6           0.002599457   -0.000076510    0.001319068
    5          6           0.002351138    0.000055009   -0.001400965
    6          6           0.000076621   -0.000076778   -0.002914810
    7          1          -0.000118013    0.000021086   -0.000127451
    8          7          -0.002406139    0.000761332    0.001435590
    9          1           0.000055733    0.000021223    0.000164668
   10          1           0.000121771    0.000008845    0.000039169
   11          1           0.000120170   -0.000015050   -0.000071647
   12          1           0.000023493    0.000008882   -0.000125412
   13          1          -0.000320329   -0.000352972    0.000741539
   14          1          -0.000805444   -0.000352753   -0.000071727
 -------------------------------------------------------------------
 Cartesian Forces:  Max     0.002914810 RMS     0.001159467
 Leave Link  716 at Mon Aug 21 21:50:27 2006, MaxMem=    6291456 cpu:       0.0
 (Enter /usr/local/Gaussian/g03/l103.exe)

 GradGradGradGradGradGradGradGradGradGradGradGradGradGradGradGradGradGrad
 Berny optimization.
 Internal  Forces:  Max     0.004110289 RMS     0.000997081
 Search for a local minimum.
 Step number   1 out of a maximum of  73
 All quantities printed in internal units (Hartrees-Bohrs-Radians)
 Second derivative matrix not updated -- first step.
     Eigenvalues ---    0.01799   0.01998   0.02092   0.02150   0.02165
     Eigenvalues ---    0.02201   0.02202   0.02215   0.02226   0.02229
     Eigenvalues ---    0.04021   0.16000   0.16000   0.16000   0.16000
     Eigenvalues ---    0.16000   0.16000   0.16000   0.22000   0.22000
     Eigenvalues ---    0.23464   0.24969   0.35331   0.35331   0.35447
     Eigenvalues ---    0.35448   0.35614   0.42052   0.42446   0.45912
     Eigenvalues ---    0.46288   0.46289   0.46356   0.46989   0.47207
     Eigenvalues ---    0.476901000.000001000.000001000.000001000.00000
     Eigenvalues --- 1000.000001000.000001000.000001000.000001000.00000
     Eigenvalues --- 1000.000001000.000001000.000001000.000001000.00000
     Eigenvalues --- 1000.000001000.000001000.000001000.000001000.00000
     Eigenvalues --- 1000.000001000.000001000.000001000.000001000.00000
     Eigenvalues --- 1000.000001000.000001000.00000
 RFO step:  Lambda=-1.35704964D-04.
 Linear search not attempted -- first point.
 Iteration  1 RMS(Cart)=  0.00402024 RMS(Int)=  0.00000151
 Iteration  2 RMS(Cart)=  0.00000170 RMS(Int)=  0.00000032
 Iteration  3 RMS(Cart)=  0.00000000 RMS(Int)=  0.00000032
 Variable       Old X    -DE/DX   Delta X   Delta X   Delta X     New X
                                 (Linear)    (Quad)   (Total)
    R1        2.64824   0.00202   0.00000   0.00435   0.00435   2.65259
    R2        2.62271   0.00308   0.00000   0.00646   0.00646   2.62917
    R3        2.05140   0.00017   0.00000   0.00047   0.00047   2.05187
    R4        2.64824   0.00202   0.00000   0.00435   0.00435   2.65259
    R5        2.63032   0.00411   0.00000   0.00874   0.00874   2.63907
    R6        2.62271   0.00308   0.00000   0.00646   0.00646   2.62917
    R7        2.05140   0.00017   0.00000   0.00047   0.00047   2.05187
    R8        2.62964   0.00287   0.00000   0.00620   0.00620   2.63583
    R9        2.04954   0.00013   0.00000   0.00035   0.00035   2.04990
   R10        2.62964   0.00287   0.00000   0.00620   0.00620   2.63584
   R11        2.04690   0.00014   0.00000   0.00039   0.00039   2.04729
   R12        2.04954   0.00012   0.00000   0.00035   0.00035   2.04990
   R13        1.90507   0.00080   0.00000   0.00173   0.00173   1.90681
   R14        1.90507   0.00080   0.00000   0.00174   0.00174   1.90681
    A1        2.10410  -0.00004   0.00000  -0.00035  -0.00035   2.10375
    A2        2.08451   0.00007   0.00000   0.00052   0.00052   2.08502
    A3        2.09457  -0.00003   0.00000  -0.00016  -0.00016   2.09440
    A4        2.06665   0.00041   0.00000   0.00132   0.00132   2.06797
    A5        2.10776  -0.00021   0.00000  -0.00066  -0.00066   2.10710
    A6        2.10777  -0.00021   0.00000  -0.00066  -0.00066   2.10711
    A7        2.10410  -0.00004   0.00000  -0.00035  -0.00035   2.10375
    A8        2.08451   0.00007   0.00000   0.00051   0.00051   2.08502
    A9        2.09456  -0.00003   0.00000  -0.00016  -0.00016   2.09440
   A10        2.10867  -0.00013   0.00000  -0.00038  -0.00038   2.10830
   A11        2.08013   0.00009   0.00000   0.00036   0.00036   2.08049
   A12        2.09438   0.00004   0.00000   0.00002   0.00002   2.09440
   A13        2.07418  -0.00007   0.00000   0.00013   0.00013   2.07430
   A14        2.10450   0.00003   0.00000  -0.00006  -0.00006   2.10444
   A15        2.10450   0.00003   0.00000  -0.00006  -0.00006   2.10444
   A16        2.10867  -0.00013   0.00000  -0.00038  -0.00038   2.10830
   A17        2.08013   0.00009   0.00000   0.00036   0.00036   2.08049
   A18        2.09438   0.00004   0.00000   0.00002   0.00002   2.09440
   A19        2.02230   0.00029   0.00000   0.00173   0.00173   2.02404
   A20        2.02231   0.00029   0.00000   0.00173   0.00173   2.02404
   A21        1.96521  -0.00044   0.00000  -0.00287  -0.00287   1.96234
    D1        0.00004   0.00004   0.00000   0.00158   0.00158   0.00163
    D2        3.09384   0.00003   0.00000   0.00152   0.00152   3.09535
    D3       -3.13610   0.00002   0.00000   0.00090   0.00090  -3.13520
    D4       -0.04231   0.00001   0.00000   0.00084   0.00084  -0.04147
    D5        0.00006  -0.00002   0.00000  -0.00097  -0.00097  -0.00091
    D6        3.14053  -0.00001   0.00000  -0.00038  -0.00038   3.14016
    D7        3.13617  -0.00001   0.00000  -0.00028  -0.00028   3.13588
    D8       -0.00654   0.00001   0.00000   0.00031   0.00031  -0.00623
    D9       -0.00004  -0.00004   0.00000  -0.00158  -0.00158  -0.00162
   D10        3.13611  -0.00002   0.00000  -0.00091  -0.00091   3.13520
   D11       -3.09383  -0.00003   0.00000  -0.00152  -0.00152  -3.09535
   D12        0.04232  -0.00001   0.00000  -0.00084  -0.00084   0.04148
   D13        2.77531  -0.00002   0.00000  -0.00029  -0.00029   2.77501
   D14        0.41534   0.00001   0.00000   0.00028   0.00028   0.41561
   D15       -0.41522  -0.00001   0.00000  -0.00031  -0.00031  -0.41552
   D16       -2.77518   0.00002   0.00000   0.00026   0.00026  -2.77492
   D17       -0.00006   0.00002   0.00000   0.00097   0.00097   0.00091
   D18       -3.14053   0.00001   0.00000   0.00037   0.00037  -3.14016
   D19       -3.13618   0.00001   0.00000   0.00029   0.00029  -3.13589
   D20        0.00653  -0.00001   0.00000  -0.00031  -0.00031   0.00623
   D21        0.00015  -0.00001   0.00000  -0.00031  -0.00031  -0.00016
   D22       -3.14127   0.00000   0.00000  -0.00003  -0.00003  -3.14130
   D23        3.14062   0.00001   0.00000   0.00029   0.00029   3.14091
   D24       -0.00080   0.00001   0.00000   0.00057   0.00057  -0.00023
   D25       -0.00015   0.00001   0.00000   0.00031   0.00031   0.00016
   D26       -3.14062  -0.00001   0.00000  -0.00029  -0.00029  -3.14091
   D27        3.14127   0.00000   0.00000   0.00003   0.00003   3.14130
   D28        0.00080  -0.00001   0.00000  -0.00057  -0.00057   0.00023
         Item               Value     Threshold  Converged?
 Maximum Force            0.004110     0.000450     NO 
 RMS     Force            0.000997     0.000300     NO 
 Maximum Displacement     0.011598     0.001800     NO 
 RMS     Displacement     0.004020     0.001200     NO 
 Predicted change in Energy=-6.787357D-05
 GradGradGradGradGradGradGradGradGradGradGradGradGradGradGradGradGradGrad

 Leave Link  103 at Mon Aug 21 21:50:30 2006, MaxMem=    6291456 cpu:       0.3
 (Enter /usr/local/Gaussian/g03/l202.exe)
                          Input orientation:                          
 ---------------------------------------------------------------------
 Center     Atomic     Atomic              Coordinates (Angstroms)
 Number     Number      Type              X           Y           Z
 ---------------------------------------------------------------------
    1          6             0       -0.001540    0.000742   -0.001934
    2          6             0       -0.000612    0.000159    1.401754
    3          6             0        1.233580    0.000742    2.070419
    4          6             0        2.425955   -0.000071    1.353519
    5          6             0        2.420616   -0.000393   -0.041294
    6          6             0        1.196329   -0.000076   -0.709617
    7          1             0       -0.947257    0.006350   -0.535371
    8          7             0       -1.199268    0.056462    2.116149
    9          1             0        1.252818    0.006345    3.156037
   10          1             0        3.367451   -0.000953    1.892301
   11          1             0        3.351246   -0.001303   -0.595949
   12          1             0        1.170383   -0.000961   -1.794065
   13          1             0       -1.161105   -0.271215    3.069738
   14          1             0       -2.019839   -0.271293    1.628911
 ---------------------------------------------------------------------
                    Distance matrix (angstroms):
                    1          2          3          4          5
     1  C    0.000000
     2  C    1.403689   0.000000
     3  C    2.412503   1.403689   0.000000
     4  C    2.780286   2.427047   1.391296   0.000000
     5  C    2.422475   2.818640   2.422476   1.394823   0.000000
     6  C    1.391296   2.427046   2.780286   2.401773   1.394824
     7  H    1.085802   2.156068   3.397973   3.866071   3.403928
     8  N    2.433913   1.396534   2.433916   3.705003   4.214422
     9  H    3.397974   2.156068   1.085802   2.150665   3.403927
    10  H    3.865001   3.403599   2.141293   1.084759   2.152972
    11  H    3.405001   3.902022   3.405001   2.157913   1.083382
    12  H    2.141293   3.403599   3.865001   3.388768   2.152972
    13  H    3.294499   2.050014   2.609045   3.985716   4.751904
    14  H    2.609059   2.050016   3.294490   4.462565   4.751906
                    6          7          8          9         10
     6  C    0.000000
     7  H    2.150666   0.000000
     8  N    3.705001   2.663940   0.000000
     9  H    3.866071   4.297303   2.663946   0.000000
    10  H    3.388768   4.950793   4.572563   2.463485   0.000000
    11  H    2.157914   4.298937   5.297735   4.298936   2.488302
    12  H    1.084759   2.463486   4.572561   4.950793   4.291433
    13  H    4.462570   3.622096   1.009039   2.431360   4.686921
    14  H    3.985725   2.431385   1.009039   3.622082   5.400496
                   11         12         13         14
    11  H    0.000000
    12  H    2.488302   0.000000
    13  H    5.819916   5.400504   0.000000
    14  H    5.819918   4.686934   1.677321   0.000000
 Stoichiometry    C6H7N
 Framework group  C1[X(C6H7N)]
 Deg. of freedom    36
 Full point group                 C1      NOp   1
 Largest Abelian subgroup         C1      NOp   1
 Largest concise Abelian subgroup C1      NOp   1
                         Standard orientation:                         
 ---------------------------------------------------------------------
 Center     Atomic     Atomic              Coordinates (Angstroms)
 Number     Number      Type              X           Y           Z
 ---------------------------------------------------------------------
    1          6             0       -0.220322   -1.206252   -0.004473
    2          6             0       -0.938161    0.000000   -0.007487
    3          6             0       -0.220324    1.206251   -0.004469
    4          6             0        1.170941    1.200887    0.003322
    5          6             0        1.880441    0.000001    0.007200
    6          6             0        1.170941   -1.200886    0.003323
    7          1             0       -0.759562   -2.148652   -0.012787
    8          7             0       -2.333259   -0.000004   -0.070788
    9          1             0       -0.759563    2.148652   -0.012774
   10          1             0        1.703842    2.145717    0.006879
   11          1             0        2.963804    0.000001    0.013544
   12          1             0        1.703843   -2.145716    0.006879
   13          1             0       -2.790320    0.838672    0.254602
   14          1             0       -2.790322   -0.838649    0.254677
 ---------------------------------------------------------------------
 Rotational constants (GHZ):      5.6323854      2.5909392      1.7769984
 Leave Link  202 at Mon Aug 21 21:50:32 2006, MaxMem=    6291456 cpu:       0.5
 (Enter /usr/local/Gaussian/g03/l301.exe)
 Standard basis: 6-311+G(d,p) (5D, 7F)
 There are   196 symmetry adapted basis functions of A   symmetry.
 Integral buffers will be    131072 words long.
 Raffenetti 2 integral format.
 Two-electron integral symmetry is turned on.
   196 basis functions,   308 primitive gaussians,   203 cartesian basis functions
    25 alpha electrons       25 beta electrons
       nuclear repulsion energy       271.2992970100 Hartrees.
 IExCor= 402 DFT=T Ex=B+HF Corr=LYP ExCW=0 ScaHFX=  0.200000
 ScaDFX=  0.800000  0.720000  1.000000  0.810000
 IRadAn=      0 IRanWt=     -1 IRanGd=            0 ICorTp=0
 NAtoms=   14 NActive=   14 NUniq=   14 SFac= 1.00D+00 NAtFMM=   60 Big=F
 Leave Link  301 at Mon Aug 21 21:50:33 2006, MaxMem=    6291456 cpu:       0.1
 (Enter /usr/local/Gaussian/g03/l302.exe)
 NPDir=0 NMtPBC=     1 NCelOv=     1 NCel=       1 NClECP=     1 NCelD=      1
         NCelK=      1 NCelE2=     1 NClLst=     1 CellRange=     0.0.
 One-electron integrals computed using PRISM.
 NBasis=   196 RedAO= T  NBF=   196
 NBsUse=   196 1.00D-06 NBFU=   196
 Precomputing XC quadrature grid using
 IXCGrd= 2 IRadAn=           0 IRanWt=          -1 IRanGd=           0.
 NRdTot=     898 NPtTot=      113936 NUsed=      120279 NTot=      120311
 NSgBfM=   203   203   203   203.
 Leave Link  302 at Mon Aug 21 21:50:42 2006, MaxMem=    6291456 cpu:       2.5
 (Enter /usr/local/Gaussian/g03/l303.exe)
 DipDrv:  MaxL=1.
 Leave Link  303 at Mon Aug 21 21:50:44 2006, MaxMem=    6291456 cpu:       0.1
 (Enter /usr/local/Gaussian/g03/l401.exe)
 Initial guess read from the read-write file:
 Guess basis will be translated and rotated to current coordinates.
 Initial guess orbital symmetries:
       Occupied  (A) (A) (A) (A) (A) (A) (A) (A) (A) (A) (A) (A)
                 (A) (A) (A) (A) (A) (A) (A) (A) (A) (A) (A) (A)
                 (A)
       Virtual   (A) (A) (A) (A) (A) (A) (A) (A) (A) (A) (A) (A)
                 (A) (A) (A) (A) (A) (A) (A) (A) (A) (A) (A) (A)
                 (A) (A) (A) (A) (A) (A) (A) (A) (A) (A) (A) (A)
                 (A) (A) (A) (A) (A) (A) (A) (A) (A) (A) (A) (A)
                 (A) (A) (A) (A) (A) (A) (A) (A) (A) (A) (A) (A)
                 (A) (A) (A) (A) (A) (A) (A) (A) (A) (A) (A) (A)
                 (A) (A) (A) (A) (A) (A) (A) (A) (A) (A) (A) (A)
                 (A) (A) (A) (A) (A) (A) (A) (A) (A) (A) (A) (A)
                 (A) (A) (A) (A) (A) (A) (A) (A) (A) (A) (A) (A)
                 (A) (A) (A) (A) (A) (A) (A) (A) (A) (A) (A) (A)
                 (A) (A) (A) (A) (A) (A) (A) (A) (A) (A) (A) (A)
                 (A) (A) (A) (A) (A) (A) (A) (A) (A) (A) (A) (A)
                 (A) (A) (A) (A) (A) (A) (A) (A) (A) (A) (A) (A)
                 (A) (A) (A) (A) (A) (A) (A) (A) (A) (A) (A) (A)
                 (A) (A) (A)
 The electronic state of the initial guess is 1-A.
 Leave Link  401 at Mon Aug 21 21:50:48 2006, MaxMem=    6291456 cpu:       1.0
 (Enter /usr/local/Gaussian/g03/l502.exe)
 Closed shell SCF:
 Requested convergence on RMS density matrix=1.00D-08 within 128 cycles.
 Requested convergence on MAX density matrix=1.00D-06.
 Requested convergence on             energy=1.00D-06.
 No special actions if energy rises.
 Using DIIS extrapolation, IDIIS=  1040.
 Integral symmetry usage will be decided dynamically.
       120278 words used for storage of precomputed grid.
 IEnd=    284043 IEndB=    284043 NGot=   6291456 MDV=   6065466
 LenX=   6065466
 Fock matrices will be formed incrementally for  20 cycles.

 Cycle   1  Pass 1  IDiag  1:
 Petite list used in FoFDir.
 MinBra= 0 MaxBra= 2 Meth= 1.
 IRaf=       0 NMat=   1 IRICut=       1 DoRegI=T DoRafI=F ISym2E= 1 JSym2E=1.
 E= -287.687600732334    
 DIIS: error= 3.00D-04 at cycle   1 NSaved=   1.
 NSaved= 1 IEnMin= 1 EnMin= -287.687600732334     IErMin= 1 ErrMin= 3.00D-04
 ErrMax= 3.00D-04 EMaxC= 1.00D-01 BMatC= 2.22D-05 BMatP= 2.22D-05
 IDIUse=3 WtCom= 9.97D-01 WtEn= 3.00D-03
 Coeff-Com:  0.100D+01
 Coeff-En:   0.100D+01
 Coeff:      0.100D+01
 Gap=     0.199 Goal=   None    Shift=    0.000
 RMSDP=1.95D-04 MaxDP=9.99D-03              OVMax= 1.22D-03

 Cycle   2  Pass 1  IDiag  1:
 RMSU=  1.71D-04    CP:  9.94D-01
 E= -287.687618687115     Delta-E=       -0.000017954781 Rises=F Damp=F
 DIIS: error= 1.37D-04 at cycle   2 NSaved=   2.
 NSaved= 2 IEnMin= 2 EnMin= -287.687618687115     IErMin= 2 ErrMin= 1.37D-04
 ErrMax= 1.37D-04 EMaxC= 1.00D-01 BMatC= 3.38D-06 BMatP= 2.22D-05
 IDIUse=3 WtCom= 9.99D-01 WtEn= 1.37D-03
 Coeff-Com:  0.198D+00 0.802D+00
 Coeff-En:   0.000D+00 0.100D+01
 Coeff:      0.198D+00 0.802D+00
 Gap=     0.199 Goal=   None    Shift=    0.000
 RMSDP=2.54D-05 MaxDP=8.36D-04 DE=-1.80D-05 OVMax= 6.77D-04

 Cycle   3  Pass 1  IDiag  1:
 RMSU=  2.47D-05    CP:  9.94D-01  9.80D-01
 E= -287.687620037721     Delta-E=       -0.000001350606 Rises=F Damp=F
 DIIS: error= 1.14D-04 at cycle   3 NSaved=   3.
 NSaved= 3 IEnMin= 3 EnMin= -287.687620037721     IErMin= 3 ErrMin= 1.14D-04
 ErrMax= 1.14D-04 EMaxC= 1.00D-01 BMatC= 1.95D-06 BMatP= 3.38D-06
 IDIUse=3 WtCom= 9.99D-01 WtEn= 1.14D-03
 Coeff-Com: -0.470D-02 0.430D+00 0.574D+00
 Coeff-En:   0.000D+00 0.379D+00 0.621D+00
 Coeff:     -0.470D-02 0.430D+00 0.574D+00
 Gap=     0.199 Goal=   None    Shift=    0.000
 RMSDP=1.81D-05 MaxDP=9.83D-04 DE=-1.35D-06 OVMax= 3.45D-04

 Cycle   4  Pass 1  IDiag  1:
 RMSU=  8.90D-06    CP:  9.94D-01  1.02D+00  4.95D-01
 E= -287.687621986322     Delta-E=       -0.000001948600 Rises=F Damp=F
 DIIS: error= 2.43D-05 at cycle   4 NSaved=   4.
 NSaved= 4 IEnMin= 4 EnMin= -287.687621986322     IErMin= 4 ErrMin= 2.43D-05
 ErrMax= 2.43D-05 EMaxC= 1.00D-01 BMatC= 3.47D-08 BMatP= 1.95D-06
 IDIUse=1 WtCom= 1.00D+00 WtEn= 0.00D+00
 Coeff-Com: -0.446D-02 0.167D+00 0.255D+00 0.583D+00
 Coeff:     -0.446D-02 0.167D+00 0.255D+00 0.583D+00
 Gap=     0.199 Goal=   None    Shift=    0.000
 RMSDP=2.67D-06 MaxDP=8.18D-05 DE=-1.95D-06 OVMax= 1.57D-04

 Cycle   5  Pass 1  IDiag  1:
 RMSU=  1.85D-06    CP:  9.94D-01  1.01D+00  4.91D-01  8.24D-01
 E= -287.687622010848     Delta-E=       -0.000000024526 Rises=F Damp=F
 DIIS: error= 1.26D-05 at cycle   5 NSaved=   5.
 NSaved= 5 IEnMin= 5 EnMin= -287.687622010848     IErMin= 5 ErrMin= 1.26D-05
 ErrMax= 1.26D-05 EMaxC= 1.00D-01 BMatC= 1.17D-08 BMatP= 3.47D-08
 IDIUse=1 WtCom= 1.00D+00 WtEn= 0.00D+00
 Coeff-Com: -0.227D-02 0.389D-01 0.744D-01 0.382D+00 0.507D+00
 Coeff:     -0.227D-02 0.389D-01 0.744D-01 0.382D+00 0.507D+00
 Gap=     0.199 Goal=   None    Shift=    0.000
 RMSDP=1.19D-06 MaxDP=6.55D-05 DE=-2.45D-08 OVMax= 5.00D-05

 Cycle   6  Pass 1  IDiag  1:
 RMSU=  7.87D-07    CP:  9.94D-01  1.02D+00  4.91D-01  8.77D-01  6.70D-01
 E= -287.687622022720     Delta-E=       -0.000000011872 Rises=F Damp=F
 DIIS: error= 3.18D-06 at cycle   6 NSaved=   6.
 NSaved= 6 IEnMin= 6 EnMin= -287.687622022720     IErMin= 6 ErrMin= 3.18D-06
 ErrMax= 3.18D-06 EMaxC= 1.00D-01 BMatC= 4.89D-10 BMatP= 1.17D-08
 IDIUse=1 WtCom= 1.00D+00 WtEn= 0.00D+00
 Coeff-Com: -0.749D-03 0.536D-02 0.166D-01 0.155D+00 0.244D+00 0.579D+00
 Coeff:     -0.749D-03 0.536D-02 0.166D-01 0.155D+00 0.244D+00 0.579D+00
 Gap=     0.199 Goal=   None    Shift=    0.000
 RMSDP=2.50D-07 MaxDP=8.82D-06 DE=-1.19D-08 OVMax= 1.36D-05

 Cycle   7  Pass 1  IDiag  1:
 RMSU=  1.43D-07    CP:  9.94D-01  1.02D+00  4.96D-01  8.86D-01  6.79D-01
                    CP:  8.29D-01
 E= -287.687622023100     Delta-E=       -0.000000000380 Rises=F Damp=F
 DIIS: error= 1.75D-06 at cycle   7 NSaved=   7.
 NSaved= 7 IEnMin= 7 EnMin= -287.687622023100     IErMin= 7 ErrMin= 1.75D-06
 ErrMax= 1.75D-06 EMaxC= 1.00D-01 BMatC= 1.03D-10 BMatP= 4.89D-10
 IDIUse=1 WtCom= 1.00D+00 WtEn= 0.00D+00
 Coeff-Com: -0.182D-03-0.109D-02 0.125D-02 0.475D-01 0.751D-01 0.343D+00
 Coeff-Com:  0.534D+00
 Coeff:     -0.182D-03-0.109D-02 0.125D-02 0.475D-01 0.751D-01 0.343D+00
 Coeff:      0.534D+00
 Gap=     0.199 Goal=   None    Shift=    0.000
 RMSDP=8.78D-08 MaxDP=3.54D-06 DE=-3.80D-10 OVMax= 5.62D-06

 Cycle   8  Pass 1  IDiag  1:
 RMSU=  6.65D-08    CP:  9.94D-01  1.02D+00  4.96D-01  8.90D-01  6.81D-01
                    CP:  8.21D-01  7.88D-01
 E= -287.687622023185     Delta-E=       -0.000000000085 Rises=F Damp=F
 DIIS: error= 1.59D-07 at cycle   8 NSaved=   8.
 NSaved= 8 IEnMin= 8 EnMin= -287.687622023185     IErMin= 8 ErrMin= 1.59D-07
 ErrMax= 1.59D-07 EMaxC= 1.00D-01 BMatC= 3.24D-12 BMatP= 1.03D-10
 IDIUse=1 WtCom= 1.00D+00 WtEn= 0.00D+00
 Coeff-Com: -0.235D-04-0.784D-03-0.791D-03 0.948D-02 0.119D-01 0.926D-01
 Coeff-Com:  0.207D+00 0.681D+00
 Coeff:     -0.235D-04-0.784D-03-0.791D-03 0.948D-02 0.119D-01 0.926D-01
 Coeff:      0.207D+00 0.681D+00
 Gap=     0.199 Goal=   None    Shift=    0.000
 RMSDP=1.79D-08 MaxDP=6.37D-07 DE=-8.52D-11 OVMax= 5.98D-07

 Cycle   9  Pass 1  IDiag  1:
 RMSU=  1.22D-08    CP:  9.94D-01  1.02D+00  4.96D-01  8.91D-01  6.80D-01
                    CP:  8.27D-01  8.28D-01  9.79D-01
 E= -287.687622023181     Delta-E=        0.000000000003 Rises=F Damp=F
 DIIS: error= 8.28D-08 at cycle   9 NSaved=   9.
 NSaved= 9 IEnMin= 8 EnMin= -287.687622023185     IErMin= 9 ErrMin= 8.28D-08
 ErrMax= 8.28D-08 EMaxC= 1.00D-01 BMatC= 8.71D-13 BMatP= 3.24D-12
 IDIUse=1 WtCom= 1.00D+00 WtEn= 0.00D+00
 Coeff-Com:  0.102D-04-0.262D-03-0.619D-03-0.860D-03-0.432D-02 0.276D-02
 Coeff-Com:  0.440D-01 0.392D+00 0.567D+00
 Coeff:      0.102D-04-0.262D-03-0.619D-03-0.860D-03-0.432D-02 0.276D-02
 Coeff:      0.440D-01 0.392D+00 0.567D+00
 Gap=     0.199 Goal=   None    Shift=    0.000
 RMSDP=8.48D-09 MaxDP=3.72D-07 DE= 3.30D-12 OVMax= 2.44D-07

 SCF Done:  E(RB+HF-LYP) =  -287.687622023     A.U. after    9 cycles
             Convg  =    0.8484D-08             -V/T =  2.0045
             S**2   =   0.0000
 KE= 2.863874778219D+02 PE=-1.210755616349D+03 EE= 3.653812194935D+02
 Leave Link  502 at Mon Aug 21 22:33:48 2006, MaxMem=    6291456 cpu:     813.3
 (Enter /usr/local/Gaussian/g03/l701.exe)
 Compute integral first derivatives.
 ... and contract with generalized density number  0.
 Leave Link  701 at Mon Aug 21 22:33:52 2006, MaxMem=    6291456 cpu:       1.0
 (Enter /usr/local/Gaussian/g03/l702.exe)
 L702 exits ... SP integral derivatives will be done elsewhere.
 Leave Link  702 at Mon Aug 21 22:33:52 2006, MaxMem=    6291456 cpu:       0.0
 (Enter /usr/local/Gaussian/g03/l703.exe)
 Compute integral first derivatives, UseDBF=F.
 Integral derivatives from FoFDir, PRISM(SPDF).
 Symmetry not used in FoFDir.
 MinBra= 0 MaxBra= 2 Meth= 1.
 IRaf=       0 NMat=   1 IRICut=       1 DoRegI=T DoRafI=F ISym2E= 0 JSym2E=0.
 Leave Link  703 at Mon Aug 21 22:52:12 2006, MaxMem=    6291456 cpu:     348.1
 (Enter /usr/local/Gaussian/g03/l716.exe)
 Dipole        =-5.13311873D-01 1.43214648D-05 3.69246693D-01
 ***** Axes restored to original set *****
 -------------------------------------------------------------------
 Center     Atomic                   Forces (Hartrees/Bohr)
 Number     Number              X              Y              Z
 -------------------------------------------------------------------
    1          6          -0.000286075    0.000003566    0.000356522
    2          6           0.001103538   -0.000214130   -0.000658106
    3          6          -0.000449370    0.000003943    0.000082087
    4          6          -0.000051172    0.000013329   -0.000134341
    5          6          -0.000225360   -0.000007601    0.000134313
    6          6           0.000093955    0.000013506    0.000108815
    7          1           0.000099642    0.000004567    0.000008075
    8          7          -0.000404417    0.000453967    0.000241456
    9          1           0.000040228    0.000004650   -0.000091506
   10          1          -0.000066267    0.000005174   -0.000038138
   11          1          -0.000045890   -0.000012621    0.000027341
   12          1           0.000002006    0.000005164    0.000076452
   13          1           0.000085932   -0.000136965   -0.000070951
   14          1           0.000103251   -0.000136549   -0.000042018
 -------------------------------------------------------------------
 Cartesian Forces:  Max     0.001103538 RMS     0.000255881
 Leave Link  716 at Mon Aug 21 22:52:12 2006, MaxMem=    6291456 cpu:       0.0
 (Enter /usr/local/Gaussian/g03/l103.exe)

 GradGradGradGradGradGradGradGradGradGradGradGradGradGradGradGradGradGrad
 Berny optimization.
 Internal  Forces:  Max     0.000495551 RMS     0.000135825
 Search for a local minimum.
 Step number   2 out of a maximum of  73
 All quantities printed in internal units (Hartrees-Bohrs-Radians)
 Update second derivatives using D2CorX and points  1  2
 Trust test= 9.46D-01 RLast= 1.78D-02 DXMaxT set to 3.00D-01
     Eigenvalues ---    0.01799   0.01998   0.02091   0.02150   0.02165
     Eigenvalues ---    0.02200   0.02202   0.02215   0.02226   0.02229
     Eigenvalues ---    0.03994   0.15981   0.16000   0.16000   0.16000
     Eigenvalues ---    0.16000   0.16000   0.16159   0.21993   0.22000
     Eigenvalues ---    0.23063   0.24969   0.35331   0.35343   0.35448
     Eigenvalues ---    0.35453   0.35619   0.41241   0.42463   0.45257
     Eigenvalues ---    0.45913   0.46289   0.46312   0.47207   0.47305
     Eigenvalues ---    0.526171000.000001000.000001000.000001000.00000
     Eigenvalues --- 1000.000001000.000001000.000001000.000001000.00000
     Eigenvalues --- 1000.000001000.000001000.000001000.000001000.00000
     Eigenvalues --- 1000.000001000.000001000.000001000.000001000.00000
     Eigenvalues --- 1000.000001000.000001000.000001000.000001000.00000
     Eigenvalues --- 1000.000001000.000001000.00000
 RFO step:  Lambda=-4.55516431D-06.
 Quartic linear search produced a step of -0.04842.
 Iteration  1 RMS(Cart)=  0.00101609 RMS(Int)=  0.00000281
 Iteration  2 RMS(Cart)=  0.00000212 RMS(Int)=  0.00000203
 Iteration  3 RMS(Cart)=  0.00000000 RMS(Int)=  0.00000203
 Variable       Old X    -DE/DX   Delta X   Delta X   Delta X     New X
                                 (Linear)    (Quad)   (Total)
    R1        2.65259  -0.00050  -0.00021  -0.00070  -0.00091   2.65168
    R2        2.62917  -0.00017  -0.00031   0.00019  -0.00013   2.62904
    R3        2.05187  -0.00009  -0.00002  -0.00021  -0.00023   2.05164
    R4        2.65259  -0.00050  -0.00021  -0.00070  -0.00091   2.65168
    R5        2.63907   0.00026  -0.00042   0.00123   0.00081   2.63988
    R6        2.62917  -0.00017  -0.00031   0.00019  -0.00013   2.62904
    R7        2.05187  -0.00009  -0.00002  -0.00021  -0.00023   2.05164
    R8        2.63583  -0.00022  -0.00030   0.00008  -0.00022   2.63562
    R9        2.04990  -0.00008  -0.00002  -0.00018  -0.00019   2.04970
   R10        2.63584  -0.00022  -0.00030   0.00008  -0.00022   2.63562
   R11        2.04729  -0.00005  -0.00002  -0.00011  -0.00013   2.04717
   R12        2.04990  -0.00008  -0.00002  -0.00018  -0.00019   2.04970
   R13        1.90681  -0.00002  -0.00008   0.00010   0.00002   1.90683
   R14        1.90681  -0.00002  -0.00008   0.00010   0.00002   1.90683
    A1        2.10375  -0.00016   0.00002  -0.00073  -0.00071   2.10304
    A2        2.08502   0.00012  -0.00002   0.00065   0.00062   2.08564
    A3        2.09440   0.00004   0.00001   0.00008   0.00009   2.09449
    A4        2.06797   0.00035  -0.00006   0.00141   0.00135   2.06932
    A5        2.10710  -0.00018   0.00003  -0.00072  -0.00069   2.10641
    A6        2.10711  -0.00018   0.00003  -0.00072  -0.00069   2.10641
    A7        2.10375  -0.00016   0.00002  -0.00073  -0.00071   2.10304
    A8        2.08502   0.00012  -0.00002   0.00065   0.00062   2.08564
    A9        2.09440   0.00004   0.00001   0.00008   0.00009   2.09449
   A10        2.10830  -0.00004   0.00002  -0.00015  -0.00013   2.10816
   A11        2.08049   0.00002  -0.00002   0.00009   0.00007   2.08056
   A12        2.09440   0.00002   0.00000   0.00006   0.00006   2.09446
   A13        2.07430   0.00006  -0.00001   0.00035   0.00034   2.07464
   A14        2.10444  -0.00003   0.00000  -0.00017  -0.00017   2.10427
   A15        2.10444  -0.00003   0.00000  -0.00017  -0.00017   2.10427
   A16        2.10830  -0.00004   0.00002  -0.00015  -0.00013   2.10816
   A17        2.08049   0.00002  -0.00002   0.00009   0.00007   2.08057
   A18        2.09440   0.00002   0.00000   0.00006   0.00006   2.09446
   A19        2.02404  -0.00017  -0.00008  -0.00192  -0.00201   2.02202
   A20        2.02404  -0.00017  -0.00008  -0.00192  -0.00201   2.02203
   A21        1.96234   0.00008   0.00014  -0.00120  -0.00107   1.96126
    D1        0.00163   0.00001  -0.00008   0.00036   0.00028   0.00191
    D2        3.09535  -0.00001  -0.00007  -0.00038  -0.00046   3.09490
    D3       -3.13520   0.00001  -0.00004   0.00049   0.00045  -3.13475
    D4       -0.04147  -0.00001  -0.00004  -0.00025  -0.00029  -0.04176
    D5       -0.00091   0.00000   0.00005   0.00001   0.00005  -0.00086
    D6        3.14016   0.00000   0.00002   0.00002   0.00004   3.14019
    D7        3.13588   0.00000   0.00001  -0.00013  -0.00012   3.13577
    D8       -0.00623   0.00000  -0.00002  -0.00012  -0.00013  -0.00637
    D9       -0.00162  -0.00001   0.00008  -0.00036  -0.00028  -0.00190
   D10        3.13520  -0.00001   0.00004  -0.00050  -0.00045   3.13475
   D11       -3.09535   0.00001   0.00007   0.00038   0.00046  -3.09489
   D12        0.04148   0.00001   0.00004   0.00024   0.00029   0.04176
   D13        2.77501  -0.00013   0.00001  -0.00291  -0.00289   2.77212
   D14        0.41561   0.00014  -0.00001   0.00358   0.00357   0.41918
   D15       -0.41552  -0.00014   0.00001  -0.00361  -0.00359  -0.41911
   D16       -2.77492   0.00013  -0.00001   0.00289   0.00287  -2.77205
   D17        0.00091   0.00000  -0.00005   0.00000  -0.00005   0.00086
   D18       -3.14016   0.00000  -0.00002  -0.00002  -0.00003  -3.14019
   D19       -3.13589   0.00000  -0.00001   0.00013   0.00012  -3.13577
   D20        0.00623   0.00000   0.00001   0.00012   0.00014   0.00636
   D21       -0.00016   0.00001   0.00002   0.00037   0.00038   0.00023
   D22       -3.14130   0.00001   0.00000   0.00023   0.00023  -3.14107
   D23        3.14091   0.00001  -0.00001   0.00038   0.00037   3.14127
   D24       -0.00023   0.00000  -0.00003   0.00024   0.00021  -0.00002
   D25        0.00016  -0.00001  -0.00002  -0.00037  -0.00038  -0.00022
   D26       -3.14091  -0.00001   0.00001  -0.00038  -0.00037  -3.14127
   D27        3.14130  -0.00001   0.00000  -0.00023  -0.00023   3.14107
   D28        0.00023   0.00000   0.00003  -0.00024  -0.00021   0.00002
         Item               Value     Threshold  Converged?
 Maximum Force            0.000496     0.000450     NO 
 RMS     Force            0.000136     0.000300     YES
 Maximum Displacement     0.003160     0.001800     NO 
 RMS     Displacement     0.001017     0.001200     YES
 Predicted change in Energy=-2.438532D-06
 GradGradGradGradGradGradGradGradGradGradGradGradGradGradGradGradGradGrad

 Leave Link  103 at Mon Aug 21 22:52:14 2006, MaxMem=    6291456 cpu:       0.2
 (Enter /usr/local/Gaussian/g03/l202.exe)
                          Input orientation:                          
 ---------------------------------------------------------------------
 Center     Atomic     Atomic              Coordinates (Angstroms)
 Number     Number      Type              X           Y           Z
 ---------------------------------------------------------------------
    1          6             0       -0.001892    0.001125   -0.001807
    2          6             0       -0.000016    0.000574    1.401400
    3          6             0        1.233301    0.001127    2.070669
    4          6             0        2.425594   -0.000082    1.353760
    5          6             0        2.420017   -0.000839   -0.040937
    6          6             0        1.195944   -0.000087   -0.709413
    7          1             0       -0.947530    0.007178   -0.535133
    8          7             0       -1.199007    0.057862    2.115995
    9          1             0        1.252480    0.007177    3.156164
   10          1             0        3.367060   -0.000948    1.892388
   11          1             0        3.350588   -0.002271   -0.595557
   12          1             0        1.170119   -0.000956   -1.793761
   13          1             0       -1.159733   -0.272632    3.068576
   14          1             0       -2.018166   -0.272694    1.628253
 ---------------------------------------------------------------------
                    Distance matrix (angstroms):
                    1          2          3          4          5
     1  C    0.000000
     2  C    1.403208   0.000000
     3  C    2.412645   1.403208   0.000000
     4  C    2.780333   2.426078   1.391230   0.000000
     5  C    2.422226   2.817250   2.422226   1.394709   0.000000
     6  C    1.391230   2.426078   2.780333   2.401816   1.394709
     7  H    1.085681   2.155918   3.397979   3.865997   3.403625
     8  N    2.433390   1.396963   2.433392   3.704334   4.213447
     9  H    3.397979   2.155919   1.085681   2.150560   3.403625
    10  H    3.864947   3.402686   2.141195   1.084656   2.152821
    11  H    3.404655   3.900563   3.404655   2.157651   1.083313
    12  H    2.141194   3.402686   3.864947   3.388674   2.152821
    13  H    3.292840   2.049161   2.607178   3.983648   4.749480
    14  H    2.607189   2.049163   3.292833   4.460568   4.749482
                    6          7          8          9         10
     6  C    0.000000
     7  H    2.150560   0.000000
     8  N    3.704332   2.663510   0.000000
     9  H    3.865997   4.297175   2.663514   0.000000
    10  H    3.388674   4.950617   4.571917   2.463462   0.000000
    11  H    2.157651   4.298553   5.296692   4.298552   2.488000
    12  H    1.084656   2.463462   4.571915   4.950617   4.291182
    13  H    4.460572   3.620779   1.009049   2.429966   4.684985
    14  H    3.983655   2.429986   1.009049   3.620768   5.398544
                   11         12         13         14
    11  H    0.000000
    12  H    2.488000   0.000000
    13  H    5.817385   5.398550   0.000000
    14  H    5.817386   4.684996   1.676734   0.000000
 Stoichiometry    C6H7N
 Framework group  C1[X(C6H7N)]
 Deg. of freedom    36
 Full point group                 C1      NOp   1
 Largest Abelian subgroup         C1      NOp   1
 Largest concise Abelian subgroup C1      NOp   1
                         Standard orientation:                         
 ---------------------------------------------------------------------
 Center     Atomic     Atomic              Coordinates (Angstroms)
 Number     Number      Type              X           Y           Z
 ---------------------------------------------------------------------
    1          6             0       -0.220566   -1.206323   -0.004563
    2          6             0       -0.937344    0.000000   -0.007425
    3          6             0       -0.220567    1.206322   -0.004560
    4          6             0        1.170630    1.200908    0.003279
    5          6             0        1.879867    0.000001    0.007413
    6          6             0        1.170631   -1.200908    0.003279
    7          1             0       -0.759794   -2.148588   -0.013187
    8          7             0       -2.332844   -0.000003   -0.071363
    9          1             0       -0.759795    2.148587   -0.013178
   10          1             0        1.703585    2.145592    0.006687
   11          1             0        2.963160    0.000001    0.014008
[...]
                           !   Optimized Parameters   !
                           ! (Angstroms and Degrees)  !
 --------------------------                            --------------------------
 ! Name  Definition              Value          Derivative Info.                !
 --------------------------------------------------------------------------------
 ! R1    R(1,2)                  1.4028         -DE/DX =    0.0001              !
 ! R2    R(1,6)                  1.3913         -DE/DX =    0.0                 !
 ! R3    R(1,7)                  1.0856         -DE/DX =    0.0                 !
 ! R4    R(2,3)                  1.4028         -DE/DX =    0.0001              !
 ! R5    R(2,8)                  1.398          -DE/DX =    0.0                 !
 ! R6    R(3,4)                  1.3913         -DE/DX =    0.0                 !
 ! R7    R(3,9)                  1.0856         -DE/DX =    0.0                 !
 ! R8    R(4,5)                  1.3946         -DE/DX =    0.0                 !
 ! R9    R(4,10)                 1.0846         -DE/DX =    0.0                 !
 ! R10   R(5,6)                  1.3946         -DE/DX =    0.0                 !
 ! R11   R(5,11)                 1.0833         -DE/DX =    0.0                 !
 ! R12   R(6,12)                 1.0846         -DE/DX =    0.0                 !
 ! R13   R(8,13)                 1.0092         -DE/DX =    0.0001              !
 ! R14   R(8,14)                 1.0092         -DE/DX =    0.0001              !
 ! A1    A(2,1,6)              120.47           -DE/DX =    0.0                 !
 ! A2    A(2,1,7)              119.521          -DE/DX =    0.0                 !
 ! A3    A(6,1,7)              120.0084         -DE/DX =    0.0                 !
 ! A4    A(1,2,3)              118.6133         -DE/DX =   -0.0001              !
 ! A5    A(1,2,8)              120.6626         -DE/DX =    0.0                 !
 ! A6    A(3,2,8)              120.6626         -DE/DX =    0.0                 !
 ! A7    A(2,3,4)              120.47           -DE/DX =    0.0                 !
 ! A8    A(2,3,9)              119.521          -DE/DX =    0.0                 !
 ! A9    A(4,3,9)              120.0084         -DE/DX =    0.0                 !
 ! A10   A(3,4,5)              120.78           -DE/DX =    0.0                 !
 ! A11   A(3,4,10)             119.223          -DE/DX =    0.0                 !
 ! A12   A(5,4,10)             119.997          -DE/DX =    0.0                 !
 ! A13   A(4,5,6)              118.8866         -DE/DX =    0.0                 !
 ! A14   A(4,5,11)             120.5567         -DE/DX =    0.0                 !
 ! A15   A(6,5,11)             120.5567         -DE/DX =    0.0                 !
 ! A16   A(1,6,5)              120.78           -DE/DX =    0.0                 !
 ! A17   A(1,6,12)             119.223          -DE/DX =    0.0                 !
 ! A18   A(5,6,12)             119.997          -DE/DX =    0.0                 !
 ! A19   A(2,8,13)             115.6871         -DE/DX =    0.0                 !
 ! A20   A(2,8,14)             115.6871         -DE/DX =    0.0                 !
 ! A21   A(13,8,14)            112.2204         -DE/DX =    0.0                 !
 ! D1    D(6,1,2,3)              0.1305         -DE/DX =    0.0                 !
 ! D2    D(6,1,2,8)            177.2971         -DE/DX =    0.0                 !
 ! D3    D(7,1,2,3)           -179.5805         -DE/DX =    0.0                 !
 ! D4    D(7,1,2,8)             -2.4138         -DE/DX =    0.0                 !
 ! D5    D(2,1,6,5)             -0.06           -DE/DX =    0.0                 !
 ! D6    D(2,1,6,12)           179.9183         -DE/DX =    0.0                 !
 ! D7    D(7,1,6,5)            179.6496         -DE/DX =    0.0                 !
 ! D8    D(7,1,6,12)            -0.3721         -DE/DX =    0.0                 !
 ! D9    D(1,2,3,4)             -0.1304         -DE/DX =    0.0                 !
 ! D10   D(1,2,3,9)            179.5806         -DE/DX =    0.0                 !
 ! D11   D(8,2,3,4)           -177.2971         -DE/DX =    0.0                 !
 ! D12   D(8,2,3,9)              2.4139         -DE/DX =    0.0                 !
 ! D13   D(1,2,8,13)           158.5406         -DE/DX =    0.0                 !
 ! D14   D(1,2,8,14)            24.3527         -DE/DX =    0.0                 !
 ! D15   D(3,2,8,13)           -24.351          -DE/DX =    0.0                 !
 ! D16   D(3,2,8,14)          -158.5389         -DE/DX =    0.0                 !
 ! D17   D(2,3,4,5)              0.0599         -DE/DX =    0.0                 !
 ! D18   D(2,3,4,10)          -179.9184         -DE/DX =    0.0                 !
 ! D19   D(9,3,4,5)           -179.6498         -DE/DX =    0.0                 !
 ! D20   D(9,3,4,10)             0.372          -DE/DX =    0.0                 !
 ! D21   D(3,4,5,6)              0.0131         -DE/DX =    0.0                 !
 ! D22   D(3,4,5,11)          -179.9628         -DE/DX =    0.0                 !
 ! D23   D(10,4,5,6)           179.9912         -DE/DX =    0.0                 !
 ! D24   D(10,4,5,11)            0.0153         -DE/DX =    0.0                 !
 ! D25   D(4,5,6,1)             -0.0131         -DE/DX =    0.0                 !
 ! D26   D(4,5,6,12)          -179.9912         -DE/DX =    0.0                 !
 ! D27   D(11,5,6,1)           179.9629         -DE/DX =    0.0                 !
 ! D28   D(11,5,6,12)           -0.0153         -DE/DX =    0.0                 !
 --------------------------------------------------------------------------------
 GradGradGradGradGradGradGradGradGradGradGradGradGradGradGradGradGradGrad

 Leave Link  103 at Tue Aug 22 10:12:32 2006, MaxMem=    6291456 cpu:       0.2
 (Enter /usr/local/Gaussian/g03/l9999.exe)
 1\1\GINC-PUBLIX\Freq\RB3LYP\6-311+G(d,p)\C6H7N1\NOBODY\22-Aug-2006\0\\
 #P GEOM=ALLCHECK GUESS=READ SCRF=CHECK GENCHK RB3LYP/6-311+G(D,P) FREQ
 \\aniline basis2\\0,1\C,-0.8071662174,0.0037780803,-0.9232352407\C,-0.
 804679417,0.0034153968,0.4795885118\C,0.428010891,0.0037834936,1.14921
 13747\C,1.6203341337,0.0017641957,0.4322758283\C,1.6145347642,0.000592
 5046,-0.9622618926\C,0.3907082465,0.001757651,-1.6308562736\H,-1.75272
 95333,0.010416656,-1.4564660494\N,-2.0045162896,0.0621451176,1.1946894
 84\H,0.4471415554,0.0104245174,2.2345957195\H,2.5619136028,0.000743640
 8,0.9706258617\H,2.5450967981,-0.001584849,-1.5168765284\H,0.365179763
 4,0.0007323274,-2.7151721437\H,-1.9638226776,-0.2731335442,2.145694821
 7\H,-2.8216198884,-0.2731625036,0.7064380833\\Version=Sun64-SVR4-Unix-
 G03RevB.04\State=1-A\HF=-287.6876275\RMSD=4.727e-09\RMSF=5.207e-05\Dip
 ole=-0.4284889,-0.3792912,0.2553859\DipoleDeriv=-0.1247212,-0.0071125,
 0.041106,-0.0183463,-0.1754431,0.0008701,0.449354,-0.016386,-0.2020617
 ,1.141572,-0.0458126,-0.6905497,-0.0438167,0.0423329,0.0261128,-0.6905
 499,0.0273028,0.3944949,-0.3898028,0.0110299,0.3059649,-0.009498,-0.17
 54429,0.0157264,-0.1022837,0.0140515,0.0630185,0.1505639,-0.0032635,-0
 .1078958,-0.0040066,-0.1289761,0.0023748,0.0109565,-0.0013564,0.222459
 ,-0.142015,0.0034152,-0.0742121,0.0045318,-0.1846547,-0.0027007,-0.074
 2119,-0.0020358,-0.2223019,0.2467509,-0.0003581,0.0629872,-0.0039942,-
 0.1289761,0.0023945,-0.055865,0.0035168,0.1262714,-0.1009191,-0.001089
 ,-0.0702322,0.0002629,0.1431118,-0.0005015,-0.0614417,0.0006459,0.0306
 112,-1.1108855,0.0973123,0.588055,0.3741964,-0.459436,-0.223015,0.5880
 483,-0.0579913,-0.4746865,0.0559396,-0.0010864,0.0234081,0.0005661,0.1
 431118,0.0000074,0.0146174,0.0006497,-0.1262486,-0.0708352,-0.000511,-
 0.0772272,-0.0002915,0.1351118,0.0006121,-0.0834258,0.0006293,0.025862
 4,-0.0673928,0.0001894,0.0769353,0.0006167,0.1527933,-0.0003679,0.0769
 353,-0.0001132,0.0158399,0.0712032,-0.0007968,-0.0065933,-0.0006778,0.
 1351118,-0.0000359,-0.0003948,0.0001489,-0.116176,0.1396197,-0.0008644
 ,-0.0584813,-0.1166723,0.2506794,0.1447928,-0.0464227,0.0575746,0.1621
 074,0.2009225,-0.0510526,-0.013265,-0.1828705,0.250676,0.0337303,-0.02
 53161,-0.026637,0.10081\Polar=97.4069597,-0.0994395,47.9155487,-7.4617
 781,0.0593874,89.3343649\PG=C01 [X(C6H7N1)]\NImag=0\\0.72902900,-0.003
 09594,0.12164326,0.01279282,0.00032211,0.66174752,-0.12848008,-0.00074
 427,0.02011196,0.68477237,0.00073936,-0.06722923,0.00128848,0.00516662
 ,0.16087240,-0.04690157,0.00063314,-0.29908676,-0.00201972,-0.00307706
 ,0.68258711,0.02926716,0.00030159,-0.06470969,-0.24925653,-0.00078237,
 -0.04521911,0.66627063,0.00024786,0.00750457,-0.00020895,-0.00091185,-
 0.06722916,0.00035276,-0.00175476,0.12164319,-0.02806064,-0.00011867,-
 0.02091479,-0.11223277,-0.00126413,-0.17831070,-0.02115442,0.00257139,
 0.72450555,-0.01617519,-0.00035432,0.02278256,-0.06008357,0.00062106,-
 0.02088857,-0.28361091,0.00134933,0.12558234,0.71418388,0.00000130,-0.
 00448797,0.00000285,-0.00054677,0.00231654,0.00002705,0.00055760,-0.05
 696455,-0.00016413,-0.00101392,0.13514198,0.02865094,0.00048411,-0.048
 89855,0.02711087,0.00045749,0.06976378,0.06465037,-0.00115166,-0.18294
 887,0.03056681,0.00056421,0.67733071,-0.05854922,-0.00044339,0.0260714
 8,-0.01425683,-0.00070786,-0.03577630,0.03017288,0.00034629,0.02768839
 ,-0.12547800,0.00002577,0.03067191,0.71529067,0.00006973,0.00857400,0.
 00009613,0.00021875,-0.00553354,-0.00013058,-0.00005104,0.00857401,-0.
 00010714,0.00016480,-0.06200018,-0.00031429,-0.00092789,0.12401640,-0.
 02030379,-0.00063342,0.05925307,-0.03577630,0.00042177,-0.05296164,0.0
 7406369,0.00069146,-0.02946907,-0.03216108,-0.00032475,-0.32770529,-0.
 04138925,0.00055469,0.67051415,-0.28534423,0.00165483,0.06371315,0.037
 76669,-0.00010660,0.08004079,-0.06301493,-0.00059454,0.00331409,0.0292
 5859,0.00002609,-0.07777429,-0.28130416,0.00035390,-0.05361866,0.66008
 981,0.00040974,-0.05696453,-0.00041275,-0.00028374,0.00231655,0.000468
 15,-0.00000200,-0.00448799,-0.00000250,-0.00005994,0.00724922,-0.00006
 232,0.00029670,-0.06200021,0.00013114,-0.00097738,0.13514201,0.1246451
 3,-0.00063909,-0.18121607,0.03204136,-0.00076403,-0.02808649,-0.002554
 33,0.00008125,-0.00205883,-0.02952767,0.00008215,-0.02878394,-0.116451
 65,0.00000375,-0.17187860,0.00130545,0.00062609,0.73142474,-0.26219781
 ,0.00142719,-0.11712909,-0.00013586,-0.00003524,0.00237286,0.00182453,
 0.00005693,0.00034387,0.00020711,-0.00001641,0.00064071,-0.00244299,0.
 00008323,0.00439112,-0.01954845,0.00012179,-0.01599201,0.28000681,0.00
 192620,-0.03240243,0.00116916,-0.00000884,0.00391250,-0.00029441,0.000
 03239,0.00548784,-0.00000340,-0.00002787,-0.00075465,0.00005245,-0.000
 01912,0.00700649,0.00000487,-0.00012319,0.00208642,0.00000263,-0.00163
 942,0.02248551,-0.11679420,0.00106376,-0.12603346,-0.02937104,0.000119
 18,-0.01015446,0.00133404,-0.00003241,-0.00566052,0.00100174,-0.000008
 87,-0.00093830,0.00322798,0.00003069,-0.00072449,0.01522580,-0.0001143
 1,0.01162361,0.12619149,-0.00126502,0.12990498,-0.00211729,0.00041035,
 0.01516156,-0.24506584,0.01631167,0.07401468,-0.05378350,0.00183295,0.
 02031470,0.00474162,0.00002167,-0.00807538,-0.00399628,-0.00021535,0.0
 0651061,-0.00035849,-0.00091033,-0.00515317,0.00190841,0.00074161,-0.0
 0087185,0.66597662,-0.00038765,0.00734685,-0.00418682,-0.02217437,-0.0
 3872582,0.01321457,0.00349793,0.00734700,0.00233317,-0.00220822,0.0049
 4299,0.00009698,0.00214247,-0.00129994,-0.00127699,-0.00113581,0.00494
 289,0.00189601,0.00001868,-0.00287562,-0.00039136,0.13307376,0.1324280
 4,0.04826244,-0.00186225,-0.03459345,0.07401573,-0.00972293,-0.1649922
 4,-0.01278626,0.00052515,0.01707265,-0.00239425,0.00104674,-0.00751427
 ,0.00651059,0.00012836,0.00304738,-0.01083424,-0.00051720,-0.00241412,
 0.00059427,0.00048947,0.00193065,0.07086599,-0.07929959,0.74264914,-0.
 00466832,0.00005555,-0.00217813,0.00341155,-0.00012166,-0.02745209,-0.
 05896450,-0.00025671,-0.00685983,0.00488794,0.00015858,0.02844410,-0.0
 0430194,0.00001258,0.00222242,-0.00136635,0.,0.00015061,0.00008300,0.0
 0001681,-0.00147447,0.00204179,0.00035312,-0.00079977,0.05826604,0.000
 01836,0.00548784,-0.00002691,0.00025484,0.00391249,0.00014769,-0.00011
 210,-0.03240240,-0.00225108,-0.00006089,0.00208641,0.00010711,-0.00001
 339,0.00700647,0.00001451,-0.00005943,-0.00075465,-0.00000044,0.000008
 90,-0.00001430,-0.00001431,-0.00007764,-0.00287567,-0.00088511,0.00033
 275,0.02248551,-0.00316830,-0.00003467,0.00083234,0.00429180,-0.000025
 75,-0.01370195,-0.00719472,-0.00176206,-0.32926660,-0.00277371,-0.0000
 5281,-0.01281279,0.00338557,-0.00008781,0.00113446,-0.00021041,0.00001
 866,0.00063515,0.00004858,-0.00000103,-0.00068831,0.00066641,0.0001698
 0,0.00179729,0.00624592,0.00204458,0.35164564,0.00021929,-0.00000618,0
 .00082957,-0.00224515,0.00008943,0.00390145,-0.01898197,0.00006050,-0.
 01550706,-0.26595572,0.00018864,-0.11811767,0.00324196,0.00002752,0.00
 189697,0.00183358,0.00000898,0.00021690,-0.00005790,-0.00000234,-0.000
 07504,-0.00113291,-0.00012527,-0.00091144,0.00096575,-0.00000292,0.000
 28713,0.28168897,-0.00001040,-0.00094291,-0.00005179,-0.00003931,0.007
 50697,0.00005641,-0.00001589,0.00335035,0.00002345,0.00022299,-0.03694
 600,0.00014503,-0.00002681,0.00366041,-0.00006368,0.00002635,0.0068397
 8,-0.00001707,-0.00000260,-0.00090295,0.00000530,0.00011083,0.00016411
 ,-0.00006386,-0.00001510,-0.00424340,0.00004662,-0.00027013,0.02543844
 ,0.00091488,0.00001746,-0.00058700,0.00359023,-0.00011689,-0.00100354,
 0.01523577,-0.00004329,0.01105283,-0.11857032,0.00013501,-0.12685756,-
 0.02900279,0.00003434,-0.00965383,0.00102141,-0.00001681,-0.00595068,-
 0.00008887,-0.00000056,0.00006616,0.00041597,0.00017002,0.00062119,-0.
 00043502,0.00000884,0.00089547,0.12762114,-0.00011672,0.13118242,-0.00
 267902,0.00000259,-0.00400653,0.00002658,0.00003282,-0.00091914,0.0017
 0549,0.00000110,-0.00056264,0.00387392,0.00000358,-0.00265855,-0.26371
 985,0.00049714,0.12253087,-0.01864076,0.00005034,0.01658475,-0.0010526
 9,-0.00000996,0.00078041,0.00013276,-0.00003911,0.00017661,0.00004389,
 0.00000133,-0.00018494,0.00070227,-0.00000878,0.00048099,0.27864354,-0
 .00000614,0.00636696,0.00000506,-0.00000008,-0.00050828,0.00000004,-0.
 00000742,0.00636697,0.00000295,0.00003855,0.00157352,-0.00000010,0.000
 53227,-0.03173169,-0.00031731,0.00001828,0.00157352,-0.00003376,-0.000
 00408,0.00052257,0.00001010,0.00013550,-0.00059135,-0.00008074,-0.0000
 1082,0.00052257,-0.00000122,-0.00001605,-0.00390606,-0.00000067,-0.000
 55463,0.02388817,-0.00293434,0.00000013,-0.00076610,-0.00091913,-0.000
 01956,-0.00096779,-0.00163483,-0.00000240,-0.00515060,0.02876355,-0.00
 005528,-0.01110770,0.12253086,-0.00029638,-0.13115937,-0.01483735,0.00
 002315,0.01140698,-0.00077811,-0.00000689,0.00036599,0.00017661,0.0000
 2331,0.00032382,0.00137358,0.00001204,-0.00073059,-0.00042213,0.000007
 03,0.00101590,-0.13186726,0.00033067,0.13598245,0.00436748,0.00006697,
 0.02786613,-0.00441972,0.00014536,0.00241394,-0.00113450,-0.00001829,0
 .00018258,-0.00470679,0.00001902,-0.00251645,0.00460857,-0.00001724,-0
 .02826355,-0.05929575,-0.00002908,-0.00678231,0.00097326,-0.00000916,-
 0.00043095,0.00043147,-0.00020912,0.00126219,0.00010667,-0.00000062,0.
 00000014,0.00000615,-0.00000268,-0.00144060,0.00092027,-0.00000703,0.0
 0059892,0.05843851,-0.00002820,0.00335035,0.00000283,-0.00006832,0.007
 50699,0.00000771,0.00004061,-0.00094291,0.00003380,0.00002750,0.006839
 77,-0.00001507,0.00004322,0.00366040,0.00005371,-0.00002151,-0.0369460
 0,-0.00026643,-0.00004819,-0.00424341,-0.00000888,0.00010891,0.0001641
 2,-0.00006708,-0.00000589,-0.00090295,-0.00000023,0.00000094,0.0001184
 5,0.00000355,-0.00001035,-0.00390605,0.00000440,-0.00002574,0.02543844
 ,-0.00287671,-0.00003268,-0.01229662,0.00272517,-0.00002307,0.00117103
 ,0.00009727,-0.00000287,0.00076679,-0.00332097,0.00000006,0.00058969,0
 .00263620,-0.00004060,-0.01102043,-0.00632966,-0.00023146,-0.33351756,
 0.00029120,-0.00000161,0.00088795,-0.00006523,0.00002928,-0.00094319,0
 .00001398,0.00000233,-0.00009841,0.00015947,-0.00000252,-0.00068685,-0
 .00030421,0.00001445,0.00079789,0.00685887,0.00029458,0.35443291,-0.00
 561431,-0.00018895,0.00124667,0.00502723,-0.01099341,0.03304430,0.0015
 5173,0.00040809,0.00184168,-0.00027356,0.00012647,-0.00011495,-0.00010
 505,-0.00012553,-0.00025680,0.00089936,0.00032743,0.00126856,0.0001803
 8,-0.00002237,0.00020742,-0.06804452,-0.00352470,-0.02615249,-0.000709
 33,-0.00012887,-0.00134440,0.00004085,0.00000579,-0.00001412,-0.000002
 93,0.00004011,-0.00011879,-0.00036188,0.00003017,0.00018886,0.06549564
 ,0.00038936,0.00192437,0.00110163,0.00679194,-0.00455929,-0.01036139,-
 0.00092087,-0.00017120,-0.00018703,-0.00003721,-0.00059805,0.00026591,
 -0.00098250,0.00003369,-0.00022932,0.00119061,0.00160101,-0.00087724,0
 .00005320,-0.00062463,0.00007352,-0.00643912,-0.05547981,0.16147987,-0
 .00047985,0.00031669,-0.00023229,-0.00002774,0.00001080,-0.00001155,0.
 00000155,-0.00008543,-0.00003594,0.00009066,-0.00014799,-0.00003578,0.
 00056016,0.05660189,0.00317934,0.00076965,0.00139271,0.00074527,0.0058
 3023,-0.01817212,-0.00330478,-0.00081836,0.00255807,0.00062774,-0.0011
 2244,-0.00090271,-0.00035756,0.00003510,0.00078447,-0.00052174,-0.0003
 3264,-0.00098283,-0.00006174,0.00017016,0.00028947,-0.02194348,0.12232
 865,-0.39484130,0.00052860,0.00090203,0.00009226,-0.00008799,0.0000521
 9,0.00001844,0.00004167,0.00020185,0.00001929,0.00025148,-0.00001296,-
 0.00007625,0.01853139,-0.13551448,0.42194381,0.00294253,0.00091397,-0.
 00255247,-0.02706086,-0.01035918,-0.01661153,-0.00204558,-0.00076690,0
 .00510971,-0.00086932,0.00044838,-0.00147842,0.00084023,-0.00009060,0.
 00015375,-0.00097492,0.00104748,0.00024838,0.00025220,-0.00085473,0.00
 104868,-0.30073383,-0.10928172,-0.14780937,0.00020381,-0.00016033,-0.0
 0004907,-0.00032518,0.00002576,0.00027133,0.00004653,-0.00015847,0.000
 06843,0.00006624,-0.00004315,-0.00007425,0.00191638,-0.00019019,0.0023
 7180,0.32574175,-0.00027359,-0.00017113,0.00089896,0.01234541,-0.00455
 911,-0.00104406,-0.00078365,0.00192428,-0.00086667,0.00133814,0.001600
 98,-0.00062986,-0.00026577,0.00003369,0.00097332,-0.00025161,-0.000598
 01,-0.00009382,-0.00002400,0.00031666,0.00053261,-0.14510480,-0.055487
 79,-0.07117084,-0.00003936,-0.00062461,-0.00008178,0.00007461,-0.00014
 798,-0.00006272,0.00003236,-0.00008543,0.00001574,-0.00000303,0.000010
 80,0.00002989,0.01348560,0.00117794,0.00751102,0.11946969,0.05660973,0
 .00259399,0.00003043,0.00116716,0.01568658,0.00689628,0.01391576,0.003
 17700,-0.00020001,-0.00217591,0.00031182,-0.00012978,0.00078580,0.0002
 5456,0.00009373,-0.00016080,-0.00049435,0.00042279,-0.00020137,-0.0008
 2427,-0.00031581,-0.00086929,-0.15201742,-0.05510703,-0.16214356,0.000
 22009,-0.00006128,0.00026604,0.00020871,-0.00002037,-0.00011295,-0.000
 09203,-0.00013132,-0.00003018,-0.00000038,-0.00002992,-0.00000695,-0.0
 2832731,-0.01543592,-0.01212331,0.15930303,0.06398821,0.16168954\\-0.0
 0013144,-0.00000300,0.00007140,0.00016181,0.00002148,-0.00009633,-0.00
 012537,-0.00000309,0.00008161,0.00001622,-0.00000392,-0.00003235,-0.00
 000843,0.00000621,0.00000512,0.00003606,-0.00000393,0.00000110,0.00003
 357,0.00000263,0.00000451,-0.00003638,-0.00012534,0.00002155,0.0000120
 0,0.00000261,-0.00003166,-0.00001614,0.00000373,-0.00001197,-0.0000144
 6,-0.00000221,0.00000861,0.00000285,0.00000372,0.00001990,0.00002307,0
 .00005063,-0.00004056,0.00004665,0.00005049,-0.00000093\\\@


 OLD HORSE! OLD HORSE! WHAT BROUGHT YOU HERE?
 FROM SACARAP' TO PORTLAND PIER
 I'VE CARTED STONE THIS MANY A YEAR;
 TILL, KILLED BY BLOWS AND SORE ABUSE,
 THEY SALTED ME DOWN FOR SAILORS' USE.
 THE SAILORS THEY DO ME DESPISE;
 THEY TURN ME OVER AND DAMN MY EYES;
 CUT OFF MY MEAT, AND SCRAPE MY BONES,
 AND PITCH ME OVER TO DAVY JONES.

    SAILORS' COMPLAINT ABOUT THE BEEF
    SERVED ON SHIPBOARD, CIRCA 1835.
 Job cpu time:  0 days  2 hours 59 minutes 57.8 seconds.
 File lengths (MBytes):  RWF=     62 Int=      0 D2E=      0 Chk=     12 Scr=      1
 Normal termination of Gaussian 03 at Tue Aug 22 10:12:34 2006.
