<?xml version="1.0" encoding="UTF-8"?>
<module cmlx:templateRef="gaussian.log" xmlns="http://www.xml-cml.org/schema" xmlns:cmlx="http://www.xml-cml.org/schema/cmlx"> Entering Gaussian System, Link 0=/usr/local/Gaussian/g03/g03 Initial command: /usr/local/Gaussian/g03/l1.exe /export/scratch//webmo/3308/Gau-4872.inp -scrdir=/export/scratch//webmo/3308/ Entering Link 1 = /usr/local/Gaussian/g03/l1.exe PID=      4874.  <module cmlx:lineCount="60" cmlx:templateRef="l1.legal"><scalar dataType="xsd:string" dictRef="g:l1.legal">Copyright (c) 1988,1990,1992,1993,1995,1998,2003, Gaussian, Inc.</scalar></module>  <module cmlx:lineCount="20" cmlx:templateRef="l1.citation"><list cmlx:templateRef="citation"><scalar dataType="xsd:string" dictRef="g:l1.citation">Cite this work as:</scalar></list></module> <module cmlx:lineCount="25" cmlx:templateRef="l1.end"><scalar dataType="xsd:string" dictRef="cc:run.date">2-Sep-2006</scalar><scalar dataType="xsd:string" dictRef="cc:program">Gaussian 03</scalar><scalar dataType="xsd:string" dictRef="cc:version">Sun64-SVR4-Unix-G03RevB.04</scalar><scalar dataType="xsd:string" dictRef="cc:program.date">2-Jun-2003</scalar><list cmlx:templateRef="control"><scalar dataType="xsd:string" dictRef="g:control">1/14=-1,18=20,26=3,38=1/1,3</scalar><scalar dataType="xsd:string" dictRef="g:control">2/9=110,17=6,18=5,40=1/2</scalar><scalar dataType="xsd:string" dictRef="g:control">3/5=4,6=6,7=111,11=2,16=1,25=1,30=1,74=-5/1,2,3</scalar><scalar dataType="xsd:string" dictRef="g:control">4//1</scalar><scalar dataType="xsd:string" dictRef="g:control">5/5=2,38=5/2</scalar><scalar dataType="xsd:string" dictRef="g:control">6/7=2,8=2,9=2,10=2,28=1/1</scalar><scalar dataType="xsd:string" dictRef="g:control">7//1,2,3,16</scalar><scalar dataType="xsd:string" dictRef="g:control">1/14=-1,18=20/3(1)</scalar><scalar dataType="xsd:string" dictRef="g:control">99//99</scalar><scalar dataType="xsd:string" dictRef="g:control">2/9=110/2</scalar><scalar dataType="xsd:string" dictRef="g:control">3/5=4,6=6,7=111,11=2,16=1,25=1,30=1,74=-5/1,2,3</scalar><scalar dataType="xsd:string" dictRef="g:control">4/5=5,16=3/1</scalar><scalar dataType="xsd:string" dictRef="g:control">5/5=2,38=5/2</scalar><scalar dataType="xsd:string" dictRef="g:control">7//1,2,3,16</scalar><scalar dataType="xsd:string" dictRef="g:control">1/14=-1,18=20/3(-5)</scalar><scalar dataType="xsd:string" dictRef="g:control">2/9=110/2</scalar><scalar dataType="xsd:string" dictRef="g:control">6/7=2,8=2,9=2,10=2,19=2,28=1/1</scalar><scalar dataType="xsd:string" dictRef="g:control">99/9=1/99</scalar></list></module><module cmlx:lineCount="3" cmlx:templateRef="l101.title"><scalar dataType="xsd:string" dictRef="cc:title" cmlx:templateRef="title">bromobz\cl complex basis</scalar></module><module cmlx:lineCount="50" cmlx:templateRef="l101"><list cmlx:templateRef="rest"><scalar dataType="xsd:string" dictRef="x:l101"/></list></module>                    Isotopes and Nuclear Properties:<module cmlx:lineCount="8" cmlx:templateRef="l101.isotope">  Atom         1           2           3           4           5           6           7           8           9          10 IAtWgt=          12          12          12          12          12          12           1           1           1          79 AtmWgt=  12.0000000  12.0000000  12.0000000  12.0000000  12.0000000  12.0000000   1.0078250   1.0078250   1.0078250  78.9183361 IAtSpn=           0           0           0           0           0           0           1           1           1           3 AtZEff=   0.0000000   0.0000000   0.0000000   0.0000000   0.0000000   0.0000000   0.0000000   0.0000000   0.0000000   0.0000000 AtQMom=   0.0000000   0.0000000   0.0000000   0.0000000   0.0000000   0.0000000   0.0000000   0.0000000   0.0000000  29.3000000 AtGFac=   0.0000000   0.0000000   0.0000000   0.0000000   0.0000000   0.0000000   2.7928460   2.7928460   2.7928460   2.1063990</module><module cmlx:lineCount="8" cmlx:templateRef="l101.isotope">  Atom        11          12          13 IAtWgt=           1           1          35 AtmWgt=   1.0078250   1.0078250  34.9688527 IAtSpn=           1           1           3 AtZEff=   0.0000000   0.0000000   0.0000000 AtQMom=   0.0000000   0.0000000  -8.2490000 AtGFac=   2.7928460   2.7928460   0.8218740</module><module cmlx:lineCount="90" cmlx:templateRef="l103"><list cmlx:templateRef="berny"><scalar dataType="xsd:string" dictRef="g:optimization">Initialization pass.</scalar></list><module cmlx:lineCount="83" cmlx:templateRef="l103.init"><list cmlx:templateRef="length"><array dataType="xsd:string" size="16" dictRef="g:symbol">R1 R2 R3 R4 R5 R6 R7 R8 R9 R10 R11 R12 R13 R14 R15 R16</array><array dataType="xsd:integer" size="16" dictRef="g:atom1">1 1 1 1 2 2 2 3 3 4 4 5 5 6 6 7</array><array dataType="xsd:integer" size="16" dictRef="g:atom2">2 6 7 13 3 8 13 4 9 5 10 6 11 12 13 13</array><array dataType="xsd:double" size="16" dictRef="cc:distance">1.4081 1.4081 1.0807 2.5846 1.3809 1.0825 3.1064 1.3965 1.0817 1.3965 1.8979 1.3809 1.0817 1.0825 3.1062 2.6636</array><array delimiter="|" dataType="xsd:string" size="16" dictRef="g:deriv">|estimate D2E/DX2|estimate D2E/DX2|estimate D2E/DX2|estimate D2E/DX2|estimate D2E/DX2|estimate D2E/DX2|estimate D2E/DX2|estimate D2E/DX2|estimate D2E/DX2|estimate D2E/DX2|estimate D2E/DX2|estimate D2E/DX2|estimate D2E/DX2|estimate D2E/DX2|estimate D2E/DX2|estimate D2E/DX2|</array></list><list cmlx:templateRef="angle"><array dataType="xsd:string" size="25" dictRef="g:symbol">A1 A2 A3 A4 A5 A6 A7 A8 A9 A10 A11 A12 A13 A14 A15 A16 A17 A18 A19 A20 A21 A22 A23 A24 A25</array><array dataType="xsd:integer" size="25" dictRef="g:atom1">2 2 6 1 1 3 3 8 2 2 4 3 3 5 4 4 6 1 1 5 5 12 2 2 6</array><array dataType="xsd:integer" size="25" dictRef="g:atom2">1 1 1 2 2 2 2 2 3 3 3 4 4 4 5 5 5 6 6 6 6 6 13 13 13</array><array dataType="xsd:integer" size="25" dictRef="g:atom3">6 7 7 3 8 8 13 13 4 9 9 5 10 10 6 11 11 5 12 12 13 13 6 7 7</array><array dataType="xsd:double" size="25" dictRef="cc:angle">119.4598 119.9579 119.9575 120.4096 119.571 120.0144 115.8596 96.808 118.9972 120.8448 120.158 121.7125 119.1432 119.1443 118.9961 120.1587 120.8451 120.4099 119.5706 120.0146 115.8614 96.8016 46.096 43.1463 43.1481</array><array delimiter="|" dataType="xsd:string" size="25" dictRef="g:deriv">|estimate D2E/DX2|estimate D2E/DX2|estimate D2E/DX2|estimate D2E/DX2|estimate D2E/DX2|estimate D2E/DX2|estimate D2E/DX2|estimate D2E/DX2|estimate D2E/DX2|estimate D2E/DX2|estimate D2E/DX2|estimate D2E/DX2|estimate D2E/DX2|estimate D2E/DX2|estimate D2E/DX2|estimate D2E/DX2|estimate D2E/DX2|estimate D2E/DX2|estimate D2E/DX2|estimate D2E/DX2|estimate D2E/DX2|estimate D2E/DX2|estimate D2E/DX2|estimate D2E/DX2|estimate D2E/DX2|</array></list><list cmlx:templateRef="dihed"><array dataType="xsd:string" size="35" dictRef="g:symbol">D1 D2 D3 D4 D5 D6 D7 D8 D9 D10 D11 D12 D13 D14 D15 D16 D17 D18 D19 D20 D21 D22 D23 D24 D25 D26 D27 D28 D29 D30 D31 D32 D33 D34 D35</array><array dataType="xsd:integer" size="35" dictRef="g:atom1">6 6 7 7 2 2 7 7 1 1 8 8 13 13 3 3 8 8 2 2 9 9 3 3 10 10 4 4 4 11 11 11 5 5 12</array><array dataType="xsd:integer" size="35" dictRef="g:atom2">1 1 1 1 1 1 1 1 2 2 2 2 2 2 2 2 2 2 3 3 3 3 4 4 4 4 5 5 5 5 5 5 6 6 6</array><array dataType="xsd:integer" size="35" dictRef="g:atom3">2 2 2 2 6 6 6 6 3 3 3 3 3 3 13 13 13 13 4 4 4 4 5 5 5 5 6 6 6 6 6 6 13 13 13</array><array dataType="xsd:integer" size="35" dictRef="g:atom4">3 8 3 8 5 12 5 12 4 9 4 9 4 9 6 7 6 7 5 10 5 10 6 11 6 11 1 12 13 1 12 13 2 7 2</array><array dataType="xsd:double" size="35" dictRef="cc:dihed">1.3994 -179.4134 172.3361 -8.4766 -1.399 179.4134 -172.3358 8.4766 -0.6688 179.2835 -179.8525 0.0999 -64.2491 115.7033 78.2782 141.2852 -153.574 -90.567 -0.0754 179.9861 179.9719 0.0335 0.0758 -179.9726 -179.9858 -0.0341 0.6681 179.852 64.2559 -179.2833 -0.0993 -115.6954 -78.2815 -141.2848 153.574</array><array delimiter="|" dataType="xsd:string" size="35" dictRef="g:deriv">|estimate D2E/DX2|estimate D2E/DX2|estimate D2E/DX2|estimate D2E/DX2|estimate D2E/DX2|estimate D2E/DX2|estimate D2E/DX2|estimate D2E/DX2|estimate D2E/DX2|estimate D2E/DX2|estimate D2E/DX2|estimate D2E/DX2|estimate D2E/DX2|estimate D2E/DX2|estimate D2E/DX2|estimate D2E/DX2|estimate D2E/DX2|estimate D2E/DX2|estimate D2E/DX2|estimate D2E/DX2|estimate D2E/DX2|estimate D2E/DX2|estimate D2E/DX2|estimate D2E/DX2|estimate D2E/DX2|estimate D2E/DX2|estimate D2E/DX2|estimate D2E/DX2|estimate D2E/DX2|estimate D2E/DX2|estimate D2E/DX2|estimate D2E/DX2|estimate D2E/DX2|estimate D2E/DX2|estimate D2E/DX2|</array></list> ! D36   D(12,6,13,7)           90.5707         estimate D2E/DX2                !</module> --------------------------------------------------------------------------------<module cmlx:lineCount="2" cmlx:templateRef="l103.trust"><list cmlx:templateRef="length"><list><scalar dataType="xsd:double" dictRef="g:trustrad">0.3</scalar><scalar dataType="xsd:double" dictRef="g:fncerr">1.0E-7</scalar><scalar dataType="xsd:double" dictRef="g:grderr">1.0E-6</scalar></list></list><list cmlx:templateRef="angle"><list><scalar dataType="xsd:integer" dictRef="g:nstep">87</scalar><scalar dataType="xsd:integer" dictRef="g:allowedstep">100</scalar></list></list></module> GradGradGradGradGradGradGradGradGradGradGradGradGradGradGradGradGradGrad</module><module cmlx:lineCount="19" cmlx:templateRef="l202.orient"><molecule id="mol.l202.orient" cmlx:templateRef="atom"><atomArray><atom id="a1" elementType="C" x3="0.0" y3="0.0" z3="0.0"><scalar dataType="xsd:integer" dictRef="cc:serial">1</scalar><scalar dataType="xsd:integer" dictRef="g:atomicType">0</scalar><scalar dataType="xsd:integer" dictRef="compchem:atomicNumber">6</scalar></atom><atom id="a2" elementType="C" x3="0.0" y3="0.0" z3="1.408107"><scalar dataType="xsd:integer" dictRef="cc:serial">2</scalar><scalar dataType="xsd:integer" dictRef="g:atomicType">0</scalar><scalar dataType="xsd:integer" dictRef="compchem:atomicNumber">6</scalar></atom><atom id="a3" elementType="C" x3="1.190918" y3="0.0" z3="2.107083"><scalar dataType="xsd:integer" dictRef="cc:serial">3</scalar><scalar dataType="xsd:integer" dictRef="g:atomicType">0</scalar><scalar dataType="xsd:integer" dictRef="compchem:atomicNumber">6</scalar></atom><atom id="a4" elementType="C" x3="2.392952" y3="-0.014257" z3="1.396441"><scalar dataType="xsd:integer" dictRef="cc:serial">4</scalar><scalar dataType="xsd:integer" dictRef="g:atomicType">0</scalar><scalar dataType="xsd:integer" dictRef="compchem:atomicNumber">6</scalar></atom><atom id="a5" elementType="C" x3="2.42018" y3="-0.030037" z3="3.36E-4"><scalar dataType="xsd:integer" dictRef="cc:serial">5</scalar><scalar dataType="xsd:integer" dictRef="g:atomicType">0</scalar><scalar dataType="xsd:integer" dictRef="compchem:atomicNumber">6</scalar></atom><atom id="a6" elementType="C" x3="1.225677" y3="-0.029941" z3="-0.692526"><scalar dataType="xsd:integer" dictRef="cc:serial">6</scalar><scalar dataType="xsd:integer" dictRef="g:atomicType">0</scalar><scalar dataType="xsd:integer" dictRef="compchem:atomicNumber">6</scalar></atom><atom id="a7" elementType="H" x3="-0.927968" y3="-0.12487" z3="-0.539674"><scalar dataType="xsd:integer" dictRef="cc:serial">7</scalar><scalar dataType="xsd:integer" dictRef="g:atomicType">0</scalar><scalar dataType="xsd:integer" dictRef="compchem:atomicNumber">1</scalar></atom><atom id="a8" elementType="H" x3="-0.941446" y3="0.013355" z3="1.942347"><scalar dataType="xsd:integer" dictRef="cc:serial">8</scalar><scalar dataType="xsd:integer" dictRef="g:atomicType">0</scalar><scalar dataType="xsd:integer" dictRef="compchem:atomicNumber">1</scalar></atom><atom id="a9" elementType="H" x3="1.19917" y3="0.011613" z3="3.188647"><scalar dataType="xsd:integer" dictRef="cc:serial">9</scalar><scalar dataType="xsd:integer" dictRef="g:atomicType">0</scalar><scalar dataType="xsd:integer" dictRef="compchem:atomicNumber">1</scalar></atom><atom id="a10" elementType="Br" x3="4.032195" y3="-0.013913" z3="2.352934"><scalar dataType="xsd:integer" dictRef="cc:serial">10</scalar><scalar dataType="xsd:integer" dictRef="g:atomicType">0</scalar><scalar dataType="xsd:integer" dictRef="compchem:atomicNumber">35</scalar></atom><atom id="a11" elementType="H" x3="3.365823" y3="-0.041319" z3="-0.524653"><scalar dataType="xsd:integer" dictRef="cc:serial">11</scalar><scalar dataType="xsd:integer" dictRef="g:atomicType">0</scalar><scalar dataType="xsd:integer" dictRef="compchem:atomicNumber">1</scalar></atom><atom id="a12" elementType="H" x3="1.227558" y3="-0.039629" z3="-1.775029"><scalar dataType="xsd:integer" dictRef="cc:serial">12</scalar><scalar dataType="xsd:integer" dictRef="g:atomicType">0</scalar><scalar dataType="xsd:integer" dictRef="compchem:atomicNumber">1</scalar></atom><atom id="a13" elementType="Cl" x3="-0.538939" y3="2.503379" z3="-0.350373"><scalar dataType="xsd:integer" dictRef="cc:serial">13</scalar><scalar dataType="xsd:integer" dictRef="g:atomicType">0</scalar><scalar dataType="xsd:integer" dictRef="compchem:atomicNumber">17</scalar></atom></atomArray><formula formalCharge="0" concise="C 6 H 5 Br 1 Cl 1"><atomArray elementType="C H Br Cl" count="6.0 5.0 1.0 1.0"/></formula><bondArray><bond atomRefs2="a1 a2" id="a1_a2" order="2"/><bond atomRefs2="a1 a6" id="a1_a6" order="S"/><bond atomRefs2="a1 a7" id="a1_a7" order="S"/><bond atomRefs2="a2 a3" id="a2_a3" order="S"/><bond atomRefs2="a2 a8" id="a2_a8" order="S"/><bond atomRefs2="a3 a4" id="a3_a4" order="2"/><bond atomRefs2="a3 a9" id="a3_a9" order="S"/><bond atomRefs2="a4 a5" id="a4_a5" order="S"/><bond atomRefs2="a4 a10" id="a4_a10" order="S"/><bond atomRefs2="a5 a6" id="a5_a6" order="2"/><bond atomRefs2="a5 a11" id="a5_a11" order="S"/><bond atomRefs2="a6 a12" id="a6_a12" order="S"/></bondArray><property dictRef="cml:molmass"><scalar dataType="xsd:double" units="unit:dalton" xmlns:unit="http://www.xml-cml.org/unit/si/">192.4609</scalar></property></molecule></module><module cmlx:lineCount="2" cmlx:templateRef="l202.distmat"/>     1  C    0.000000     2  C    1.408107   0.000000     3  C    2.420348   1.380888   0.000000     4  C    2.770644   2.393023   1.396461   0.000000     5  C    2.420367   2.799999   2.439338   1.396459   0.000000     6  C    1.408109   2.432249   2.799984   2.393023   1.380904     7  H    1.080724   2.161149   3.392726   3.845684   3.392742     8  H    2.158520   1.082549   2.138760   3.378904   3.882502     9  H    3.406701   2.146734   1.081658   2.153553   3.414371    10  Br   4.668521   4.141435   2.851928   1.897892   2.851941    11  H    3.406719   3.881499   3.414375   2.153558   1.081657    12  H    2.158518   3.411866   3.882488   3.378907   2.138776    13  Cl   2.584593   3.106382   3.911317   4.240971   3.911212                    6          7          8          9         10     6  C    0.000000     7  H    2.161148   0.000000     8  H    3.411869   2.485903   0.000000     9  H    3.881486   4.294615   2.476995   0.000000    10  Br   4.141452   5.743057   4.990634   2.953828   0.000000    11  H    2.146750   4.294630   4.964036   4.299511   2.953864    12  H    1.082549   2.485892   4.304216   4.964022   4.990664    13  Cl   3.106227   2.663620   3.408635   4.664181   5.877064                   11         12         13    11  H    0.000000    12  H    2.477018   0.000000    13  Cl   4.664014   3.408379   0.000000<module cmlx:lineCount="6" cmlx:templateRef="l202.stoich"><scalar dataType="xsd:string" dictRef="cc:formula" cmlx:templateRef="stoich">C6H5BrCl(2)</scalar><scalar dataType="xsd:string" dictRef="cc:frameworkgroup" cmlx:templateRef="framework">C1[X(C6H5BrCl)]</scalar><scalar dataType="xsd:integer" dictRef="cc:degfreedom" cmlx:templateRef="degfreedom">33</scalar><scalar dataType="xsd:string" dictRef="cc:pointgroup">C1</scalar><scalar dataType="xsd:integer" dictRef="cc:operatorcount">1</scalar><scalar dataType="xsd:string" dictRef="cc:largestabelian">C1</scalar><scalar dataType="xsd:integer" dictRef="cc:operatorcount">1</scalar><scalar dataType="xsd:string" dictRef="cc:largestconciseabelian">C1</scalar><scalar dataType="xsd:integer" dictRef="cc:operatorcount">1</scalar></module><module cmlx:lineCount="19" cmlx:templateRef="l202.orient"><molecule id="a13" cmlx:templateRef="atom"><atomArray><atom id="a1" elementType="C" x3="-1.983224" y3="7.34E-4" z3="1.109819"><scalar dataType="xsd:integer" dictRef="cc:serial">1</scalar><scalar dataType="xsd:integer" dictRef="g:atomicType">0</scalar><scalar dataType="xsd:integer" dictRef="compchem:atomicNumber">6</scalar></atom><atom id="a2" elementType="C" x3="-1.303375" y3="1.216717" z3="0.904986"><scalar dataType="xsd:integer" dictRef="cc:serial">2</scalar><scalar dataType="xsd:integer" dictRef="g:atomicType">0</scalar><scalar dataType="xsd:integer" dictRef="compchem:atomicNumber">6</scalar></atom><atom id="a3" elementType="C" x3="0.010514" y3="1.219969" z3="0.480089"><scalar dataType="xsd:integer" dictRef="cc:serial">3</scalar><scalar dataType="xsd:integer" dictRef="g:atomicType">0</scalar><scalar dataType="xsd:integer" dictRef="compchem:atomicNumber">6</scalar></atom><atom id="a4" elementType="C" x3="0.657326" y3="1.6E-4" z3="0.270792"><scalar dataType="xsd:integer" dictRef="cc:serial">4</scalar><scalar dataType="xsd:integer" dictRef="g:atomicType">0</scalar><scalar dataType="xsd:integer" dictRef="compchem:atomicNumber">6</scalar></atom><atom id="a5" elementType="C" x3="0.010451" y3="-1.219369" z3="0.481502"><scalar dataType="xsd:integer" dictRef="cc:serial">5</scalar><scalar dataType="xsd:integer" dictRef="g:atomicType">0</scalar><scalar dataType="xsd:integer" dictRef="compchem:atomicNumber">6</scalar></atom><atom id="a6" elementType="C" x3="-1.303455" y3="-1.215532" z3="0.906392"><scalar dataType="xsd:integer" dictRef="cc:serial">6</scalar><scalar dataType="xsd:integer" dictRef="g:atomicType">0</scalar><scalar dataType="xsd:integer" dictRef="compchem:atomicNumber">6</scalar></atom><atom id="a7" elementType="H" x3="-2.966188" y3="0.001023" z3="1.55898"><scalar dataType="xsd:integer" dictRef="cc:serial">7</scalar><scalar dataType="xsd:integer" dictRef="g:atomicType">0</scalar><scalar dataType="xsd:integer" dictRef="compchem:atomicNumber">1</scalar></atom><atom id="a8" elementType="H" x3="-1.821426" y3="2.152815" z3="1.070078"><scalar dataType="xsd:integer" dictRef="cc:serial">8</scalar><scalar dataType="xsd:integer" dictRef="g:atomicType">0</scalar><scalar dataType="xsd:integer" dictRef="compchem:atomicNumber">1</scalar></atom><atom id="a9" elementType="H" x3="0.535897" y3="2.149939" z3="0.30947"><scalar dataType="xsd:integer" dictRef="cc:serial">9</scalar><scalar dataType="xsd:integer" dictRef="g:atomicType">0</scalar><scalar dataType="xsd:integer" dictRef="compchem:atomicNumber">1</scalar></atom><atom id="a10" elementType="Br" x3="2.463016" y3="-2.08E-4" z3="-0.31357"><scalar dataType="xsd:integer" dictRef="cc:serial">10</scalar><scalar dataType="xsd:integer" dictRef="g:atomicType">0</scalar><scalar dataType="xsd:integer" dictRef="compchem:atomicNumber">35</scalar></atom><atom id="a11" elementType="H" x3="0.535771" y3="-2.149571" z3="0.311953"><scalar dataType="xsd:integer" dictRef="cc:serial">11</scalar><scalar dataType="xsd:integer" dictRef="g:atomicType">0</scalar><scalar dataType="xsd:integer" dictRef="compchem:atomicNumber">1</scalar></atom><atom id="a12" elementType="H" x3="-1.821576" y3="-2.1514" z3="1.072566"><scalar dataType="xsd:integer" dictRef="cc:serial">12</scalar><scalar dataType="xsd:integer" dictRef="g:atomicType">0</scalar><scalar dataType="xsd:integer" dictRef="compchem:atomicNumber">1</scalar></atom><atom id="a13" elementType="Cl" x3="-3.364556" y3="-6.82E-4" z3="-1.074681"><scalar dataType="xsd:integer" dictRef="cc:serial">13</scalar><scalar dataType="xsd:integer" dictRef="g:atomicType">0</scalar><scalar dataType="xsd:integer" dictRef="compchem:atomicNumber">17</scalar></atom></atomArray><formula formalCharge="0" concise="C 6 H 5 Br 1 Cl 1"><atomArray elementType="C H Br Cl" count="6.0 5.0 1.0 1.0"/></formula><bondArray><bond atomRefs2="a1 a2" id="a1_a2" order="2"/><bond atomRefs2="a1 a6" id="a1_a6" order="S"/><bond atomRefs2="a1 a7" id="a1_a7" order="S"/><bond atomRefs2="a2 a3" id="a2_a3" order="S"/><bond atomRefs2="a2 a8" id="a2_a8" order="S"/><bond atomRefs2="a3 a4" id="a3_a4" order="2"/><bond atomRefs2="a3 a9" id="a3_a9" order="S"/><bond atomRefs2="a4 a5" id="a4_a5" order="S"/><bond atomRefs2="a4 a10" id="a4_a10" order="S"/><bond atomRefs2="a5 a6" id="a5_a6" order="2"/><bond atomRefs2="a5 a11" id="a5_a11" order="S"/><bond atomRefs2="a6 a12" id="a6_a12" order="S"/></bondArray><property dictRef="cml:molmass"><scalar dataType="xsd:double" units="unit:dalton" xmlns:unit="http://www.xml-cml.org/unit/si/">192.4609</scalar></property></molecule></module><module cmlx:lineCount="1" cmlx:templateRef="l202.rotconst"><array dataType="xsd:double" size="3" dictRef="cc:rotconst" cmlx:templateRef="rotconst">2.7546568 0.471999 0.4703441</array></module><scalar dataType="xsd:integer" dictRef="g:buffer" cmlx:templateRef="buffer">131072</scalar><scalar dataType="xsd:string" dictRef="g:raffenetti" cmlx:templateRef="raff">Raffenetti</scalar><scalar dataType="xsd:string" dictRef="g:twoe" cmlx:templateRef="twoe">Two-electron</scalar><module cmlx:lineCount="12" cmlx:templateRef="l301.basis"><scalar dataType="xsd:string" dictRef="cc:basis">6-311+G(d,p)</scalar><scalar dataType="xsd:string" dictRef="cc:diffuse">(5D, 7F)</scalar><list cmlx:lineCount="1" cmlx:templateRef="symmadapt"><array dataType="xsd:integer" dictRef="cc:adapted" size="1">240</array><array dataType="xsd:string" dictRef="cc:symm" size="1">A</array></list><scalar dataType="xsd:integer" dictRef="cc:basiscount">240</scalar><scalar dataType="xsd:integer" dictRef="g:primbasis">403</scalar><scalar dataType="xsd:integer" dictRef="cc:cartesianbasis">250</scalar><scalar dataType="xsd:integer" dictRef="cc:alphae">47</scalar><scalar dataType="xsd:integer" dictRef="cc:betae">46</scalar> IExCor= 402 DFT=T Ex=B+HF Corr=LYP ExCW=0 ScaHFX=  0.200000 ScaDFX=  0.800000  0.720000  1.000000  0.810000 IRadAn=      0 IRanWt=     -1 IRanGd=            0 ICorTp=0 NAtoms=   13 NActive=   13 NUniq=   13 SFac= 1.00D+00 NAtFMM=   60 Big=F</module> NPDir=0 NMtPBC=     1 NCelOv=     1 NCel=       1 NClECP=     1 NCelD=      1         NCelK=      1 NCelE2=     1 NClLst=     1 CellRange=     0.0.<module cmlx:lineCount="1" cmlx:templateRef="l302.basis"><list cmlx:templateRef="onee"><scalar dataType="xsd:string" dictRef="g:onee">One-electron integrals</scalar></list></module> NBasis=   240 RedAO= T  NBF=   240 NBsUse=   240 1.00D-06 NBFU=   240 Precomputing XC quadrature grid using IXCGrd= 2 IRadAn=           0 IRanWt=          -1 IRanGd=           0. NRdTot=     835 NPtTot=      109574 NUsed=      115472 NTot=      115504 NSgBfM=   244   244   244   244.<module cmlx:lineCount="1" cmlx:templateRef="l303.basis"><list cmlx:templateRef="l303"><scalar dataType="xsd:integer" dictRef="g:dipdrv">1</scalar></list></module> Harris functional with IExCor=  402 diagonalized for initial guess. ExpMin= 3.50D-02 ExpMax= 4.40D+05 ExpMxC= 1.51D+04 IAcc=3 IRadAn=         5 AccDes= 0.00D+00 HarFok:  IExCor= 402 AccDes= 0.00D+00 IRadAn=         5 IDoV=1 ScaDFX=  1.000000  1.000000  1.000000  1.000000 Harris En= -3266.13027132914     Initial guess orbital symmetries:<module cmlx:lineCount="22" cmlx:templateRef="l401.alphabeta"><list cmlx:templateRef="alphabeta"><scalar dataType="xsd:string" dictRef="g:l401.type">Alpha</scalar></list><list cmlx:templateRef="l401"><scalar dataType="xsd:string" dictRef="g:l401">Occupied  (A) (A) (A) (A) (A) (A) (A) (A) (A) (A) (A) (A)</scalar><scalar dataType="xsd:string" dictRef="g:l401">(A) (A) (A) (A) (A) (A) (A) (A) (A) (A) (A) (A)</scalar><scalar dataType="xsd:string" dictRef="g:l401">(A) (A) (A) (A) (A) (A) (A) (A) (A) (A) (A) (A)</scalar><scalar dataType="xsd:string" dictRef="g:l401">(A) (A) (A) (A) (A) (A) (A) (A) (A) (A) (A)</scalar><scalar dataType="xsd:string" dictRef="g:l401">Virtual   (A) (A) (A) (A) (A) (A) (A) (A) (A) (A) (A) (A)</scalar><scalar dataType="xsd:string" dictRef="g:l401">(A) (A) (A) (A) (A) (A) (A) (A) (A) (A) (A) (A)</scalar><scalar dataType="xsd:string" dictRef="g:l401">(A) (A) (A) (A) (A) (A) (A) (A) (A) (A) (A) (A)</scalar><scalar dataType="xsd:string" dictRef="g:l401">(A) (A) (A) (A) (A) (A) (A) (A) (A) (A) (A) (A)</scalar><scalar dataType="xsd:string" dictRef="g:l401">(A) (A) (A) (A) (A) (A) (A) (A) (A) (A) (A) (A)</scalar><scalar dataType="xsd:string" dictRef="g:l401">(A) (A) (A) (A) (A) (A) (A) (A) (A) (A) (A) (A)</scalar><scalar dataType="xsd:string" dictRef="g:l401">(A) (A) (A) (A) (A) (A) (A) (A) (A) (A) (A) (A)</scalar><scalar dataType="xsd:string" dictRef="g:l401">(A) (A) (A) (A) (A) (A) (A) (A) (A) (A) (A) (A)</scalar><scalar dataType="xsd:string" dictRef="g:l401">(A) (A) (A) (A) (A) (A) (A) (A) (A) (A) (A) (A)</scalar><scalar dataType="xsd:string" dictRef="g:l401">(A) (A) (A) (A) (A) (A) (A) (A) (A) (A) (A) (A)</scalar><scalar dataType="xsd:string" dictRef="g:l401">(A) (A) (A) (A) (A) (A) (A) (A) (A) (A) (A) (A)</scalar><scalar dataType="xsd:string" dictRef="g:l401">(A) (A) (A) (A) (A) (A) (A) (A) (A) (A) (A) (A)</scalar><scalar dataType="xsd:string" dictRef="g:l401">(A) (A) (A) (A) (A) (A) (A) (A) (A) (A) (A) (A)</scalar><scalar dataType="xsd:string" dictRef="g:l401">(A) (A) (A) (A) (A) (A) (A) (A) (A) (A) (A) (A)</scalar><scalar dataType="xsd:string" dictRef="g:l401">(A) (A) (A) (A) (A) (A) (A) (A) (A) (A) (A) (A)</scalar><scalar dataType="xsd:string" dictRef="g:l401">(A) (A) (A) (A) (A) (A) (A) (A) (A) (A) (A) (A)</scalar><scalar dataType="xsd:string" dictRef="g:l401">(A)</scalar></list></module><module cmlx:lineCount="22" cmlx:templateRef="l401.alphabeta"><list cmlx:templateRef="alphabeta"><scalar dataType="xsd:string" dictRef="g:l401.type">Beta</scalar></list><list cmlx:templateRef="l401"><scalar dataType="xsd:string" dictRef="g:l401">Occupied  (A) (A) (A) (A) (A) (A) (A) (A) (A) (A) (A) (A)</scalar><scalar dataType="xsd:string" dictRef="g:l401">(A) (A) (A) (A) (A) (A) (A) (A) (A) (A) (A) (A)</scalar><scalar dataType="xsd:string" dictRef="g:l401">(A) (A) (A) (A) (A) (A) (A) (A) (A) (A) (A) (A)</scalar><scalar dataType="xsd:string" dictRef="g:l401">(A) (A) (A) (A) (A) (A) (A) (A) (A) (A)</scalar><scalar dataType="xsd:string" dictRef="g:l401">Virtual   (A) (A) (A) (A) (A) (A) (A) (A) (A) (A) (A) (A)</scalar><scalar dataType="xsd:string" dictRef="g:l401">(A) (A) (A) (A) (A) (A) (A) (A) (A) (A) (A) (A)</scalar><scalar dataType="xsd:string" dictRef="g:l401">(A) (A) (A) (A) (A) (A) (A) (A) (A) (A) (A) (A)</scalar><scalar dataType="xsd:string" dictRef="g:l401">(A) (A) (A) (A) (A) (A) (A) (A) (A) (A) (A) (A)</scalar><scalar dataType="xsd:string" dictRef="g:l401">(A) (A) (A) (A) (A) (A) (A) (A) (A) (A) (A) (A)</scalar><scalar dataType="xsd:string" dictRef="g:l401">(A) (A) (A) (A) (A) (A) (A) (A) (A) (A) (A) (A)</scalar><scalar dataType="xsd:string" dictRef="g:l401">(A) (A) (A) (A) (A) (A) (A) (A) (A) (A) (A) (A)</scalar><scalar dataType="xsd:string" dictRef="g:l401">(A) (A) (A) (A) (A) (A) (A) (A) (A) (A) (A) (A)</scalar><scalar dataType="xsd:string" dictRef="g:l401">(A) (A) (A) (A) (A) (A) (A) (A) (A) (A) (A) (A)</scalar><scalar dataType="xsd:string" dictRef="g:l401">(A) (A) (A) (A) (A) (A) (A) (A) (A) (A) (A) (A)</scalar><scalar dataType="xsd:string" dictRef="g:l401">(A) (A) (A) (A) (A) (A) (A) (A) (A) (A) (A) (A)</scalar><scalar dataType="xsd:string" dictRef="g:l401">(A) (A) (A) (A) (A) (A) (A) (A) (A) (A) (A) (A)</scalar><scalar dataType="xsd:string" dictRef="g:l401">(A) (A) (A) (A) (A) (A) (A) (A) (A) (A) (A) (A)</scalar><scalar dataType="xsd:string" dictRef="g:l401">(A) (A) (A) (A) (A) (A) (A) (A) (A) (A) (A) (A)</scalar><scalar dataType="xsd:string" dictRef="g:l401">(A) (A) (A) (A) (A) (A) (A) (A) (A) (A) (A) (A)</scalar><scalar dataType="xsd:string" dictRef="g:l401">(A) (A) (A) (A) (A) (A) (A) (A) (A) (A) (A) (A)</scalar><scalar dataType="xsd:string" dictRef="g:l401">(A) (A)</scalar></list></module> The electronic state of the initial guess is 2-A. &lt;S**2&gt; of initial guess= 0.7500<module cmlx:lineCount="405" cmlx:templateRef="l502"><list cmlx:templateRef="l502.type"><scalar dataType="xsd:string" dictRef="g:l502.type">UHF open</scalar></list> Requested convergence on RMS density matrix=1.00D-08 within 128 cycles. Requested convergence on MAX density matrix=1.00D-06. Requested convergence on             energy=1.00D-06. No special actions if energy rises. Using DIIS extrapolation, IDIIS=  1040. Integral symmetry usage will be decided dynamically.       115471 words used for storage of precomputed grid. IEnd=    354308 IEndB=    354308 NGot=   6291456 MDV=   6016539 LenX=   6016539 Fock matrices will be formed incrementally for  20 cycles.<module cmlx:lineCount="18" cmlx:templateRef="l502.cycle"><list cmlx:templateRef="cycle"><list><scalar dataType="xsd:integer" dictRef="cc:cycle">1</scalar><scalar dataType="xsd:integer" dictRef="g:pass">1</scalar><scalar dataType="xsd:integer" dictRef="g:idiag">1</scalar></list></list><module cmlx:lineCount="1" cmlx:templateRef="l502.e"><list cmlx:templateRef="l502.e"><scalar dataType="xsd:double" dictRef="g:l502.e">-3265.68663462977</scalar></list></module></module><module cmlx:lineCount="14" cmlx:templateRef="l502.cycle"><list cmlx:templateRef="cycle"><list><scalar dataType="xsd:integer" dictRef="cc:cycle">2</scalar><scalar dataType="xsd:integer" dictRef="g:pass">1</scalar><scalar dataType="xsd:integer" dictRef="g:idiag">1</scalar></list></list><module cmlx:lineCount="1" cmlx:templateRef="l502.ediff"><list cmlx:templateRef="l502.ediff"><list><scalar dataType="xsd:double" dictRef="g:l502.e">-3265.63100831701</scalar><scalar dataType="xsd:double" dictRef="g:l502.deltae">0.055626312762</scalar></list></list></module></module><module cmlx:lineCount="14" cmlx:templateRef="l502.cycle"><list cmlx:templateRef="cycle"><list><scalar dataType="xsd:integer" dictRef="cc:cycle">3</scalar><scalar dataType="xsd:integer" dictRef="g:pass">1</scalar><scalar dataType="xsd:integer" dictRef="g:idiag">1</scalar></list></list><module cmlx:lineCount="1" cmlx:templateRef="l502.ediff"><list cmlx:templateRef="l502.ediff"><list><scalar dataType="xsd:double" dictRef="g:l502.e">-3265.85662096875</scalar><scalar dataType="xsd:double" dictRef="g:l502.deltae">-0.225612651742</scalar></list></list></module> EnCoef did     2 forward-backward iterations</module><module cmlx:lineCount="13" cmlx:templateRef="l502.cycle"><list cmlx:templateRef="cycle"><list><scalar dataType="xsd:integer" dictRef="cc:cycle">4</scalar><scalar dataType="xsd:integer" dictRef="g:pass">1</scalar><scalar dataType="xsd:integer" dictRef="g:idiag">1</scalar></list></list><module cmlx:lineCount="1" cmlx:templateRef="l502.ediff"><list cmlx:templateRef="l502.ediff"><list><scalar dataType="xsd:double" dictRef="g:l502.e">-3265.47418737062</scalar><scalar dataType="xsd:double" dictRef="g:l502.deltae">0.382433598131</scalar></list></list></module></module><module cmlx:lineCount="14" cmlx:templateRef="l502.cycle"><list cmlx:templateRef="cycle"><list><scalar dataType="xsd:integer" dictRef="cc:cycle">5</scalar><scalar dataType="xsd:integer" dictRef="g:pass">1</scalar><scalar dataType="xsd:integer" dictRef="g:idiag">1</scalar></list></list><module cmlx:lineCount="1" cmlx:templateRef="l502.ediff"><list cmlx:templateRef="l502.ediff"><list><scalar dataType="xsd:double" dictRef="g:l502.e">-3266.00681487282</scalar><scalar dataType="xsd:double" dictRef="g:l502.deltae">-0.5326275022</scalar></list></list></module></module><module cmlx:lineCount="14" cmlx:templateRef="l502.cycle"><list cmlx:templateRef="cycle"><list><scalar dataType="xsd:integer" dictRef="cc:cycle">6</scalar><scalar dataType="xsd:integer" dictRef="g:pass">1</scalar><scalar dataType="xsd:integer" dictRef="g:idiag">1</scalar></list></list><module cmlx:lineCount="1" cmlx:templateRef="l502.ediff"><list cmlx:templateRef="l502.ediff"><list><scalar dataType="xsd:double" dictRef="g:l502.e">-3266.03376262716</scalar><scalar dataType="xsd:double" dictRef="g:l502.deltae">-0.026947754338</scalar></list></list></module></module><module cmlx:lineCount="18" cmlx:templateRef="l502.cycle"><list cmlx:templateRef="cycle"><list><scalar dataType="xsd:integer" dictRef="cc:cycle">7</scalar><scalar dataType="xsd:integer" dictRef="g:pass">1</scalar><scalar dataType="xsd:integer" dictRef="g:idiag">1</scalar></list></list>                    CP:  8.80D-01<module cmlx:lineCount="1" cmlx:templateRef="l502.ediff"><list cmlx:templateRef="l502.ediff"><list><scalar dataType="xsd:double" dictRef="g:l502.e">-3266.03545666619</scalar><scalar dataType="xsd:double" dictRef="g:l502.deltae">-0.001694039031</scalar></list></list></module></module><module cmlx:lineCount="18" cmlx:templateRef="l502.cycle"><list cmlx:templateRef="cycle"><list><scalar dataType="xsd:integer" dictRef="cc:cycle">8</scalar><scalar dataType="xsd:integer" dictRef="g:pass">1</scalar><scalar dataType="xsd:integer" dictRef="g:idiag">1</scalar></list></list>                    CP:  8.46D-01  1.19D+00<module cmlx:lineCount="1" cmlx:templateRef="l502.ediff"><list cmlx:templateRef="l502.ediff"><list><scalar dataType="xsd:double" dictRef="g:l502.e">-3266.03610143847</scalar><scalar dataType="xsd:double" dictRef="g:l502.deltae">-6.44772278E-4</scalar></list></list></module></module><module cmlx:lineCount="18" cmlx:templateRef="l502.cycle"><list cmlx:templateRef="cycle"><list><scalar dataType="xsd:integer" dictRef="cc:cycle">9</scalar><scalar dataType="xsd:integer" dictRef="g:pass">1</scalar><scalar dataType="xsd:integer" dictRef="g:idiag">1</scalar></list></list>                    CP:  8.82D-01  1.34D+00  8.81D-01<module cmlx:lineCount="1" cmlx:templateRef="l502.ediff"><list cmlx:templateRef="l502.ediff"><list><scalar dataType="xsd:double" dictRef="g:l502.e">-3266.03618920765</scalar><scalar dataType="xsd:double" dictRef="g:l502.deltae">-8.776918E-5</scalar></list></list></module></module><module cmlx:lineCount="18" cmlx:templateRef="l502.cycle"><list cmlx:templateRef="cycle"><list><scalar dataType="xsd:integer" dictRef="cc:cycle">10</scalar><scalar dataType="xsd:integer" dictRef="g:pass">1</scalar><scalar dataType="xsd:integer" dictRef="g:idiag">1</scalar></list></list>                    CP:  8.97D-01  1.31D+00  8.52D-01  1.45D+00<module cmlx:lineCount="1" cmlx:templateRef="l502.ediff"><list cmlx:templateRef="l502.ediff"><list><scalar dataType="xsd:double" dictRef="g:l502.e">-3266.03621571005</scalar><scalar dataType="xsd:double" dictRef="g:l502.deltae">-2.6502401E-5</scalar></list></list></module></module><module cmlx:lineCount="18" cmlx:templateRef="l502.cycle"><list cmlx:templateRef="cycle"><list><scalar dataType="xsd:integer" dictRef="cc:cycle">11</scalar><scalar dataType="xsd:integer" dictRef="g:pass">1</scalar><scalar dataType="xsd:integer" dictRef="g:idiag">1</scalar></list></list>                    CP:  8.84D-01  1.32D+00  8.85D-01  1.81D+00  1.47D+00<module cmlx:lineCount="1" cmlx:templateRef="l502.ediff"><list cmlx:templateRef="l502.ediff"><list><scalar dataType="xsd:double" dictRef="g:l502.e">-3266.0362282269</scalar><scalar dataType="xsd:double" dictRef="g:l502.deltae">-1.2516844E-5</scalar></list></list></module></module><module cmlx:lineCount="17" cmlx:templateRef="l502.cycle"><list cmlx:templateRef="cycle"><list><scalar dataType="xsd:integer" dictRef="cc:cycle">12</scalar><scalar dataType="xsd:integer" dictRef="g:pass">1</scalar><scalar dataType="xsd:integer" dictRef="g:idiag">1</scalar></list></list>                    CP:  8.75D-01  1.31D+00  9.11D-01  2.08D+00  1.70D+00                    CP:  1.70D+00<module cmlx:lineCount="1" cmlx:templateRef="l502.ediff"><list cmlx:templateRef="l502.ediff"><list><scalar dataType="xsd:double" dictRef="g:l502.e">-3266.03623292444</scalar><scalar dataType="xsd:double" dictRef="g:l502.deltae">-4.697547E-6</scalar></list></list></module></module><module cmlx:lineCount="19" cmlx:templateRef="l502.cycle"><list cmlx:templateRef="cycle"><list><scalar dataType="xsd:integer" dictRef="cc:cycle">13</scalar><scalar dataType="xsd:integer" dictRef="g:pass">1</scalar><scalar dataType="xsd:integer" dictRef="g:idiag">1</scalar></list></list>                    CP:  8.71D-01  1.32D+00  9.09D-01  2.28D+00  1.85D+00                    CP:  2.18D+00  1.45D+00<module cmlx:lineCount="1" cmlx:templateRef="l502.ediff"><list cmlx:templateRef="l502.ediff"><list><scalar dataType="xsd:double" dictRef="g:l502.e">-3266.03623427821</scalar><scalar dataType="xsd:double" dictRef="g:l502.deltae">-1.353763E-6</scalar></list></list></module></module><module cmlx:lineCount="19" cmlx:templateRef="l502.cycle"><list cmlx:templateRef="cycle"><list><scalar dataType="xsd:integer" dictRef="cc:cycle">14</scalar><scalar dataType="xsd:integer" dictRef="g:pass">1</scalar><scalar dataType="xsd:integer" dictRef="g:idiag">1</scalar></list></list>                    CP:  8.68D-01  1.31D+00  9.11D-01  2.32D+00  1.92D+00                    CP:  2.34D+00  1.56D+00  1.05D+00<module cmlx:lineCount="1" cmlx:templateRef="l502.ediff"><list cmlx:templateRef="l502.ediff"><list><scalar dataType="xsd:double" dictRef="g:l502.e">-3266.0362344219</scalar><scalar dataType="xsd:double" dictRef="g:l502.deltae">-1.43692E-7</scalar></list></list></module></module><module cmlx:lineCount="19" cmlx:templateRef="l502.cycle"><list cmlx:templateRef="cycle"><list><scalar dataType="xsd:integer" dictRef="cc:cycle">15</scalar><scalar dataType="xsd:integer" dictRef="g:pass">1</scalar><scalar dataType="xsd:integer" dictRef="g:idiag">1</scalar></list></list>                    CP:  8.68D-01  1.31D+00  9.08D-01  2.35D+00  1.96D+00                    CP:  2.39D+00  1.61D+00  1.18D+00  9.83D-01<module cmlx:lineCount="1" cmlx:templateRef="l502.ediff"><list cmlx:templateRef="l502.ediff"><list><scalar dataType="xsd:double" dictRef="g:l502.e">-3266.03623445521</scalar><scalar dataType="xsd:double" dictRef="g:l502.deltae">-3.3316E-8</scalar></list></list></module></module><module cmlx:lineCount="19" cmlx:templateRef="l502.cycle"><list cmlx:templateRef="cycle"><list><scalar dataType="xsd:integer" dictRef="cc:cycle">16</scalar><scalar dataType="xsd:integer" dictRef="g:pass">1</scalar><scalar dataType="xsd:integer" dictRef="g:idiag">1</scalar></list></list>                    CP:  8.67D-01  1.31D+00  9.07D-01  2.37D+00  1.99D+00                    CP:  2.44D+00  1.66D+00  1.23D+00  1.07D+00  1.84D+00<module cmlx:lineCount="1" cmlx:templateRef="l502.ediff"><list cmlx:templateRef="l502.ediff"><list><scalar dataType="xsd:double" dictRef="g:l502.e">-3266.03623447121</scalar><scalar dataType="xsd:double" dictRef="g:l502.deltae">-1.5993E-8</scalar></list></list></module></module><module cmlx:lineCount="20" cmlx:templateRef="l502.cycle"><list cmlx:templateRef="cycle"><list><scalar dataType="xsd:integer" dictRef="cc:cycle">17</scalar><scalar dataType="xsd:integer" dictRef="g:pass">1</scalar><scalar dataType="xsd:integer" dictRef="g:idiag">1</scalar></list></list>                    CP:  8.66D-01  1.31D+00  9.08D-01  2.38D+00  2.00D+00                    CP:  2.48D+00  1.70D+00  1.27D+00  1.21D+00  2.29D+00                    CP:  1.49D+00<module cmlx:lineCount="1" cmlx:templateRef="l502.ediff"><list cmlx:templateRef="l502.ediff"><list><scalar dataType="xsd:double" dictRef="g:l502.e">-3266.03623447678</scalar><scalar dataType="xsd:double" dictRef="g:l502.deltae">-5.573E-9</scalar></list></list></module></module><module cmlx:lineCount="20" cmlx:templateRef="l502.cycle"><list cmlx:templateRef="cycle"><list><scalar dataType="xsd:integer" dictRef="cc:cycle">18</scalar><scalar dataType="xsd:integer" dictRef="g:pass">1</scalar><scalar dataType="xsd:integer" dictRef="g:idiag">1</scalar></list></list>                    CP:  8.66D-01  1.31D+00  9.08D-01  2.39D+00  2.01D+00                    CP:  2.49D+00  1.72D+00  1.29D+00  1.24D+00  2.59D+00                    CP:  1.99D+00  1.48D+00<module cmlx:lineCount="1" cmlx:templateRef="l502.ediff"><list cmlx:templateRef="l502.ediff"><list><scalar dataType="xsd:double" dictRef="g:l502.e">-3266.03623447837</scalar><scalar dataType="xsd:double" dictRef="g:l502.deltae">-1.59E-9</scalar></list></list></module></module><module cmlx:lineCount="22" cmlx:templateRef="l502.cycle"><list cmlx:templateRef="cycle"><list><scalar dataType="xsd:integer" dictRef="cc:cycle">19</scalar><scalar dataType="xsd:integer" dictRef="g:pass">1</scalar><scalar dataType="xsd:integer" dictRef="g:idiag">1</scalar></list></list>                    CP:  8.66D-01  1.31D+00  9.09D-01  2.39D+00  2.01D+00                    CP:  2.50D+00  1.73D+00  1.30D+00  1.26D+00  2.66D+00                    CP:  2.09D+00  1.83D+00  9.71D-01<module cmlx:lineCount="1" cmlx:templateRef="l502.ediff"><list cmlx:templateRef="l502.ediff"><list><scalar dataType="xsd:double" dictRef="g:l502.e">-3266.03623447856</scalar><scalar dataType="xsd:double" dictRef="g:l502.deltae">-1.96E-10</scalar></list></list></module></module><module cmlx:lineCount="19" cmlx:templateRef="l502.cycle"><list cmlx:templateRef="cycle"><list><scalar dataType="xsd:integer" dictRef="cc:cycle">20</scalar><scalar dataType="xsd:integer" dictRef="g:pass">1</scalar><scalar dataType="xsd:integer" dictRef="g:idiag">1</scalar></list></list> Restarting incremental Fock formation.<module cmlx:lineCount="1" cmlx:templateRef="l502.ediff"><list cmlx:templateRef="l502.ediff"><list><scalar dataType="xsd:double" dictRef="g:l502.e">-3266.03623447864</scalar><scalar dataType="xsd:double" dictRef="g:l502.deltae">-8.0E-11</scalar></list></list></module></module><module cmlx:lineCount="19" cmlx:templateRef="l502.cycle"><list cmlx:templateRef="cycle"><list><scalar dataType="xsd:integer" dictRef="cc:cycle">21</scalar><scalar dataType="xsd:integer" dictRef="g:pass">1</scalar><scalar dataType="xsd:integer" dictRef="g:idiag">1</scalar></list></list><module cmlx:lineCount="1" cmlx:templateRef="l502.ediff"><list cmlx:templateRef="l502.ediff"><list><scalar dataType="xsd:double" dictRef="g:l502.e">-3266.03623447864</scalar><scalar dataType="xsd:double" dictRef="g:l502.deltae">7.0E-12</scalar></list></list></module></module><module cmlx:lineCount="19" cmlx:templateRef="l502.cycle"><list cmlx:templateRef="cycle"><list><scalar dataType="xsd:integer" dictRef="cc:cycle">22</scalar><scalar dataType="xsd:integer" dictRef="g:pass">1</scalar><scalar dataType="xsd:integer" dictRef="g:idiag">1</scalar></list></list><module cmlx:lineCount="1" cmlx:templateRef="l502.ediff"><list cmlx:templateRef="l502.ediff"><list><scalar dataType="xsd:double" dictRef="g:l502.e">-3266.03623447866</scalar><scalar dataType="xsd:double" dictRef="g:l502.deltae">-1.8E-11</scalar></list></list></module></module><module cmlx:lineCount="3" cmlx:templateRef="l502.footer"><list cmlx:templateRef="l502"><scalar dataType="xsd:string" dictRef="g:l502">SCF Done:  E(UB+HF-LYP) =  -3266.03623448     A.U. after   22 cycles</scalar><scalar dataType="xsd:string" dictRef="g:l502">Convg  =    0.6189D-08             -V/T =  2.0016</scalar><scalar dataType="xsd:string" dictRef="g:l502">S**2   =   0.7588</scalar></list></module><list cmlx:templateRef="l502"><scalar dataType="xsd:string" dictRef="g:l502">KE= 3.260848294051D+03 PE=-8.970189948806D+03 EE= 1.849967859125D+03</scalar></list></module> Annihilation of the first spin contaminant: S**2 before annihilation     0.7588,   after     0.7501 Copying SCF densities to generalized density rwf, ISCF=1 IROHF=0.<module cmlx:lineCount="304" cmlx:templateRef="l601.popanal"> Orbital symmetries: Alpha Orbitals:<module cmlx:lineCount="4" cmlx:templateRef="l4601.occupied"><list cmlx:templateRef="occ"><scalar dataType="xsd:string" dictRef="g:occorbs">(A) (A) (A) (A) (A) (A) (A) (A) (A) (A) (A) (A)</scalar></list><list cmlx:templateRef="occ"><scalar dataType="xsd:string" dictRef="g:occorbs">(A) (A) (A) (A) (A) (A) (A) (A) (A) (A) (A) (A)</scalar><scalar dataType="xsd:string" dictRef="g:occorbs">(A) (A) (A) (A) (A) (A) (A) (A) (A) (A) (A) (A)</scalar><scalar dataType="xsd:string" dictRef="g:occorbs">(A) (A) (A) (A) (A) (A) (A) (A) (A) (A) (A)</scalar></list></module><module cmlx:lineCount="17" cmlx:templateRef="l4601.virtual"><list cmlx:templateRef="virt"><scalar dataType="xsd:string" dictRef="g:virtorbs">(A) (A) (A) (A) (A) (A) (A) (A) (A) (A) (A) (A)</scalar></list><list cmlx:templateRef="virt"><scalar dataType="xsd:string" dictRef="g:virtorbs">(A) (A) (A) (A) (A) (A) (A) (A) (A) (A) (A) (A)</scalar><scalar dataType="xsd:string" dictRef="g:virtorbs">(A) (A) (A) (A) (A) (A) (A) (A) (A) (A) (A) (A)</scalar><scalar dataType="xsd:string" dictRef="g:virtorbs">(A) (A) (A) (A) (A) (A) (A) (A) (A) (A) (A) (A)</scalar><scalar dataType="xsd:string" dictRef="g:virtorbs">(A) (A) (A) (A) (A) (A) (A) (A) (A) (A) (A) (A)</scalar><scalar dataType="xsd:string" dictRef="g:virtorbs">(A) (A) (A) (A) (A) (A) (A) (A) (A) (A) (A) (A)</scalar><scalar dataType="xsd:string" dictRef="g:virtorbs">(A) (A) (A) (A) (A) (A) (A) (A) (A) (A) (A) (A)</scalar><scalar dataType="xsd:string" dictRef="g:virtorbs">(A) (A) (A) (A) (A) (A) (A) (A) (A) (A) (A) (A)</scalar><scalar dataType="xsd:string" dictRef="g:virtorbs">(A) (A) (A) (A) (A) (A) (A) (A) (A) (A) (A) (A)</scalar><scalar dataType="xsd:string" dictRef="g:virtorbs">(A) (A) (A) (A) (A) (A) (A) (A) (A) (A) (A) (A)</scalar><scalar dataType="xsd:string" dictRef="g:virtorbs">(A) (A) (A) (A) (A) (A) (A) (A) (A) (A) (A) (A)</scalar><scalar dataType="xsd:string" dictRef="g:virtorbs">(A) (A) (A) (A) (A) (A) (A) (A) (A) (A) (A) (A)</scalar><scalar dataType="xsd:string" dictRef="g:virtorbs">(A) (A) (A) (A) (A) (A) (A) (A) (A) (A) (A) (A)</scalar><scalar dataType="xsd:string" dictRef="g:virtorbs">(A) (A) (A) (A) (A) (A) (A) (A) (A) (A) (A) (A)</scalar><scalar dataType="xsd:string" dictRef="g:virtorbs">(A) (A) (A) (A) (A) (A) (A) (A) (A) (A) (A) (A)</scalar><scalar dataType="xsd:string" dictRef="g:virtorbs">(A) (A) (A) (A) (A) (A) (A) (A) (A) (A) (A) (A)</scalar><scalar dataType="xsd:string" dictRef="g:virtorbs">(A)</scalar></list></module> Beta  Orbitals:       Occupied  (A) (A) (A) (A) (A) (A) (A) (A) (A) (A) (A) (A)                 (A) (A) (A) (A) (A) (A) (A) (A) (A) (A) (A) (A)                 (A) (A) (A) (A) (A) (A) (A) (A) (A) (A) (A) (A)                 (A) (A) (A) (A) (A) (A) (A) (A) (A) (A)<module cmlx:lineCount="17" cmlx:templateRef="l4601.virtual"><list cmlx:templateRef="virt"><scalar dataType="xsd:string" dictRef="g:virtorbs">(A) (A) (A) (A) (A) (A) (A) (A) (A) (A) (A) (A)</scalar></list><list cmlx:templateRef="virt"><scalar dataType="xsd:string" dictRef="g:virtorbs">(A) (A) (A) (A) (A) (A) (A) (A) (A) (A) (A) (A)</scalar><scalar dataType="xsd:string" dictRef="g:virtorbs">(A) (A) (A) (A) (A) (A) (A) (A) (A) (A) (A) (A)</scalar><scalar dataType="xsd:string" dictRef="g:virtorbs">(A) (A) (A) (A) (A) (A) (A) (A) (A) (A) (A) (A)</scalar><scalar dataType="xsd:string" dictRef="g:virtorbs">(A) (A) (A) (A) (A) (A) (A) (A) (A) (A) (A) (A)</scalar><scalar dataType="xsd:string" dictRef="g:virtorbs">(A) (A) (A) (A) (A) (A) (A) (A) (A) (A) (A) (A)</scalar><scalar dataType="xsd:string" dictRef="g:virtorbs">(A) (A) (A) (A) (A) (A) (A) (A) (A) (A) (A) (A)</scalar><scalar dataType="xsd:string" dictRef="g:virtorbs">(A) (A) (A) (A) (A) (A) (A) (A) (A) (A) (A) (A)</scalar><scalar dataType="xsd:string" dictRef="g:virtorbs">(A) (A) (A) (A) (A) (A) (A) (A) (A) (A) (A) (A)</scalar><scalar dataType="xsd:string" dictRef="g:virtorbs">(A) (A) (A) (A) (A) (A) (A) (A) (A) (A) (A) (A)</scalar><scalar dataType="xsd:string" dictRef="g:virtorbs">(A) (A) (A) (A) (A) (A) (A) (A) (A) (A) (A) (A)</scalar><scalar dataType="xsd:string" dictRef="g:virtorbs">(A) (A) (A) (A) (A) (A) (A) (A) (A) (A) (A) (A)</scalar><scalar dataType="xsd:string" dictRef="g:virtorbs">(A) (A) (A) (A) (A) (A) (A) (A) (A) (A) (A) (A)</scalar><scalar dataType="xsd:string" dictRef="g:virtorbs">(A) (A) (A) (A) (A) (A) (A) (A) (A) (A) (A) (A)</scalar><scalar dataType="xsd:string" dictRef="g:virtorbs">(A) (A) (A) (A) (A) (A) (A) (A) (A) (A) (A) (A)</scalar><scalar dataType="xsd:string" dictRef="g:virtorbs">(A) (A) (A) (A) (A) (A) (A) (A) (A) (A) (A) (A)</scalar><scalar dataType="xsd:string" dictRef="g:virtorbs">(A) (A)</scalar></list></module><module cmlx:lineCount="1" cmlx:templateRef="l601.state"/><module cmlx:lineCount="49" cmlx:templateRef="l601.alphabetaeigen"><list cmlx:templateRef="eigen"><array dataType="xsd:double" size="5" dictRef="g:alphaocceigen">-482.85644 -101.52129 -62.50927 -56.32956 -56.32599</array><array dataType="xsd:double" size="5" dictRef="g:alphaocceigen">-56.32552 -10.27083 -10.22933 -10.22039 -10.22037</array><array dataType="xsd:double" size="5" dictRef="g:alphaocceigen">-10.21569 -10.21569 -9.43328 -8.71904 -7.20323</array><array dataType="xsd:double" size="5" dictRef="g:alphaocceigen">-7.18743 -7.18736 -6.5503 -6.5381 -6.5369</array><array dataType="xsd:double" size="5" dictRef="g:alphaocceigen">-2.66134 -2.65798 -2.65712 -2.64735 -2.64733</array><array dataType="xsd:double" size="5" dictRef="g:alphaocceigen">-0.91319 -0.84215 -0.79521 -0.77956 -0.75591</array><array dataType="xsd:double" size="5" dictRef="g:alphaocceigen">-0.65185 -0.6357 -0.55732 -0.50309 -0.494</array><array dataType="xsd:double" size="5" dictRef="g:alphaocceigen">-0.46807 -0.45431 -0.4299 -0.39145 -0.38965</array><array dataType="xsd:double" size="5" dictRef="g:alphaocceigen">-0.36713 -0.31708 -0.31661 -0.30953 -0.29332</array><array dataType="xsd:double" size="2" dictRef="g:alphaocceigen">-0.28599 -0.26158</array></list></module><module cmlx:lineCount="1" cmlx:templateRef="l601.alphabetaeigen"/><module cmlx:lineCount="1" cmlx:templateRef="l601.alphabetaeigen"/><module cmlx:lineCount="1" cmlx:templateRef="l601.alphabetaeigen"/><module cmlx:lineCount="1" cmlx:templateRef="l601.alphabetaeigen"/><module cmlx:lineCount="1" cmlx:templateRef="l601.alphabetaeigen"/><module cmlx:lineCount="1" cmlx:templateRef="l601.alphabetaeigen"/><module cmlx:lineCount="1" cmlx:templateRef="l601.alphabetaeigen"/><module cmlx:lineCount="1" cmlx:templateRef="l601.alphabetaeigen"/><module cmlx:lineCount="1" cmlx:templateRef="l601.alphabetaeigen"/><module cmlx:lineCount="1" cmlx:templateRef="l601.alphabetaeigen"/><module cmlx:lineCount="1" cmlx:templateRef="l601.alphabetaeigen"><list cmlx:templateRef="eigen"><array dataType="xsd:double" size="5" dictRef="g:betavirteigen">-0.1834 -0.04581 -0.04473 -0.03308 -0.00683</array></list></module><module cmlx:lineCount="1" cmlx:templateRef="l601.alphabetaeigen"><list cmlx:templateRef="eigen"><array dataType="xsd:double" size="5" dictRef="g:betavirteigen">0.01244 0.0142 0.03574 0.03866 0.03996</array></list></module><module cmlx:lineCount="1" cmlx:templateRef="l601.alphabetaeigen"><list cmlx:templateRef="eigen"><array dataType="xsd:double" size="5" dictRef="g:betavirteigen">0.04603 0.05886 0.06545 0.0735 0.07741</array></list></module><module cmlx:lineCount="1" cmlx:templateRef="l601.alphabetaeigen"><list cmlx:templateRef="eigen"><array dataType="xsd:double" size="5" dictRef="g:betavirteigen">0.08565 0.09998 0.10113 0.11394 0.11428</array></list></module><module cmlx:lineCount="1" cmlx:templateRef="l601.alphabetaeigen"><list cmlx:templateRef="eigen"><array dataType="xsd:double" size="5" dictRef="g:betavirteigen">0.11777 0.12346 0.12402 0.13354 0.14555</array></list></module><module cmlx:lineCount="1" cmlx:templateRef="l601.alphabetaeigen"><list cmlx:templateRef="eigen"><array dataType="xsd:double" size="5" dictRef="g:betavirteigen">0.15087 0.15334 0.15742 0.17397 0.17776</array></list></module><module cmlx:lineCount="1" cmlx:templateRef="l601.alphabetaeigen"><list cmlx:templateRef="eigen"><array dataType="xsd:double" size="5" dictRef="g:betavirteigen">0.17834 0.18642 0.18992 0.2039 0.20851</array></list></module><module cmlx:lineCount="1" cmlx:templateRef="l601.alphabetaeigen"><list cmlx:templateRef="eigen"><array dataType="xsd:double" size="5" dictRef="g:betavirteigen">0.21927 0.22972 0.23333 0.23452 0.24519</array></list></module><module cmlx:lineCount="1" cmlx:templateRef="l601.alphabetaeigen"><list cmlx:templateRef="eigen"><array dataType="xsd:double" size="5" dictRef="g:betavirteigen">0.24721 0.27691 0.27954 0.28644 0.29266</array></list></module><module cmlx:lineCount="1" cmlx:templateRef="l601.alphabetaeigen"><list cmlx:templateRef="eigen"><array dataType="xsd:double" size="5" dictRef="g:betavirteigen">0.30875 0.37781 0.40607 0.40812 0.44234</array></list></module><module cmlx:lineCount="1" cmlx:templateRef="l601.alphabetaeigen"><list cmlx:templateRef="eigen"><array dataType="xsd:double" size="5" dictRef="g:betavirteigen">0.47129 0.47264 0.48565 0.4908 0.49716</array></list></module><module cmlx:lineCount="1" cmlx:templateRef="l601.alphabetaeigen"><list cmlx:templateRef="eigen"><array dataType="xsd:double" size="5" dictRef="g:betavirteigen">0.50495 0.52086 0.5278 0.5301 0.54143</array></list></module><module cmlx:lineCount="1" cmlx:templateRef="l601.alphabetaeigen"><list cmlx:templateRef="eigen"><array dataType="xsd:double" size="5" dictRef="g:betavirteigen">0.55897 0.56503 0.56951 0.59899 0.60305</array></list></module><module cmlx:lineCount="1" cmlx:templateRef="l601.alphabetaeigen"><list cmlx:templateRef="eigen"><array dataType="xsd:double" size="5" dictRef="g:betavirteigen">0.61666 0.63375 0.65327 0.65938 0.67266</array></list></module><module cmlx:lineCount="1" cmlx:templateRef="l601.alphabetaeigen"><list cmlx:templateRef="eigen"><array dataType="xsd:double" size="5" dictRef="g:betavirteigen">0.68619 0.69048 0.69722 0.71065 0.72866</array></list></module><module cmlx:lineCount="1" cmlx:templateRef="l601.alphabetaeigen"><list cmlx:templateRef="eigen"><array dataType="xsd:double" size="5" dictRef="g:betavirteigen">0.74121 0.77082 0.79231 0.80202 0.80431</array></list></module><module cmlx:lineCount="1" cmlx:templateRef="l601.alphabetaeigen"><list cmlx:templateRef="eigen"><array dataType="xsd:double" size="5" dictRef="g:betavirteigen">0.8265 0.82684 0.84318 0.86533 0.90575</array></list></module><module cmlx:lineCount="1" cmlx:templateRef="l601.alphabetaeigen"><list cmlx:templateRef="eigen"><array dataType="xsd:double" size="5" dictRef="g:betavirteigen">0.91476 0.92121 0.92804 0.96569 0.9743</array></list></module><module cmlx:lineCount="1" cmlx:templateRef="l601.alphabetaeigen"><list cmlx:templateRef="eigen"><array dataType="xsd:double" size="5" dictRef="g:betavirteigen">0.98295 1.00328 1.02054 1.04414 1.06397</array></list></module><module cmlx:lineCount="1" cmlx:templateRef="l601.alphabetaeigen"><list cmlx:templateRef="eigen"><array dataType="xsd:double" size="5" dictRef="g:betavirteigen">1.08432 1.10504 1.11165 1.19854 1.25407</array></list></module><module cmlx:lineCount="1" cmlx:templateRef="l601.alphabetaeigen"><list cmlx:templateRef="eigen"><array dataType="xsd:double" size="5" dictRef="g:betavirteigen">1.31647 1.33141 1.4446 1.46521 1.48226</array></list></module><module cmlx:lineCount="1" cmlx:templateRef="l601.alphabetaeigen"><list cmlx:templateRef="eigen"><array dataType="xsd:double" size="5" dictRef="g:betavirteigen">1.51797 1.54308 1.58246 1.58965 1.62059</array></list></module><module cmlx:lineCount="1" cmlx:templateRef="l601.alphabetaeigen"><list cmlx:templateRef="eigen"><array dataType="xsd:double" size="5" dictRef="g:betavirteigen">1.6256 1.6564 1.68867 1.73465 1.74257</array></list></module><module cmlx:lineCount="1" cmlx:templateRef="l601.alphabetaeigen"><list cmlx:templateRef="eigen"><array dataType="xsd:double" size="5" dictRef="g:betavirteigen">1.79033 1.83316 1.87042 1.89347 1.90178</array></list></module><module cmlx:lineCount="1" cmlx:templateRef="l601.alphabetaeigen"><list cmlx:templateRef="eigen"><array dataType="xsd:double" size="5" dictRef="g:betavirteigen">1.92723 1.9304 1.93545 1.9727 1.99632</array></list></module><module cmlx:lineCount="1" cmlx:templateRef="l601.alphabetaeigen"><list cmlx:templateRef="eigen"><array dataType="xsd:double" size="5" dictRef="g:betavirteigen">1.99788 2.0123 2.0553 2.10164 2.22675</array></list></module><module cmlx:lineCount="1" cmlx:templateRef="l601.alphabetaeigen"><list cmlx:templateRef="eigen"><array dataType="xsd:double" size="5" dictRef="g:betavirteigen">2.24012 2.28824 2.29736 2.30807 2.33809</array></list></module><module cmlx:lineCount="1" cmlx:templateRef="l601.alphabetaeigen"><list cmlx:templateRef="eigen"><array dataType="xsd:double" size="5" dictRef="g:betavirteigen">2.3647 2.36989 2.41158 2.42895 2.46564</array></list></module><module cmlx:lineCount="1" cmlx:templateRef="l601.alphabetaeigen"><list cmlx:templateRef="eigen"><array dataType="xsd:double" size="5" dictRef="g:betavirteigen">2.5894 2.61407 2.6258 2.68597 2.69681</array></list></module><module cmlx:lineCount="1" cmlx:templateRef="l601.alphabetaeigen"><list cmlx:templateRef="eigen"><array dataType="xsd:double" size="5" dictRef="g:betavirteigen">2.71745 2.72952 2.74609 2.75996 2.76024</array></list></module><module cmlx:lineCount="1" cmlx:templateRef="l601.alphabetaeigen"><list cmlx:templateRef="eigen"><array dataType="xsd:double" size="5" dictRef="g:betavirteigen">2.80276 2.83244 2.86698 2.90273 2.90379</array></list></module><module cmlx:lineCount="1" cmlx:templateRef="l601.alphabetaeigen"><list cmlx:templateRef="eigen"><array dataType="xsd:double" size="5" dictRef="g:betavirteigen">3.04684 3.08206 3.0866 3.28768 3.35776</array></list></module><module cmlx:lineCount="1" cmlx:templateRef="l601.alphabetaeigen"><list cmlx:templateRef="eigen"><array dataType="xsd:double" size="5" dictRef="g:betavirteigen">3.45972 3.48762 3.58802 3.70959 3.95126</array></list></module><module cmlx:lineCount="1" cmlx:templateRef="l601.alphabetaeigen"><list cmlx:templateRef="eigen"><array dataType="xsd:double" size="5" dictRef="g:betavirteigen">4.00772 4.08717 4.11097 4.11712 4.16856</array></list></module><module cmlx:lineCount="1" cmlx:templateRef="l601.alphabetaeigen"><list cmlx:templateRef="eigen"><array dataType="xsd:double" size="5" dictRef="g:betavirteigen">4.19736 4.35359 4.5482 4.79488 6.71034</array></list></module><module cmlx:lineCount="1" cmlx:templateRef="l601.alphabetaeigen"><list cmlx:templateRef="eigen"><array dataType="xsd:double" size="5" dictRef="g:betavirteigen">7.53304 7.65239 7.70569 9.71068 23.50494</array></list></module><module cmlx:lineCount="1" cmlx:templateRef="l601.alphabetaeigen"><list cmlx:templateRef="eigen"><array dataType="xsd:double" size="5" dictRef="g:betavirteigen">23.89655 23.89941 23.99886 24.08044 24.15258</array></list></module><module cmlx:lineCount="1" cmlx:templateRef="l601.alphabetaeigen"><list cmlx:templateRef="eigen"><array dataType="xsd:double" size="5" dictRef="g:betavirteigen">25.87876 25.88907 26.10032 47.96946 215.68412</array></list></module><module cmlx:lineCount="1" cmlx:templateRef="l601.alphabetaeigen"><list cmlx:templateRef="eigen"><array dataType="xsd:double" size="4" dictRef="g:betavirteigen">289.73017 289.85081 289.92761102 0.7736</array></list></module><module cmlx:lineCount="43" cmlx:templateRef="l601.condensed"><module cmlx:lineCount="14" cmlx:templateRef="cond"><list cmlx:templateRef="serial"><scalar dataType="xsd:string" dictRef="x:intarr">1          2          3          4          5          6</scalar></list><list cmlx:templateRef="row"><list><scalar dataType="xsd:integer" dictRef="cc:serial">1</scalar><scalar dataType="xsd:string" dictRef="cc:elementType">C</scalar><scalar dataType="xsd:string" dictRef="x:floatArr">8.314424  -1.555580   0.793507  -1.091221   0.793516  -1.555524</scalar></list><list><scalar dataType="xsd:integer" dictRef="cc:serial">2</scalar><scalar dataType="xsd:string" dictRef="cc:elementType">C</scalar><scalar dataType="xsd:string" dictRef="x:floatArr">-1.555580   6.997686  -0.784984   0.732040  -1.052595   1.321944</scalar></list><list><scalar dataType="xsd:integer" dictRef="cc:serial">3</scalar><scalar dataType="xsd:string" dictRef="cc:elementType">C</scalar><scalar dataType="xsd:string" dictRef="x:floatArr">0.793507  -0.784984   7.175879  -0.433717   0.248148  -1.052610</scalar></list><list><scalar dataType="xsd:integer" dictRef="cc:serial">4</scalar><scalar dataType="xsd:string" dictRef="cc:elementType">C</scalar><scalar dataType="xsd:string" dictRef="x:floatArr">-1.091221   0.732040  -0.433717   6.150149  -0.433746   0.732059</scalar></list><list><scalar dataType="xsd:integer" dictRef="cc:serial">5</scalar><scalar dataType="xsd:string" dictRef="cc:elementType">C</scalar><scalar dataType="xsd:string" dictRef="x:floatArr">0.793516  -1.052595   0.248148  -0.433746   7.175934  -0.785016</scalar></list><list><scalar dataType="xsd:integer" dictRef="cc:serial">6</scalar><scalar dataType="xsd:string" dictRef="cc:elementType">C</scalar><scalar dataType="xsd:string" dictRef="x:floatArr">-1.555524   1.321944  -1.052610   0.732059  -0.785016   6.997650</scalar></list><list><scalar dataType="xsd:integer" dictRef="cc:serial">7</scalar><scalar dataType="xsd:string" dictRef="cc:elementType">H</scalar><scalar dataType="xsd:string" dictRef="x:floatArr">0.407903  -0.032325   0.010697  -0.001310   0.010698  -0.032335</scalar></list><list><scalar dataType="xsd:integer" dictRef="cc:serial">8</scalar><scalar dataType="xsd:string" dictRef="cc:elementType">H</scalar><scalar dataType="xsd:string" dictRef="x:floatArr">-0.016234   0.415015  -0.048552   0.010784  -0.007545   0.005199</scalar></list><list><scalar dataType="xsd:integer" dictRef="cc:serial">9</scalar><scalar dataType="xsd:string" dictRef="cc:elementType">H</scalar><scalar dataType="xsd:string" dictRef="x:floatArr">0.000917   0.026544   0.344915  -0.011175  -0.013314   0.006856</scalar></list><list><scalar dataType="xsd:integer" dictRef="cc:serial">10</scalar><scalar dataType="xsd:string" dictRef="cc:elementType">Br</scalar><scalar dataType="xsd:string" dictRef="x:floatArr">0.068045   0.005806   0.133622  -0.192349   0.133637   0.005803</scalar></list><list><scalar dataType="xsd:integer" dictRef="cc:serial">11</scalar><scalar dataType="xsd:string" dictRef="cc:elementType">H</scalar><scalar dataType="xsd:string" dictRef="x:floatArr">0.000912   0.006856  -0.013311  -0.011164   0.344904   0.026548</scalar></list><list><scalar dataType="xsd:integer" dictRef="cc:serial">12</scalar><scalar dataType="xsd:string" dictRef="cc:elementType">H</scalar><scalar dataType="xsd:string" dictRef="x:floatArr">-0.016236   0.005197  -0.007543   0.010785  -0.048552   0.415017</scalar></list><list><scalar dataType="xsd:integer" dictRef="cc:serial">13</scalar><scalar dataType="xsd:string" dictRef="cc:elementType">Cl</scalar><scalar dataType="xsd:string" dictRef="x:floatArr">-0.293441   0.077695   0.072897  -0.036385   0.072925   0.077670</scalar></list></list></module><module cmlx:lineCount="14" cmlx:templateRef="cond"><list cmlx:templateRef="serial"><scalar dataType="xsd:string" dictRef="x:intarr">7          8          9         10         11         12</scalar></list><list cmlx:templateRef="row"><list><scalar dataType="xsd:integer" dictRef="cc:serial">1</scalar><scalar dataType="xsd:string" dictRef="cc:elementType">C</scalar><scalar dataType="xsd:string" dictRef="x:floatArr">0.407903  -0.016234   0.000917   0.068045   0.000912  -0.016236</scalar></list><list><scalar dataType="xsd:integer" dictRef="cc:serial">2</scalar><scalar dataType="xsd:string" dictRef="cc:elementType">C</scalar><scalar dataType="xsd:string" dictRef="x:floatArr">-0.032325   0.415015   0.026544   0.005806   0.006856   0.005197</scalar></list><list><scalar dataType="xsd:integer" dictRef="cc:serial">3</scalar><scalar dataType="xsd:string" dictRef="cc:elementType">C</scalar><scalar dataType="xsd:string" dictRef="x:floatArr">0.010697  -0.048552   0.344915   0.133622  -0.013311  -0.007543</scalar></list><list><scalar dataType="xsd:integer" dictRef="cc:serial">4</scalar><scalar dataType="xsd:string" dictRef="cc:elementType">C</scalar><scalar dataType="xsd:string" dictRef="x:floatArr">-0.001310   0.010784  -0.011175  -0.192349  -0.011164   0.010785</scalar></list><list><scalar dataType="xsd:integer" dictRef="cc:serial">5</scalar><scalar dataType="xsd:string" dictRef="cc:elementType">C</scalar><scalar dataType="xsd:string" dictRef="x:floatArr">0.010698  -0.007545  -0.013314   0.133637   0.344904  -0.048552</scalar></list><list><scalar dataType="xsd:integer" dictRef="cc:serial">6</scalar><scalar dataType="xsd:string" dictRef="cc:elementType">C</scalar><scalar dataType="xsd:string" dictRef="x:floatArr">-0.032335   0.005199   0.006856   0.005803   0.026548   0.415017</scalar></list><list><scalar dataType="xsd:integer" dictRef="cc:serial">7</scalar><scalar dataType="xsd:string" dictRef="cc:elementType">H</scalar><scalar dataType="xsd:string" dictRef="x:floatArr">0.476824  -0.007031  -0.000223  -0.000332  -0.000223  -0.007030</scalar></list><list><scalar dataType="xsd:integer" dictRef="cc:serial">8</scalar><scalar dataType="xsd:string" dictRef="cc:elementType">H</scalar><scalar dataType="xsd:string" dictRef="x:floatArr">-0.007031   0.504929  -0.007789  -0.000245   0.000039  -0.000188</scalar></list><list><scalar dataType="xsd:integer" dictRef="cc:serial">9</scalar><scalar dataType="xsd:string" dictRef="cc:elementType">H</scalar><scalar dataType="xsd:string" dictRef="x:floatArr">-0.000223  -0.007789   0.506611  -0.006633  -0.000103   0.000039</scalar></list><list><scalar dataType="xsd:integer" dictRef="cc:serial">10</scalar><scalar dataType="xsd:string" dictRef="cc:elementType">Br</scalar><scalar dataType="xsd:string" dictRef="x:floatArr">-0.000332  -0.000245  -0.006633  34.948234  -0.006632  -0.000245</scalar></list><list><scalar dataType="xsd:integer" dictRef="cc:serial">11</scalar><scalar dataType="xsd:string" dictRef="cc:elementType">H</scalar><scalar dataType="xsd:string" dictRef="x:floatArr">-0.000223   0.000039  -0.000103  -0.006632   0.506608  -0.007788</scalar></list><list><scalar dataType="xsd:integer" dictRef="cc:serial">12</scalar><scalar dataType="xsd:string" dictRef="cc:elementType">H</scalar><scalar dataType="xsd:string" dictRef="x:floatArr">-0.007030  -0.000188   0.000039  -0.000245  -0.007788   0.504921</scalar></list><list><scalar dataType="xsd:integer" dictRef="cc:serial">13</scalar><scalar dataType="xsd:string" dictRef="cc:elementType">Cl</scalar><scalar dataType="xsd:string" dictRef="x:floatArr">-0.023329  -0.000750  -0.001143  -0.001298  -0.001143  -0.000749</scalar></list></list></module><module cmlx:lineCount="2" cmlx:templateRef="cond1"><list cmlx:templateRef="serial"><scalar dataType="xsd:string" dictRef="x:intarr">13</scalar></list><list cmlx:templateRef="row"><list><scalar dataType="xsd:integer" dictRef="cc:serial">1</scalar><scalar dataType="xsd:string" dictRef="cc:elementType">C</scalar><scalar dataType="xsd:string" dictRef="x:floatArr">-0.293441</scalar></list></list></module>     2  C    0.077695     3  C    0.072897     4  C   -0.036385     5  C    0.072925     6  C    0.077670     7  H   -0.023329     8  H   -0.000750     9  H   -0.001143    10  Br  -0.001298    11  H   -0.001143    12  H   -0.000749    13  Cl  17.301148</module><module cmlx:lineCount="93" cmlx:templateRef="mulliken"><module cmlx:lineCount="16" cmlx:templateRef="l601.mullik"><list cmlx:templateRef="title"><scalar dataType="xsd:string" dictRef="g:title">Mulliken atomic charges:</scalar></list><list cmlx:templateRef="serial"><scalar dataType="xsd:integer" dictRef="cc:serial">1</scalar></list><list cmlx:lineCount="13" cmlx:templateRef="row"><array dataType="xsd:integer" dictRef="cc:serial" size="13">1 2 3 4 5 6 7 8 9 10 11 12 13</array><array dataType="xsd:string" dictRef="cc:elementType" size="13">C C C C C C H H H Br H H Cl</array><array dataType="xsd:double" dictRef="x:charge" size="13">0.149012 -0.163299 -0.438948 0.575252 -0.438996 -0.163261 0.198015 0.152368 0.154497 -0.087414 0.154498 0.152372 -0.244096</array></list><list cmlx:templateRef="sum"><list><scalar dataType="xsd:string" dictRef="x:type">Mulliken</scalar><scalar dataType="xsd:double" dictRef="x:charge.sum">0.0</scalar></list></list></module><module cmlx:lineCount="16" cmlx:templateRef="l601.mullik"><list cmlx:templateRef="title"><scalar dataType="xsd:string" dictRef="g:title">Atomic charges with hydrogens summed into heavy atoms:</scalar></list><list cmlx:templateRef="serial"><scalar dataType="xsd:integer" dictRef="cc:serial">1</scalar></list><list cmlx:lineCount="13" cmlx:templateRef="row"><array dataType="xsd:integer" dictRef="cc:serial" size="13">1 2 3 4 5 6 7 8 9 10 11 12 13</array><array dataType="xsd:string" dictRef="cc:elementType" size="13">C C C C C C H H H Br H H Cl</array><array dataType="xsd:double" dictRef="x:charge" size="13">0.347026 -0.010932 -0.28445 0.575252 -0.284497 -0.010888 0.0 0.0 0.0 -0.087414 0.0 0.0 -0.244096</array></list><list cmlx:templateRef="sum"><list><scalar dataType="xsd:string" dictRef="x:type">Mulliken</scalar><scalar dataType="xsd:double" dictRef="x:charge.sum">0.0</scalar></list></list></module>          Atomic-Atomic Spin Densities.              1          2          3          4          5          6     1  C   -0.077887  -0.065236   0.150950  -0.080932   0.150927  -0.065264     2  C   -0.065236   0.300118  -0.156485   0.077076  -0.103194   0.141200     3  C    0.150950  -0.156485   0.017612  -0.051184   0.063748  -0.103215     4  C   -0.080932   0.077076  -0.051184   0.222001  -0.051182   0.077079     5  C    0.150927  -0.103194   0.063748  -0.051182   0.017561  -0.156458     6  C   -0.065264   0.141200  -0.103215   0.077079  -0.156458   0.300176     7  H    0.025263  -0.004776  -0.002449   0.000150  -0.002449  -0.004774     8  H    0.007364  -0.005612   0.002815  -0.001577  -0.000212  -0.001568     9  H    0.001052  -0.000315  -0.000657   0.000056   0.000381  -0.000418    10  Br  -0.006240   0.008503  -0.011692  -0.011689  -0.011688   0.008503    11  H    0.001053  -0.000418   0.000381   0.000056  -0.000658  -0.000315    12  H    0.007365  -0.001568  -0.000212  -0.001578   0.002817  -0.005612    13  Cl   0.000168  -0.065956   0.024146  -0.012058   0.024148  -0.065973              7          8          9         10         11         12     1  C    0.025263   0.007364   0.001052  -0.006240   0.001053   0.007365     2  C   -0.004776  -0.005612  -0.000315   0.008503  -0.000418  -0.001568     3  C   -0.002449   0.002815  -0.000657  -0.011692   0.000381  -0.000212     4  C    0.000150  -0.001577   0.000056  -0.011689   0.000056  -0.001578     5  C   -0.002449  -0.000212   0.000381  -0.011688  -0.000658   0.002817     6  C   -0.004774  -0.001568  -0.000418   0.008503  -0.000315  -0.005612     7  H    0.004898  -0.000367   0.000000   0.000076   0.000000  -0.000367     8  H   -0.000367  -0.008038   0.000065  -0.000044  -0.000003   0.000004     9  H    0.000000   0.000065   0.002434   0.000197   0.000002  -0.000003    10  Br   0.000076  -0.000044   0.000197   0.058976   0.000197  -0.000044    11  H    0.000000  -0.000003   0.000002   0.000197   0.002435   0.000065    12  H   -0.000367   0.000004  -0.000003  -0.000044   0.000065  -0.008039    13  Cl  -0.011362   0.000765  -0.000141  -0.001110  -0.000141   0.000765             13     1  C    0.000168     2  C   -0.065956     3  C    0.024146     4  C   -0.012058     5  C    0.024148     6  C   -0.065973     7  H   -0.011362     8  H    0.000765     9  H   -0.000141    10  Br  -0.001110    11  H   -0.000141    12  H    0.000765    13  Cl   0.747464 Mulliken atomic spin densities:              1     1  C    0.048585     2  C    0.123336     3  C   -0.066241     4  C    0.166219     5  C   -0.066260     6  C    0.123361     7  H    0.003845     8  H   -0.006406     9  H    0.002653    10  Br   0.033945    11  H    0.002654    12  H   -0.006407    13  Cl   0.640715 Sum of Mulliken spin densities=   1.00000<module cmlx:lineCount="1" cmlx:templateRef="l601.spatial"><list cmlx:templateRef="l601.elect"><scalar dataType="xsd:double" dictRef="g:electextent2">2187.8597</scalar></list></module> Charge=     0.0000 electrons</module><module cmlx:lineCount="18" cmlx:templateRef="multipole"><list cmlx:templateRef="dipoletype"><scalar dataType="xsd:string" dictRef="g:dipoletype">field-independent basis, Debye</scalar></list><list cmlx:templateRef="dipole"><list><scalar dataType="xsd:double" dictRef="x:x">2.0009</scalar><scalar dataType="xsd:double" dictRef="x:y">0.0018</scalar><scalar dataType="xsd:double" dictRef="x:z">2.7835</scalar><scalar dataType="xsd:double" dictRef="x:dipole">3.4281</scalar></list></list><list cmlx:templateRef="quadrupoletype"><scalar dataType="xsd:string" dictRef="g:quadpoletype">field-independent basis, Debye-Ang</scalar></list><list cmlx:templateRef="quadrupol"><list><scalar dataType="xsd:double" dictRef="x:x">-76.3044</scalar><scalar dataType="xsd:double" dictRef="x:y">-60.0989</scalar><scalar dataType="xsd:double" dictRef="x:z">-68.9777</scalar></list></list><list cmlx:templateRef="xy"><list><scalar dataType="xsd:double" dictRef="x:x">-0.0053</scalar><scalar dataType="xsd:double" dictRef="x:y">-8.8334</scalar><scalar dataType="xsd:double" dictRef="x:z">-0.0050</scalar></list></list><list cmlx:templateRef="quadrupoletypea"><scalar dataType="xsd:string" dictRef="g:quadpoletype">field-independent basis, Debye-Ang</scalar></list><list cmlx:templateRef="xx"><list><scalar dataType="xsd:double" dictRef="x:x">-7.8441</scalar><scalar dataType="xsd:double" dictRef="x:y">8.3614</scalar><scalar dataType="xsd:double" dictRef="x:z">-0.5174</scalar></list></list><list cmlx:templateRef="xya"><list><scalar dataType="xsd:double" dictRef="x:x">-0.0053</scalar><scalar dataType="xsd:double" dictRef="x:y">-8.8334</scalar><scalar dataType="xsd:double" dictRef="x:z">-0.0050</scalar></list></list><list cmlx:templateRef="octapoletype"><scalar dataType="xsd:string" dictRef="g:octapoletype">field-independent basis, Debye-Ang**2</scalar></list><list cmlx:templateRef="xxx"><list><scalar dataType="xsd:double" dictRef="x:xxx">116.5226</scalar><scalar dataType="xsd:double" dictRef="x:yyy">0.0020</scalar><scalar dataType="xsd:double" dictRef="x:zzz">-16.2456</scalar><scalar dataType="xsd:double" dictRef="x:xyy">19.9203</scalar></list></list><list cmlx:templateRef="xxy"><list><scalar dataType="xsd:double" dictRef="x:xxy">0.0096</scalar><scalar dataType="xsd:double" dictRef="x:xxz">15.6707</scalar><scalar dataType="xsd:double" dictRef="x:xzz">22.2047</scalar><scalar dataType="xsd:double" dictRef="x:xzz">-0.011</scalar></list></list><list cmlx:templateRef="yyz"><list><scalar dataType="xsd:double" dictRef="x:yyz">1.1772</scalar><scalar dataType="xsd:double" dictRef="x:xyz">0.0012</scalar></list></list><list cmlx:templateRef="hexadecapoletype"><scalar dataType="xsd:string" dictRef="g:hexadecapoletype">field-independent basis, Debye-Ang**3</scalar></list><list cmlx:templateRef="xxxx"><list><scalar dataType="xsd:double" dictRef="x:xxxx">-2068.5609</scalar><scalar dataType="xsd:double" dictRef="x:yyyy">-295.4115</scalar><scalar dataType="xsd:double" dictRef="x:zzzz">-319.5024</scalar><scalar dataType="xsd:double" dictRef="x:xxxy">-0.0613</scalar></list></list><list cmlx:templateRef="xxxz"><list><scalar dataType="xsd:double" dictRef="x:xxxz">-97.7048</scalar><scalar dataType="xsd:double" dictRef="x:yyyx">-0.0321</scalar><scalar dataType="xsd:double" dictRef="x:yyyz">-0.027</scalar><scalar dataType="xsd:double" dictRef="x:zzzx">-19.3156</scalar></list></list><list cmlx:templateRef="zzzy"><list><scalar dataType="xsd:double" dictRef="x:zzzy">-0.0012</scalar><scalar dataType="xsd:double" dictRef="x:xxyy">-379.4689</scalar><scalar dataType="xsd:double" dictRef="x:xxzz">-368.6102</scalar><scalar dataType="xsd:double" dictRef="x:yyzz">-110.174</scalar></list></list><list cmlx:templateRef="xzz"><scalar dataType="xsd:string" dictRef="x:xzz">N-N= 5.933375611512D+02 E-N=-8.970189948322D+03  KE= 3.260848294051D+03</scalar></list></module></module><module cmlx:lineCount="49" cmlx:templateRef="l601.fermi"><list cmlx:lineCount="13" cmlx:templateRef="fermi.atom"><array dataType="xsd:integer" dictRef="cc:serial" size="13">1 2 3 4 5 6 7 8 9 10 11 12 13</array><array dataType="xsd:string" dictRef="x:elementType" size="13">C C C C C C H H H Br H H Cl</array><array dataType="xsd:integer" dictRef="x:isotopeNumber" size="13">13 13 13 13 13 13 1 1 1 79 1 1 35</array><array dataType="xsd:double" dictRef="cc:coupling" size="13">0.02488 0.0058 -0.00878 0.01299 -0.00878 0.0058 0.00271 -0.00177 6.2E-4 0.0036 6.2E-4 -0.00177 0.05533</array><array dataType="xsd:double" dictRef="cc:coupling" size="13">27.97282 6.51966 -9.87067 14.59913 -9.87264 6.52378 12.11455 -7.91988 2.77157 4.04289 2.77269 -7.9215 24.262</array><array dataType="xsd:double" dictRef="cc:coupling" size="13">9.9814 2.32638 -3.5221 5.20933 -3.5228 2.32785 4.32277 -2.82601 0.98897 1.4426 0.98937 -2.82659 8.65729</array><array dataType="xsd:double" dictRef="cc:coupling" size="13">9.3307 2.1747 -3.2925 4.8697 -3.2931 2.1761 4.0409 -2.6417 0.9245 1.3485 0.9248 -2.6423 8.0929</array><array dataType="xsd:double" dictRef="cc:coupling" size="13">3.0 2.0 0.0 4.0 6.0 0.0 8.0 9.0 0.0 6.0 7.0 3.0 3.0</array></list><list cmlx:lineCount="13" cmlx:templateRef="fermi.spindipole"><array dataType="xsd:integer" dictRef="cc:serial" size="13">1 2 3 4 5 6 7 8 9 10 11 12 13</array><array dataType="xsd:double" dictRef="g:spindipole.xx" size="13">-0.008443 -0.050253 0.022225 -0.063122 0.022235 -0.050261 6.84E-4 -0.007086 0.001765 -0.223336 0.001767 -0.007086 0.178388</array><array dataType="xsd:double" dictRef="g:spindipole.yy" size="13">-0.060864 -0.06704 0.024746 -0.101501 0.024754 -0.067073 -0.011889 0.009402 9.49E-4 -0.222072 9.45E-4 0.00939 -2.038626</array><array dataType="xsd:double" dictRef="g:spindipole.zz" size="13">0.069308 0.117293 -0.046971 0.164623 -0.046989 0.117334 0.011205 -0.002317 -0.002714 0.445408 -0.002712 -0.002305 1.860238</array></list><list cmlx:lineCount="13" cmlx:templateRef="fermi.spindipole"><array dataType="xsd:integer" dictRef="cc:serial" size="13">1 2 3 4 5 6 7 8 9 10 11 12 13</array><array dataType="xsd:double" dictRef="g:spindipole.xy" size="13">5.3E-5 0.00463 -2.45E-4 4.7E-5 2.17E-4 -0.004553 -6.0E-6 -0.004946 -7.17E-4 1.5E-4 7.17E-4 0.004952 0.001803</array><array dataType="xsd:double" dictRef="g:spindipole.xz" size="13">0.089134 0.068971 -0.024267 0.083578 -0.024275 0.068998 -0.010215 0.003079 -5.52E-4 0.26134 -5.54E-4 0.003073 2.952196</array><array dataType="xsd:double" dictRef="g:spindipole.yz" size="13">8.0E-5 0.006542 8.09E-4 1.53E-4 -8.91E-4 -0.006339 1.5E-5 0.005109 8.88E-4 3.78E-4 -8.92E-4 -0.005125 0.002382</array></list></module><module cmlx:lineCount="57" cmlx:templateRef="l601.anisospin"><module cmlx:lineCount="3" cmlx:templateRef="atom"><matrix rows="3" columns="3" dataType="xsd:double" dictRef="g:axis" cmlx:templateRef="baa">0.8366 -1.0E-4 -0.5478 -2.0E-4 1.0 -5.0E-4 0.5478 5.0E-4 0.8366</matrix><vector3 dictRef="g:coupling.au">-0.0668 -0.0609 0.1277</vector3><vector3 dictRef="g:coupling.mhz">-8.965 -8.167 17.133</vector3><vector3 dictRef="g:coupling.g">-3.199 -2.914 6.113</vector3><vector3 dictRef="g:coupling.ten">-2.991 -2.724 5.715</vector3><scalar dataType="xsd:integer" dictRef="x:serial">1</scalar><scalar dataType="xsd:string" dictRef="x:elementType">C</scalar><scalar dataType="xsd:integer" dictRef="x:isotopeNumber">13</scalar></module> <module cmlx:lineCount="3" cmlx:templateRef="atom"><matrix rows="3" columns="3" dataType="xsd:double" dictRef="g:axis" cmlx:templateRef="baa">0.9138 -0.2524 -0.3183 0.2256 0.9669 -0.1189 0.3377 0.0369 0.9405</matrix><vector3 dictRef="g:coupling.au">-0.0756 -0.0668 0.1423</vector3><vector3 dictRef="g:coupling.mhz">-10.138 -8.959 19.098</vector3><vector3 dictRef="g:coupling.g">-3.618 -3.197 6.815</vector3><vector3 dictRef="g:coupling.ten">-3.382 -2.988 6.37</vector3><scalar dataType="xsd:integer" dictRef="x:serial">2</scalar><scalar dataType="xsd:string" dictRef="x:elementType">C</scalar><scalar dataType="xsd:integer" dictRef="x:isotopeNumber">13</scalar></module> <module cmlx:lineCount="3" cmlx:templateRef="atom"><matrix rows="3" columns="3" dataType="xsd:double" dictRef="g:axis" cmlx:templateRef=
[...]
28 5.87353 5.03104 2.08489 2.09348 2.09347 2.1018 2.08712 2.09415 2.02277 1.68956 2.07581 2.10935 2.09802 2.12593 2.07863 2.07863 2.07581 2.09803 2.10935 2.10181 2.08711 2.09415 2.02279 1.68947 0.80575 0.75379 0.75381 0.02707 -3.13067 3.0073 -0.15043 -0.02706 3.13067 -3.0073 0.15044 -0.01256 3.12789 -3.13795 0.0025 -1.12022 2.02023 1.36583 2.46538 -2.68107 -1.58151 -0.00222 3.14065 3.1405 1.9E-4 0.00222 -3.1405 -3.14065 -1.9E-4 0.01256 3.13794 1.12032 -3.12789 -0.00251 -2.02013 -1.36587 -2.46538 2.68107 1.58156</array><array dataType="xsd:double" dictRef="cc:deriv" size="77">-2.0E-5 -2.0E-5 0.0 -4.0E-5 -1.0E-5 0.0 -1.0E-5 -5.0E-5 -2.0E-5 -5.0E-5 8.0E-5 -1.0E-5 -2.0E-5 0.0 -1.0E-5 -6.0E-5 -1.0E-5 0.0 0.0 1.0E-5 -1.0E-5 0.0 3.0E-5 -2.0E-5 -2.0E-5 2.0E-5 1.0E-5 4.0E-5 -2.0E-5 -2.0E-5 -2.0E-5 1.0E-5 2.0E-5 1.0E-5 -1.0E-5 0.0 3.0E-5 -2.0E-5 -1.0E-5 0.0 0.0 -1.0E-5 0.0 -3.0E-5 -2.0E-5 1.0E-5 0.0 3.0E-5 2.0E-5 0.0 1.0E-5 -1.0E-5 0.0 0.0 1.0E-5 -1.0E-5 -1.0E-5 0.0 1.0E-5 0.0 0.0 0.0 0.0 0.0 0.0 0.0 1.0E-5 0.0 1.0E-5 0.0 -1.0E-5 0.0 -1.0E-5 1.0E-5 1.0E-5 0.0 -1.0E-5</array><array dataType="xsd:double" dictRef="cc:delta.linear" size="77">0.0 0.0 0.0 0.0 0.0 0.0 0.0 0.0 0.0 0.0 0.0 0.0 0.0 0.0 0.0 0.0 0.0 0.0 0.0 0.0 0.0 0.0 0.0 0.0 0.0 0.0 0.0 0.0 0.0 0.0 0.0 0.0 0.0 0.0 0.0 0.0 0.0 0.0 0.0 0.0 0.0 0.0 0.0 0.0 0.0 0.0 0.0 0.0 0.0 0.0 0.0 0.0 0.0 0.0 0.0 0.0 0.0 0.0 0.0 0.0 0.0 0.0 0.0 0.0 0.0 0.0 0.0 0.0 0.0 0.0 0.0 0.0 0.0 0.0 0.0 0.0 0.0</array><array dataType="xsd:double" dictRef="cc:delta.quad" size="77">1.6E-4 1.6E-4 -9.0E-5 -0.00848 -1.1E-4 -1.0E-5 -0.00319 -9.0E-5 -8.0E-5 -7.0E-5 4.7E-4 -1.1E-4 -8.0E-5 -1.0E-5 -0.00286 -0.0112 -1.2E-4 -1.4E-4 -1.3E-4 9.0E-5 -2.4E-4 1.6E-4 0.00384 -0.00163 -1.7E-4 1.2E-4 5.0E-5 2.9E-4 -1.4E-4 -1.5E-4 -1.6E-4 4.0E-5 1.2E-4 8.0E-5 -2.3E-4 1.5E-4 0.00381 -0.00149 4.6E-4 7.5E-4 7.1E-4 -3.1E-4 -3.0E-5 -0.00305 -0.00278 3.1E-4 1.0E-5 0.00305 0.00276 1.8E-4 3.8E-4 -9.0E-5 1.1E-4 0.00109 0.00129 -0.00212 -0.00175 -0.00104 -6.6E-4 -6.0E-5 -3.0E-5 -2.5E-4 -2.2E-4 6.0E-5 2.6E-4 2.0E-5 2.3E-4 -1.8E-4 1.1E-4 -0.00124 -3.9E-4 -1.0E-4 -0.00145 0.00219 0.00174 0.00103 5.8E-4</array><array dataType="xsd:double" dictRef="cc:delta.total" size="77">1.6E-4 1.6E-4 -9.0E-5 -0.00848 -1.1E-4 -1.0E-5 -0.0032 -8.0E-5 -8.0E-5 -7.0E-5 4.7E-4 -1.1E-4 -8.0E-5 -1.0E-5 -0.00286 -0.0112 -1.2E-4 -1.4E-4 -1.3E-4 9.0E-5 -2.4E-4 1.6E-4 0.00384 -0.00163 -1.7E-4 1.2E-4 5.0E-5 2.9E-4 -1.4E-4 -1.5E-4 -1.6E-4 5.0E-5 1.2E-4 8.0E-5 -2.3E-4 1.5E-4 0.00381 -0.00149 4.6E-4 7.5E-4 7.1E-4 -3.1E-4 -3.0E-5 -0.00305 -0.00277 3.0E-4 1.0E-5 0.00305 0.00276 1.8E-4 3.8E-4 -9.0E-5 1.1E-4 0.00109 0.00129 -0.00213 -0.00175 -0.00104 -6.7E-4 -6.0E-5 -3.0E-5 -2.5E-4 -2.2E-4 6.0E-5 2.6E-4 3.0E-5 2.3E-4 -1.8E-4 1.1E-4 -0.00124 -3.9E-4 -1.0E-4 -0.00145 0.0022 0.00174 0.00103 5.8E-4</array><array dataType="xsd:double" dictRef="cc:newval" size="77">2.66661 2.66661 2.04262 4.87286 2.61506 2.04628 5.87055 2.6438 2.04455 2.6438 3.59774 2.61506 2.04455 2.04628 5.87067 5.01984 2.08477 2.09334 2.09333 2.10189 2.08688 2.09431 2.02661 1.68793 2.07564 2.10947 2.09807 2.12622 2.07848 2.07848 2.07564 2.09807 2.10947 2.10189 2.08688 2.09431 2.0266 1.68798 0.80621 0.75453 0.75452 0.02676 -3.1307 3.00425 -0.1532 -0.02676 3.13069 -3.00425 0.15319 -0.01239 3.12827 -3.13805 0.00261 -1.11913 2.02152 1.3637 2.46363 -2.68211 -1.58218 -0.00228 3.14062 3.14025 -3.0E-5 0.00228 -3.14024 -3.14062 4.0E-5 0.01238 3.13805 1.11908 -3.12828 -0.00261 -2.02158 -1.36368 -2.46364 2.6821 1.58214</array></list></module><module cmlx:lineCount="5" cmlx:templateRef="l103.itemconverge"><list cmlx:lineCount="4" cmlx:templateRef="row"><array dataType="xsd:string" dictRef="g:item"/><array dataType="xsd:double" dictRef="g:value" size="4">4.5E-4 3.0E-4 0.0018 0.0012</array><array dataType="xsd:double" dictRef="g:threshold" size="4">0.0 0.0 0.0 0.0</array><array dataType="xsd:string" dictRef="g:converged" size="4">YES YES NO NO</array></list></module><module cmlx:lineCount="1" cmlx:templateRef="preddelta"><list cmlx:templateRef="predicted"><scalar dataType="xsd:double" dictRef="g:predchange">-9.01317E-7</scalar></list></module> GradGradGradGradGradGradGradGradGradGradGradGradGradGradGradGradGradGrad</module><module cmlx:lineCount="167" cmlx:templateRef="l9999.archive"><scalar dataType="xsd:string" dictRef="cc:hostname">GINC-PUBLIX</scalar><scalar dataType="xsd:string" dictRef="g:operation">Freq</scalar><scalar dataType="xsd:string" dictRef="cc:method">UB3LYP</scalar><scalar dataType="xsd:string" dictRef="cc:basis">6-311+G(d,p)</scalar><scalar dataType="xsd:string" dictRef="cc:jobname">NOBODY</scalar><scalar dataType="xsd:date" dictRef="cc:date">2006-09-04T00:00:00Z</scalar><scalar dataType="xsd:string" dictRef="g:keyword">#P</scalar><scalar dataType="xsd:string" dictRef="g:keyword">GEOM=ALLCHECK</scalar><scalar dataType="xsd:string" dictRef="g:keyword">GUESS=READ</scalar><scalar dataType="xsd:string" dictRef="g:keyword">SCRF=CHECK</scalar><scalar dataType="xsd:string" dictRef="g:keyword">GENCHK</scalar><scalar dataType="xsd:string" dictRef="g:keyword">UB3LYP/6-311+G(D,P)</scalar><scalar dataType="xsd:string" dictRef="g:keyword">FREQ</scalar><scalar dataType="xsd:string">bromobz</scalar><scalar dataType="xsd:string">cl complex basis</scalar><molecule id="a13" spinMultiplicity="2" formalCharge="0"><atomArray><atom id="a1" elementType="C" x3="-1.9319812494" y3="-0.444227063" z3="-1.1209164221"><scalar dataType="xsd:integer" dictRef="compchem:atomicNumber">6</scalar></atom><atom id="a2" elementType="C" x3="-1.9319818277" y3="-0.4460152375" z3="0.2901093818"><scalar dataType="xsd:integer" dictRef="compchem:atomicNumber">6</scalar></atom><atom id="a3" elementType="C" x3="-0.7386594341" y3="-0.4463502361" z3="0.9909080385"><scalar dataType="xsd:integer" dictRef="compchem:atomicNumber">6</scalar></atom><atom id="a4" elementType="C" x3="0.4650460948" y3="-0.4602729179" z3="0.2779357357"><scalar dataType="xsd:integer" dictRef="compchem:atomicNumber">6</scalar></atom><atom id="a5" elementType="C" x3="0.4934704871" y3="-0.4764627303" z3="-1.1207589544"><scalar dataType="xsd:integer" dictRef="compchem:atomicNumber">6</scalar></atom><atom id="a6" elementType="C" x3="-0.7037817386" y3="-0.4760279135" z3="-1.8148267199"><scalar dataType="xsd:integer" dictRef="compchem:atomicNumber">6</scalar></atom><atom id="a7" elementType="H" x3="-2.8601199452" y3="-0.5693752667" z3="-1.6606913216"><scalar dataType="xsd:integer" dictRef="compchem:atomicNumber">1</scalar></atom><atom id="a8" elementType="H" x3="-2.873552777" y3="-0.4319329524" z3="0.8247142026"><scalar dataType="xsd:integer" dictRef="compchem:atomicNumber">1</scalar></atom><atom id="a9" elementType="H" x3="-0.7304552408" y3="-0.4349907744" z3="2.0727862869"><scalar dataType="xsd:integer" dictRef="compchem:atomicNumber">1</scalar></atom><atom id="a10" elementType="Br" x3="2.1092236509" y3="-0.4592264498" z3="1.2372812309"><scalar dataType="xsd:integer" dictRef="compchem:atomicNumber">35</scalar></atom><atom id="a11" elementType="H" x3="1.4393615216" y3="-0.4880179768" z3="-1.6459371755"><scalar dataType="xsd:integer" dictRef="compchem:atomicNumber">1</scalar></atom><atom id="a12" elementType="H" x3="-0.7016247516" y3="-0.4849985083" z3="-2.8976338112"><scalar dataType="xsd:integer" dictRef="compchem:atomicNumber">1</scalar></atom><atom id="a13" elementType="Cl" x3="-2.4711241518" y3="2.0575516359" z3="-1.4713404482"><scalar dataType="xsd:integer" dictRef="compchem:atomicNumber">17</scalar></atom></atomArray><formula formalCharge="0" concise="C 6 H 5 Br 1 Cl 1" dictRef="cc:formula.calc"/><bondArray><bond atomRefs2="a1 a2" id="a1_a2" order="2"/><bond atomRefs2="a1 a6" id="a1_a6" order="S"/><bond atomRefs2="a1 a7" id="a1_a7" order="S"/><bond atomRefs2="a2 a3" id="a2_a3" order="S"/><bond atomRefs2="a2 a8" id="a2_a8" order="S"/><bond atomRefs2="a3 a4" id="a3_a4" order="2"/><bond atomRefs2="a3 a9" id="a3_a9" order="S"/><bond atomRefs2="a4 a5" id="a4_a5" order="S"/><bond atomRefs2="a4 a10" id="a4_a10" order="S"/><bond atomRefs2="a5 a6" id="a5_a6" order="2"/><bond atomRefs2="a5 a11" id="a5_a11" order="S"/><bond atomRefs2="a6 a12" id="a6_a12" order="S"/></bondArray><property dictRef="cml:molmass"><scalar dataType="xsd:double" units="unit:dalton" xmlns:unit="http://www.xml-cml.org/unit/si/">192.4609</scalar></property><formula concise="C 6 H 5 Br 1 Cl 1" dictRef="cc:formula.user"/></molecule><scalar dataType="xsd:string" dictRef="cc:version">Sun64-SVR4-Unix-G03RevB.04</scalar><scalar dataType="xsd:string" dictRef="cc:electronicstate">2-A</scalar><scalar dataType="xsd:double" dictRef="cc:hfenergy" units="nonsi:hartree">-3266.0362913</scalar><scalar dataType="xsd:string" dictRef="x:S2">0.759063</scalar><scalar dataType="xsd:string" dictRef="x:S2-1">0.</scalar><scalar dataType="xsd:string" dictRef="x:S2A">0.750059</scalar><scalar dataType="xsd:double" dictRef="cc:rmsd" units="nonsi:unknown">2.712E-9</scalar><scalar dataType="xsd:double" dictRef="cc:rmsf" units="nonsi:unknown">4.569E-5</scalar><array dataType="xsd:double" size="3" dictRef="cc:dipole" units="nonsi:debye">0.3431328 -1.2849917 0.218608</array><array dataType="xsd:double" size="117" dictRef="cc:dipolederiv" units="nonsi:unknown">-0.136374 0.3146916 -0.0602635 0.1863241 -0.2565456 0.1118539 -0.0583009 0.1865881 -0.0774744 0.3345596 -0.1994742 0.0306481 -0.0788873 -0.1021111 0.0032681 0.4043185 -0.5475712 0.2167534 -0.8131305 0.4176365 -0.2100677 -0.0241566 -0.0528232 -0.0028996 -0.0911377 -0.0364065 0.0228249 1.2553489 -0.2748857 0.6234149 0.0110172 -0.0323102 0.0096112 0.6191447 -0.1569213 0.5570604 -0.3069015 0.1690988 -0.3802797 -0.0216176 -0.0471899 -0.0241191 -0.4900906 0.3781831 -0.4891122 0.4242321 -0.5740366 0.3609741 -0.0429663 -0.0938888 -0.0701168 -0.0224292 0.1009833 0.1188822 0.0550109 -0.0390045 -0.0146014 -0.0460905 0.1633235 -0.0280269 -0.0144926 -0.0239491 0.0728971 -0.0028342 -0.0162718 0.0433781 0.027364 0.1077646 0.0051486 0.0232601 0.0196301 0.0383186 0.0818007 0.0093368 -0.0187909 0.0054002 0.1345402 -0.0038222 -0.0094711 0.0098463 -0.0098636 -0.6848507 0.2040312 -0.3858096 0.0071438 -0.0109933 0.0039351 -0.3830445 0.1188099 -0.2537484 4.446E-4 0.0155832 0.0364117 0.0015896 0.1345182 0.0047999 0.0273589 0.0015831 0.071556 0.0572494 0.0094839 -0.0104528 0.018767 0.1073119 0.0186701 0.0092781 -0.026997 -0.0211508 -0.2645554 -0.0361892 -0.0145614 -0.0438876 -0.0515962 -0.0283024 -0.0143936 -0.0237788 -0.2469434</array><array dataType="xsd:double" size="6" dictRef="cc:polarizability" units="nonsi:unknown">155.8994139 -41.4905227 111.993911 36.8728271 -24.4653851 115.5693772</array><scalar dataType="xsd:string" dictRef="cc:pointgroup">C01 [X(C6H5Br1Cl1)]</scalar><array dataType="xsd:double" size="780" dictRef="x:unknown">0.68999911 0.04373425 0.11537268 0.04619026 0.03257056 0.63625328 -0.12150134 -0.00720074 0.02516946 0.73191326 -0.00657474 -0.05624415 0.00101909 -0.00118306 0.13457604 -0.01579285 -0.01584042 -0.30408693 -0.02660558 0.00535993 0.64935283 0.01882655 0.00833798 -0.05513706 -0.28750347 -0.00424246 -0.06602799 0.62718337 0.00105058 0.00692091 -2.5171E-4 2.5816E-4 -0.05902987 -1.412E-4 -0.00475161 0.12502667 -0.03139869 -6.4637E-4 -0.02518386 -0.1323715 1.0292E-4 -0.18791897 0.01913777 0.00630516 0.75120862 -0.0092482 -0.00374463 0.01990246 -0.06582997 0.00307569 -0.02852392 -0.23032941 0.00327157 0.12421387 0.49972238 2.3861E-4 -0.0075672 -3.7044E-4 2.073E-4 0.00551936 5.529E-4 0.00164725 -0.05833735 -0.00201312 -0.00207222 0.11339814 0.01984618 -0.00269689 -0.03164885 0.0271815 -0.0031595 0.056036 0.05655013 -0.00285826 -0.17657032 -0.06145008 0.00580364 0.5691646 -0.05154252 0.00444453 0.00833391 -0.01468878 7.8412E-4 -0.02183186 0.03320532 8.3154E-4 0.02918341 -0.11216343 9.4724E-4 0.05743932 0.73754641 7.0026E-4 0.007068 0.00174613 -2.6694E-4 -0.00298543 -9.6412E-4 0.00127628 0.00594269 -8.945E-5 -4.2882E-4 -0.05830005 -0.00149005 -0.00537413 0.12498879 -0.0152464 0.00858191 0.04503777 -0.02559334 0.00149072 -0.04040514 0.06925055 -3.1054E-4 -0.02244678 -0.01022635 -0.0024828 -0.29478905 -0.04325459 0.00427517 0.64089058 -0.25605861 -0.01356851 0.06038527 0.02663584 0.00153061 0.0561816 -0.05447656 -3.1648E-4 6.763E-4 0.02593312 -0.00138114 -0.08033986 -0.29701642 0.0016656 -0.06072154 0.64656187 0.00228404 -0.0562209 -0.00938762 -9.195E-4 0.00708101 0.0011846 0.00225711 -0.00299682 -9.56E-6 -0.00201708 0.0056272 0.00435229 -0.00174305 -0.05912033 -0.00552878 -0.00181237 0.13465705 0.10110806 -0.00214467 -0.16954667 0.03298202 -0.0024473 -0.02375599 -0.00314016 3.3148E-4 -6.0422E-4 -0.0246619 -6.6316E-4 -0.03583263 -0.12695855 -6.6863E-4 -0.17831169 0.02164666 0.00882951 0.73460943 -0.27042169 -0.03213287 -0.12315748 0.0045586 0.0014176 0.00141082 0.0021543 -7.2872E-4 8.572E-4 -3.22E-4 1.1094E-4 0.00101436 -0.0027575 -5.4193E-4 0.00390853 -0.01825974 -0.00243269 -0.01480005 0.28367417 -0.03385602 -0.03359525 -0.0201117 0.00126881 0.00317787 0.00290262 -9.8632E-4 0.00519827 4.672E-5 4.8409E-4 -4.7668E-4 2.5907E-4 -2.6992E-4 0.00517946 -0.00105138 0.00372303 0.00322516 4.885E-5 0.03094017 0.03316824 -0.12313266 -0.01910562 -0.13013989 -0.02775331 -0.0035397 -0.01067753 0.00113851 -4.1929E-4 -0.00543774 0.00100889 4.198E-5 -0.0014751 0.0036274 -5.9463E-4 -5.0659E-4 0.01427825 0.00298755 0.01209303 0.1312674 0.01840781 0.13427868 0.0046763 7.555E-5 -0.002531 -0.27306694 0.00312053 0.12170374 -0.01793473 4.2283E-4 0.01472812 -0.00239444 1.1847E-4 -0.00276642 1.0024E-4 -2.196E-5 -7.3766E-4 0.00141002 2.108E-5 -7.9098E-4 5.3073E-4 9.53E-6 3.1136E-4 0.28661452 -4.4956E-4 0.00260307 9.4445E-4 0.00352624 -0.03788164 -0.00392891 4.5271E-4 0.00553119 1.6111E-4 -4.074E-4 0.0077567 2.6936E-4 -1.1277E-4 -0.00107775 -2.7358E-4 3.12E-4 0.00540748 7.473E-5 4.3383E-4 -0.00286988 4.1296E-4 -0.00370991 0.02498595 0.02817455 -2.0039E-4 -0.01081974 0.12175457 -0.00170033 -0.12705629 -0.01633832 5.682E-5 0.01143899 -0.00259615 -1.4989E-4 -7.5712E-4 -6.4163E-4 -5.02E-6 -3.7462E-4 -0.00116874 1.7095E-4 -0.0057668 -2.6017E-4 -9.449E-5 9.7217E-4 -0.12963259 0.00230735 0.13193734 -0.00469579 -1.0058E-4 -0.00216963 0.00423272 3.799E-5 -0.02818192 -0.05610838 -3.695E-5 -0.00268841 0.00193502 3.7792E-4 0.02819249 -0.0047751 7.98E-5 0.00203045 -8.7827E-4 6.328E-5 -1.9982E-4 1.378E-4 -3.67E-5 -0.00127359 8.9563E-4 6.46E-6 3.6441E-4 0.0582736 4.7407E-4 0.0078227 3.3476E-4 1.0297E-4 0.00413405 -3.4286E-4 -3.506E-5 -0.03631184 -0.00333336 1.2217E-4 0.00170253 -4.0787E-4 9.658E-5 0.00559953 9.677E-5 -9.337E-5 -0.0010459 5.21E-6 -2.002E-4 3.92E-6 2.4921E-4 -1.3563E-4 -0.00453349 7.752E-5 -2.1093E-4 0.02479907 -0.00256968 -2.419E-4 6.3293E-4 0.00177503 1.522E-5 -0.00997439 6.753E-5 -0.00315112 -0.34315378 -0.00303844 -1.0797E-4 -0.01162567 0.00247135 -6.16E-5 6.8915E-4 8.518E-5 -8.2E-7 6.463E-4 2.2889E-4 4.374E-5 -4.8826E-4 -9.519E-5 8.683E-5 7.5134E-4 0.00173537 0.00349373 0.36170671 -0.00166598 0.00141062 -0.00126117 0.00127079 -3.3789E-4 0.00823743 -0.03758303 -2.7532E-4 -0.02146994 -0.10519328 -3.7019E-4 -0.04283901 -0.01607805 -2.6935E-4 -0.01287602 0.00564853 -3.0358E-4 -7.6106E-4 2.5728E-4 -1.8087E-4 9.55E-6 -9.2015E-4 4.678E-5 -0.00105674 5.3251E-4 3.04E-6 -5.6951E-4 0.15337496 -2.075E-4 -8.4546E-4 -1.0221E-4 -2.376E-5 0.00404317 -1.0988E-4 3.8155E-4 0.00399012 4.044E-5 -4.1603E-4 -0.01919216 -4.2286E-4 -2.438E-4 0.00399262 1.06E-6 -4.4E-6 0.00403949 -1.0662E-4 7.743E-5 -4.6122E-4 5.53E-5 1.758E-5 -2.2029E-4 4.052E-5 -3.501E-5 -0.00188688 4.089E-5 4.604E-4 0.00864071 -0.00123842 8.4169E-4 -2.7302E-4 0.00171093 -1.1614E-4 0.00142805 -7.2717E-4 -1.258E-4 0.00334253 -0.04283732 -3.9572E-4 -0.05675664 -0.03362988 -2.3144E-4 -0.01816596 0.00575969 -4.572E-4 -0.00294538 5.74E-6 -9.553E-5 2.5032E-4 1.1744E-4 3.011E-5 -1.069E-4 7.7646E-4 7.643E-5 0.00115096 0.07227769 5.663E-4 0.07165637 -0.00268311 -2.0821E-4 -0.00369781 2.2722E-4 3.05E-6 -5.4119E-4 0.00129721 1.868E-5 -9.6045E-4 0.0024325 1.219E-5 -0.00331818 -0.27478538 0.00283054 0.12365803 -0.01784589 6.0781E-4 0.01425019 -7.8231E-4 4.581E-5 7.4558E-4 -2.012E-5 -1.384E-5 7.198E-5 2.728E-4 -4.57E-6 -1.1045E-4 0.00109082 -3.733E-5 -8.8455E-4 0.28973105 5.8468E-4 0.00782122 9.836E-5 -7.481E-5 -0.00104559 -6.475E-5 1.5547E-4 0.00559624 -1.8524E-4 2.899E-4 0.00170723 5.338E-5 0.00261399 -0.03631532 -0.00180061 -3.0878E-4 0.00414286 2.5073E-4 1.1215E-4 -5.06E-6 -2.9686E-4 -1.8E-5 -7.8603E-4 -2.89E-6 2.6E-5 4.0545E-4 -1.917E-5 4.094E-5 -0.00188825 2.889E-5 -0.00309805 0.02480144 -0.00331711 -1.23E-4 -0.00137836 -8.2304E-4 7.805E-5 -4.6009E-4 -0.00140286 -1.1638E-4 -0.00537872 0.02791197 -2.5871E-4 -0.01212835 0.12090463 -0.00185841 -0.12447216 -0.01569482 3.8964E-4 0.01209464 -7.5548E-4 -3.468E-5 4.41E-4 6.554E-5 4.39E-6 7.357E-5 0.00135674 -2.6E-6 -4.3172E-4 4.6001E-4 -3.46E-6 5.9443E-4 -0.12907976 0.00194343 0.13024608 0.00392511 4.5441E-4 0.0285865 -0.0048618 3.3728E-4 0.00237679 -8.5439E-4 -2.014E-5 -1.033E-4 -0.00344996 2.429E-5 -0.00200563 0.00364265 -3.2571E-4 -0.02852612 -0.05813643 3.1285E-4 2.8755E-4 8.9265E-4 -1.3387E-4 -4.5669E-4 1.209E-4 -1.263E-5 0.00137643 1.0948E-4 -2.252E-5 -1.17E-6 -7.0505E-4 2.49E-5 -0.00117804 9.0173E-4 -5.911E-5 3.6188E-4 0.05832697 5.396E-4 0.00256985 -0.00147957 4.0469E-4 0.00540109 1.0125E-4 -3.009E-4 -0.00107264 7.281E-5 1.2703E-4 0.00774637 -6.2085E-4 4.4042E-4 0.00553729 3.353E-4 -0.001429 -0.03781965 -0.00146927 5.2869E-4 -0.00286908 2.5425E-4 -1.347E-5 5.4301E-4 -4.655E-5 -1.426E-5 -7.8591E-4 1.35E-6 5.509E-5 -2.2085E-4 3.837E-5 9.18E-6 -0.00453525 7.079E-5 -2.4402E-4 0.02495228 -0.00211182 -7.621E-5 -0.01003633 0.00274646 -2.0552E-4 5.1121E-4 -1.8775E-4 2.158E-5 5.7327E-4 -0.00217315 4.431E-5 3.0817E-4 0.00253207 -2.441E-5 -0.01013874 2.5287E-4 -0.00292114 -0.34204916 9.952E-5 1.2926E-4 6.0916E-4 -2.282E-4 -8.91E-6 -5.2736E-4 -7.66E-6 1.45E-6 -5.626E-5 -2.63E-6 -6.08E-6 -3.2014E-4 -1.0115E-4 -4.275E-5 7.4716E-4 -6.177E-4 0.00277327 0.36025658 3.9017E-4 -0.00150181 -6.1372E-4 -0.00138613 0.00203127 -0.00240507 0.00212323 2.7589E-4 1.9563E-4 -0.00109233 1.3934E-4 0.0024952 -6.8743E-4 6.7635E-4 -0.00166553 -0.00351746 0.00368208 0.00103804 3.3772E-4 -0.00100775 2.293E-4 -1.196E-5 -7.191E-5 -4.762E-5 6.799E-5 -9.654E-5 2.109E-5 -2.935E-5 5.97E-6 -1.5256E-4 1.6347E-4 -2.6439E-4 1.23E-5 8.814E-5 -1.0305E-4 -2.0086E-4 0.00355393 -0.00851827 0.00429454 -0.00501011 0.00390063 -0.00674591 0.01129081 -0.004192 -4.5757E-4 -4.5206E-4 0.00171574 4.1589E-4 9.1852E-4 -0.00241475 -5.095E-4 -0.00333324 0.01168281 -0.00697666 -0.00204086 0.00241559 -0.00967576 0.00154702 1.1339E-4 5.4168E-4 -4.536E-4 -1.5702E-4 9.677E-5 -9.918E-5 -2.7966E-4 9.01E-6 -1.5997E-4 -1.6527E-4 1.0108E-4 -8.905E-5 -3.3574E-4 5.5347E-4 3.1515E-4 -0.00376544 0.01835298 -5.1143E-4 -9.1868E-4 0.00118969 -1.7318E-4 0.00310256 -0.00299277 -0.00318318 6.5923E-4 1.3098E-4 0.00247012 -1.02E-6 -0.00392504 0.00182443 -3.356E-5 0.00299322 -0.00134089 3.9057E-4 -6.3086E-4 1.8072E-4 -4.503E-4 8.076E-5 -1.4417E-4 -7.989E-5 2.3542E-4 6.513E-5 -2.4838E-4 1.5268E-4 -1.4861E-4 6.6E-6 1.4538E-4 -3.223E-5 3.747E-5 5.253E-5 -1.0051E-4 -3.116E-5 1.2244E-4 0.0010938 -0.00243344 0.00244557</array><array dataType="xsd:double" size="39" dictRef="x:unknown">1.103E-5 -8.433E-5 7.41E-6 -4.343E-5 -3.952E-5 1.483E-5 -4.538E-5 2.705E-5 -3.342E-5 1.6849E-4 1.97E-6 9.736E-5 -5.024E-5 2.675E-5 -2.277E-5 -9.52E-6 -4.029E-5 -4.336E-5 -1.065E-5 -3.75E-6 -6.23E-6 4.53E-6 -5.96E-6 1.351E-5 -3.02E-6 8.46E-6 2.42E-5 -6.668E-5 -7.75E-6 -3.861E-5 1.959E-5 8.01E-6 -1.467E-5 1.358E-5 -5.66E-6 -2.54E-6 1.169E-5 1.1502E-4 4.28E-6</array></module> IN THE LONG RUN, DIGGING FOR TRUTH HAS ALWAYS PROVED NOT ONLY  MORE INTERESTING BUT MORE PROFITABLE THAN DIGGING FOR GOLD.                             -- GEORGE R. HARRISON<module cmlx:lineCount="3" cmlx:templateRef="jobcpu"><scalar dictRef="cc:jobtime" dataType="xsd:string">PT30363S</scalar><scalar dataType="xsd:string" dictRef="cc:jobdatetime.end">Mon Sep  4 13:30:09 2006</scalar><scalar dataType="xsd:string" dictRef="cc:program">Gaussian 03</scalar></module></module>
