 Entering Gaussian System, Link 0=/usr/local/Gaussian/g03/g03
 Initial command:
 /usr/local/Gaussian/g03/l1.exe /export/scratch//webmo/3308/Gau-4872.inp -scrdir=/export/scratch//webmo/3308/
 Entering Link 1 = /usr/local/Gaussian/g03/l1.exe PID=      4874.
  
 Copyright (c) 1988,1990,1992,1993,1995,1998,2003, Gaussian, Inc.
                  All Rights Reserved.
  
 This is the Gaussian(R) 03 program.  It is based on the
 the Gaussian(R) 98 system (copyright 1998, Gaussian, Inc.),
 the Gaussian(R) 94 system (copyright 1995, Gaussian, Inc.),
 the Gaussian 92(TM) system (copyright 1992, Gaussian, Inc.),
 the Gaussian 90(TM) system (copyright 1990, Gaussian, Inc.),
 the Gaussian 88(TM) system (copyright 1988, Gaussian, Inc.),
 the Gaussian 86(TM) system (copyright 1986, Carnegie Mellon
 University), and the Gaussian 82(TM) system (copyright 1983,
 Carnegie Mellon University). Gaussian is a federally registered
 trademark of Gaussian, Inc.
  
 This software contains proprietary and confidential information,
 including trade secrets, belonging to Gaussian, Inc.
  
 This software is provided under written license and may be
 used, copied, transmitted, or stored only in accord with that
 written license.
  
 The following legend is applicable only to US Government
 contracts under DFARS:
  
                    RESTRICTED RIGHTS LEGEND
  
 Use, duplication or disclosure by the US Government is subject
 to restrictions as set forth in subparagraph (c)(1)(ii) of the
 Rights in Technical Data and Computer Software clause at DFARS
 252.227-7013.
  
 Gaussian, Inc.
 Carnegie Office Park, Building 6, Pittsburgh, PA 15106 USA
  
 The following legend is applicable only to US Government
 contracts under FAR:
  
                    RESTRICTED RIGHTS LEGEND
  
 Use, reproduction and disclosure by the US Government is subject
 to restrictions as set forth in subparagraph (c) of the
 Commercial Computer Software - Restricted Rights clause at FAR
 52.227-19.
  
 Gaussian, Inc.
 Carnegie Office Park, Building 6, Pittsburgh, PA 15106 USA
  
  
 ---------------------------------------------------------------
 Warning -- This program may not be used in any manner that
 competes with the business of Gaussian, Inc. or will provide
 assistance to any competitor of Gaussian, Inc.  The licensee
 of this program is prohibited from giving any competitor of
 Gaussian, Inc. access to this program.  By using this program,
 the user acknowledges that Gaussian, Inc. is engaged in the
 business of creating and licensing software in the field of
 computational chemistry and represents and warrants to the
 licensee that it is not a competitor of Gaussian, Inc. and that
 it will not use this program in any manner prohibited above.
 ---------------------------------------------------------------
  

 Cite this work as:
 Gaussian 03, Revision B.04,
 M. J. Frisch, G. W. Trucks, H. B. Schlegel, G. E. Scuseria, 
 M. A. Robb, J. R. Cheeseman, J. A. Montgomery, Jr., T. Vreven, 
 K. N. Kudin, J. C. Burant, J. M. Millam, S. S. Iyengar, J. Tomasi, 
 V. Barone, B. Mennucci, M. Cossi, G. Scalmani, N. Rega, 
 G. A. Petersson, H. Nakatsuji, M. Hada, M. Ehara, K. Toyota, 
 R. Fukuda, J. Hasegawa, M. Ishida, T. Nakajima, Y. Honda, O. Kitao, 
 H. Nakai, M. Klene, X. Li, J. E. Knox, H. P. Hratchian, J. B. Cross, 
 C. Adamo, J. Jaramillo, R. Gomperts, R. E. Stratmann, O. Yazyev, 
 A. J. Austin, R. Cammi, C. Pomelli, J. W. Ochterski, P. Y. Ayala, 
 K. Morokuma, G. A. Voth, P. Salvador, J. J. Dannenberg, 
 V. G. Zakrzewski, S. Dapprich, A. D. Daniels, M. C. Strain, 
 O. Farkas, D. K. Malick, A. D. Rabuck, K. Raghavachari, 
 J. B. Foresman, J. V. Ortiz, Q. Cui, A. G. Baboul, S. Clifford, 
 J. Cioslowski, B. B. Stefanov, G. Liu, A. Liashenko, P. Piskorz, 
 I. Komaromi, R. L. Martin, D. J. Fox, T. Keith, M. A. Al-Laham, 
 C. Y. Peng, A. Nanayakkara, M. Challacombe, P. M. W. Gill, 
 B. Johnson, W. Chen, M. W. Wong, C. Gonzalez, and J. A. Pople, 
 Gaussian, Inc., Pittsburgh PA, 2003.
 
 ***************************************************
 Gaussian 03:  Sun64-SVR4-Unix-G03RevB.04 2-Jun-2003
                      2-Sep-2006 
 ***************************************************
 ------------------------------
 #P B3LYP/6-311+G(d,p) OPT FREQ
 ------------------------------
 1/14=-1,18=20,26=3,38=1/1,3;
 2/9=110,17=6,18=5,40=1/2;
 3/5=4,6=6,7=111,11=2,16=1,25=1,30=1,74=-5/1,2,3;
 4//1;
 5/5=2,38=5/2;
 6/7=2,8=2,9=2,10=2,28=1/1;
 7//1,2,3,16;
 1/14=-1,18=20/3(1);
 99//99;
 2/9=110/2;
 3/5=4,6=6,7=111,11=2,16=1,25=1,30=1,74=-5/1,2,3;
 4/5=5,16=3/1;
 5/5=2,38=5/2;
 7//1,2,3,16;
 1/14=-1,18=20/3(-5);
 2/9=110/2;
 6/7=2,8=2,9=2,10=2,19=2,28=1/1;
 99/9=1/99;
 Leave Link    1 at Sat Sep  2 15:22:07 2006, MaxMem=          0 cpu:       0.2
 (Enter /usr/local/Gaussian/g03/l101.exe)
 ------------------------
 bromobz\cl complex basis
 ------------------------
 Symbolic Z-matrix:
 Charge =  0 Multiplicity = 2
 C
 C                    1    B1
 C                    1    B2       2    A1
 C                    1    B3       2    A2       3    D1       0
 C                    1    B4       2    A3       3    D2       0
 C                    1    B5       2    A4       3    D3       0
 H                    1    B6       2    A5       3    D4       0
 H                    1    B7       2    A6       3    D5       0
 H                    1    B8       2    A7       3    D6       0
 Br                   1    B9       2    A8       3    D7       0
 H                    1    B10      2    A9       3    D8       0
 H                    1    B11      2    A10      3    D9       0
 Cl                   1    B12      2    A11      3    D10      0
       Variables:
  A5                  119.95787                  
  D6                   -0.55483                  
  A6                   25.86151                  
  D7                    0.19769                  
  A7                   20.61089                  
  D8                    0.70332                  
  A8                   59.73501                  
  D9                    1.84902                  
  A9                   98.85912                  
  A10                 145.31944                  
  A11                  97.79112                  
  B1                    1.40811                  
  B2                    2.42035                  
  B3                    2.77064                  
  B4                    2.42037                  
  B5                    1.40811                  
  B6                    1.08072                  
  B7                    2.15852                  
  B8                    3.4067                   
  D10                -102.14947                  
  B9                    4.66852                  
  B10                   3.40672                  
  B11                   2.15852                  
  B12                   2.58459                  
  D1                    0.34136                  
  D2                    0.71105                  
  A1                   29.47502                  
  D3                    1.39936                  
  A2                   59.73415                  
  D4                  172.33613                  
  A3                   89.99205                  
  A4                  119.45977                  
  D5                 -179.18726                  
 
                    Isotopes and Nuclear Properties:

  Atom         1           2           3           4           5           6           7           8           9          10
 IAtWgt=          12          12          12          12          12          12           1           1           1          79
 AtmWgt=  12.0000000  12.0000000  12.0000000  12.0000000  12.0000000  12.0000000   1.0078250   1.0078250   1.0078250  78.9183361
 IAtSpn=           0           0           0           0           0           0           1           1           1           3
 AtZEff=   0.0000000   0.0000000   0.0000000   0.0000000   0.0000000   0.0000000   0.0000000   0.0000000   0.0000000   0.0000000
 AtQMom=   0.0000000   0.0000000   0.0000000   0.0000000   0.0000000   0.0000000   0.0000000   0.0000000   0.0000000  29.3000000
 AtGFac=   0.0000000   0.0000000   0.0000000   0.0000000   0.0000000   0.0000000   2.7928460   2.7928460   2.7928460   2.1063990

  Atom        11          12          13
 IAtWgt=           1           1          35
 AtmWgt=   1.0078250   1.0078250  34.9688527
 IAtSpn=           1           1           3
 AtZEff=   0.0000000   0.0000000   0.0000000
 AtQMom=   0.0000000   0.0000000  -8.2490000
 AtGFac=   2.7928460   2.7928460   0.8218740
 Leave Link  101 at Sat Sep  2 15:22:08 2006, MaxMem=    6291456 cpu:       0.2
 (Enter /usr/local/Gaussian/g03/l103.exe)

 GradGradGradGradGradGradGradGradGradGradGradGradGradGradGradGradGradGrad
 Berny optimization.
 Initialization pass.
                           ----------------------------
                           !    Initial Parameters    !
                           ! (Angstroms and Degrees)  !
 --------------------------                            --------------------------
 ! Name  Definition              Value          Derivative Info.                !
 --------------------------------------------------------------------------------
 ! R1    R(1,2)                  1.4081         estimate D2E/DX2                !
 ! R2    R(1,6)                  1.4081         estimate D2E/DX2                !
 ! R3    R(1,7)                  1.0807         estimate D2E/DX2                !
 ! R4    R(1,13)                 2.5846         estimate D2E/DX2                !
 ! R5    R(2,3)                  1.3809         estimate D2E/DX2                !
 ! R6    R(2,8)                  1.0825         estimate D2E/DX2                !
 ! R7    R(2,13)                 3.1064         estimate D2E/DX2                !
 ! R8    R(3,4)                  1.3965         estimate D2E/DX2                !
 ! R9    R(3,9)                  1.0817         estimate D2E/DX2                !
 ! R10   R(4,5)                  1.3965         estimate D2E/DX2                !
 ! R11   R(4,10)                 1.8979         estimate D2E/DX2                !
 ! R12   R(5,6)                  1.3809         estimate D2E/DX2                !
 ! R13   R(5,11)                 1.0817         estimate D2E/DX2                !
 ! R14   R(6,12)                 1.0825         estimate D2E/DX2                !
 ! R15   R(6,13)                 3.1062         estimate D2E/DX2                !
 ! R16   R(7,13)                 2.6636         estimate D2E/DX2                !
 ! A1    A(2,1,6)              119.4598         estimate D2E/DX2                !
 ! A2    A(2,1,7)              119.9579         estimate D2E/DX2                !
 ! A3    A(6,1,7)              119.9575         estimate D2E/DX2                !
 ! A4    A(1,2,3)              120.4096         estimate D2E/DX2                !
 ! A5    A(1,2,8)              119.571          estimate D2E/DX2                !
 ! A6    A(3,2,8)              120.0144         estimate D2E/DX2                !
 ! A7    A(3,2,13)             115.8596         estimate D2E/DX2                !
 ! A8    A(8,2,13)              96.808          estimate D2E/DX2                !
 ! A9    A(2,3,4)              118.9972         estimate D2E/DX2                !
 ! A10   A(2,3,9)              120.8448         estimate D2E/DX2                !
 ! A11   A(4,3,9)              120.158          estimate D2E/DX2                !
 ! A12   A(3,4,5)              121.7125         estimate D2E/DX2                !
 ! A13   A(3,4,10)             119.1432         estimate D2E/DX2                !
 ! A14   A(5,4,10)             119.1443         estimate D2E/DX2                !
 ! A15   A(4,5,6)              118.9961         estimate D2E/DX2                !
 ! A16   A(4,5,11)             120.1587         estimate D2E/DX2                !
 ! A17   A(6,5,11)             120.8451         estimate D2E/DX2                !
 ! A18   A(1,6,5)              120.4099         estimate D2E/DX2                !
 ! A19   A(1,6,12)             119.5706         estimate D2E/DX2                !
 ! A20   A(5,6,12)             120.0146         estimate D2E/DX2                !
 ! A21   A(5,6,13)             115.8614         estimate D2E/DX2                !
 ! A22   A(12,6,13)             96.8016         estimate D2E/DX2                !
 ! A23   A(2,13,6)              46.096          estimate D2E/DX2                !
 ! A24   A(2,13,7)              43.1463         estimate D2E/DX2                !
 ! A25   A(6,13,7)              43.1481         estimate D2E/DX2                !
 ! D1    D(6,1,2,3)              1.3994         estimate D2E/DX2                !
 ! D2    D(6,1,2,8)           -179.4134         estimate D2E/DX2                !
 ! D3    D(7,1,2,3)            172.3361         estimate D2E/DX2                !
 ! D4    D(7,1,2,8)             -8.4766         estimate D2E/DX2                !
 ! D5    D(2,1,6,5)             -1.399          estimate D2E/DX2                !
 ! D6    D(2,1,6,12)           179.4134         estimate D2E/DX2                !
 ! D7    D(7,1,6,5)           -172.3358         estimate D2E/DX2                !
 ! D8    D(7,1,6,12)             8.4766         estimate D2E/DX2                !
 ! D9    D(1,2,3,4)             -0.6688         estimate D2E/DX2                !
 ! D10   D(1,2,3,9)            179.2835         estimate D2E/DX2                !
 ! D11   D(8,2,3,4)           -179.8525         estimate D2E/DX2                !
 ! D12   D(8,2,3,9)              0.0999         estimate D2E/DX2                !
 ! D13   D(13,2,3,4)           -64.2491         estimate D2E/DX2                !
 ! D14   D(13,2,3,9)           115.7033         estimate D2E/DX2                !
 ! D15   D(3,2,13,6)            78.2782         estimate D2E/DX2                !
 ! D16   D(3,2,13,7)           141.2852         estimate D2E/DX2                !
 ! D17   D(8,2,13,6)          -153.574          estimate D2E/DX2                !
 ! D18   D(8,2,13,7)           -90.567          estimate D2E/DX2                !
 ! D19   D(2,3,4,5)             -0.0754         estimate D2E/DX2                !
 ! D20   D(2,3,4,10)           179.9861         estimate D2E/DX2                !
 ! D21   D(9,3,4,5)            179.9719         estimate D2E/DX2                !
 ! D22   D(9,3,4,10)             0.0335         estimate D2E/DX2                !
 ! D23   D(3,4,5,6)              0.0758         estimate D2E/DX2                !
 ! D24   D(3,4,5,11)          -179.9726         estimate D2E/DX2                !
 ! D25   D(10,4,5,6)          -179.9858         estimate D2E/DX2                !
 ! D26   D(10,4,5,11)           -0.0341         estimate D2E/DX2                !
 ! D27   D(4,5,6,1)              0.6681         estimate D2E/DX2                !
 ! D28   D(4,5,6,12)           179.852          estimate D2E/DX2                !
 ! D29   D(4,5,6,13)            64.2559         estimate D2E/DX2                !
 ! D30   D(11,5,6,1)          -179.2833         estimate D2E/DX2                !
 ! D31   D(11,5,6,12)           -0.0993         estimate D2E/DX2                !
 ! D32   D(11,5,6,13)         -115.6954         estimate D2E/DX2                !
 ! D33   D(5,6,13,2)           -78.2815         estimate D2E/DX2                !
 ! D34   D(5,6,13,7)          -141.2848         estimate D2E/DX2                !
 ! D35   D(12,6,13,2)          153.574          estimate D2E/DX2                !
 ! D36   D(12,6,13,7)           90.5707         estimate D2E/DX2                !
 --------------------------------------------------------------------------------
 Trust Radius=3.00D-01 FncErr=1.00D-07 GrdErr=1.00D-06
 Number of steps in this run=  87 maximum allowed number of steps= 100.
 GradGradGradGradGradGradGradGradGradGradGradGradGradGradGradGradGradGrad

 Leave Link  103 at Sat Sep  2 15:22:08 2006, MaxMem=    6291456 cpu:       0.0
 (Enter /usr/local/Gaussian/g03/l202.exe)
                          Input orientation:                          
 ---------------------------------------------------------------------
 Center     Atomic     Atomic              Coordinates (Angstroms)
 Number     Number      Type              X           Y           Z
 ---------------------------------------------------------------------
    1          6             0        0.000000    0.000000    0.000000
    2          6             0        0.000000    0.000000    1.408107
    3          6             0        1.190918    0.000000    2.107083
    4          6             0        2.392952   -0.014257    1.396441
    5          6             0        2.420180   -0.030037    0.000336
    6          6             0        1.225677   -0.029941   -0.692526
    7          1             0       -0.927968   -0.124870   -0.539674
    8          1             0       -0.941446    0.013355    1.942347
    9          1             0        1.199170    0.011613    3.188647
   10         35             0        4.032195   -0.013913    2.352934
   11          1             0        3.365823   -0.041319   -0.524653
   12          1             0        1.227558   -0.039629   -1.775029
   13         17             0       -0.538939    2.503379   -0.350373
 ---------------------------------------------------------------------
                    Distance matrix (angstroms):
                    1          2          3          4          5
     1  C    0.000000
     2  C    1.408107   0.000000
     3  C    2.420348   1.380888   0.000000
     4  C    2.770644   2.393023   1.396461   0.000000
     5  C    2.420367   2.799999   2.439338   1.396459   0.000000
     6  C    1.408109   2.432249   2.799984   2.393023   1.380904
     7  H    1.080724   2.161149   3.392726   3.845684   3.392742
     8  H    2.158520   1.082549   2.138760   3.378904   3.882502
     9  H    3.406701   2.146734   1.081658   2.153553   3.414371
    10  Br   4.668521   4.141435   2.851928   1.897892   2.851941
    11  H    3.406719   3.881499   3.414375   2.153558   1.081657
    12  H    2.158518   3.411866   3.882488   3.378907   2.138776
    13  Cl   2.584593   3.106382   3.911317   4.240971   3.911212
                    6          7          8          9         10
     6  C    0.000000
     7  H    2.161148   0.000000
     8  H    3.411869   2.485903   0.000000
     9  H    3.881486   4.294615   2.476995   0.000000
    10  Br   4.141452   5.743057   4.990634   2.953828   0.000000
    11  H    2.146750   4.294630   4.964036   4.299511   2.953864
    12  H    1.082549   2.485892   4.304216   4.964022   4.990664
    13  Cl   3.106227   2.663620   3.408635   4.664181   5.877064
                   11         12         13
    11  H    0.000000
    12  H    2.477018   0.000000
    13  Cl   4.664014   3.408379   0.000000
 Stoichiometry    C6H5BrCl(2)
 Framework group  C1[X(C6H5BrCl)]
 Deg. of freedom    33
 Full point group                 C1      NOp   1
 Largest Abelian subgroup         C1      NOp   1
 Largest concise Abelian subgroup C1      NOp   1
                         Standard orientation:                         
 ---------------------------------------------------------------------
 Center     Atomic     Atomic              Coordinates (Angstroms)
 Number     Number      Type              X           Y           Z
 ---------------------------------------------------------------------
    1          6             0       -1.983224    0.000734    1.109819
    2          6             0       -1.303375    1.216717    0.904986
    3          6             0        0.010514    1.219969    0.480089
    4          6             0        0.657326    0.000160    0.270792
    5          6             0        0.010451   -1.219369    0.481502
    6          6             0       -1.303455   -1.215532    0.906392
    7          1             0       -2.966188    0.001023    1.558980
    8          1             0       -1.821426    2.152815    1.070078
    9          1             0        0.535897    2.149939    0.309470
   10         35             0        2.463016   -0.000208   -0.313570
   11          1             0        0.535771   -2.149571    0.311953
   12          1             0       -1.821576   -2.151400    1.072566
   13         17             0       -3.364556   -0.000682   -1.074681
 ---------------------------------------------------------------------
 Rotational constants (GHZ):      2.7546568      0.4719990      0.4703441
 Leave Link  202 at Sat Sep  2 15:22:10 2006, MaxMem=    6291456 cpu:       0.5
 (Enter /usr/local/Gaussian/g03/l301.exe)
 Standard basis: 6-311+G(d,p) (5D, 7F)
 There are   240 symmetry adapted basis functions of A   symmetry.
 Integral buffers will be    131072 words long.
 Raffenetti 2 integral format.
 Two-electron integral symmetry is turned on.
   240 basis functions,   403 primitive gaussians,   250 cartesian basis functions
    47 alpha electrons       46 beta electrons
       nuclear repulsion energy       593.3375611512 Hartrees.
 IExCor= 402 DFT=T Ex=B+HF Corr=LYP ExCW=0 ScaHFX=  0.200000
 ScaDFX=  0.800000  0.720000  1.000000  0.810000
 IRadAn=      0 IRanWt=     -1 IRanGd=            0 ICorTp=0
 NAtoms=   13 NActive=   13 NUniq=   13 SFac= 1.00D+00 NAtFMM=   60 Big=F
 Leave Link  301 at Sat Sep  2 15:22:11 2006, MaxMem=    6291456 cpu:       0.1
 (Enter /usr/local/Gaussian/g03/l302.exe)
 NPDir=0 NMtPBC=     1 NCelOv=     1 NCel=       1 NClECP=     1 NCelD=      1
         NCelK=      1 NCelE2=     1 NClLst=     1 CellRange=     0.0.
 One-electron integrals computed using PRISM.
 NBasis=   240 RedAO= T  NBF=   240
 NBsUse=   240 1.00D-06 NBFU=   240
 Precomputing XC quadrature grid using
 IXCGrd= 2 IRadAn=           0 IRanWt=          -1 IRanGd=           0.
 NRdTot=     835 NPtTot=      109574 NUsed=      115472 NTot=      115504
 NSgBfM=   244   244   244   244.
 Leave Link  302 at Sat Sep  2 15:22:22 2006, MaxMem=    6291456 cpu:       2.8
 (Enter /usr/local/Gaussian/g03/l303.exe)
 DipDrv:  MaxL=1.
 Leave Link  303 at Sat Sep  2 15:22:23 2006, MaxMem=    6291456 cpu:       0.2
 (Enter /usr/local/Gaussian/g03/l401.exe)
 Harris functional with IExCor=  402 diagonalized for initial guess.
 ExpMin= 3.50D-02 ExpMax= 4.40D+05 ExpMxC= 1.51D+04 IAcc=3 IRadAn=         5 AccDes= 0.00D+00
 HarFok:  IExCor= 402 AccDes= 0.00D+00 IRadAn=         5 IDoV=1
 ScaDFX=  1.000000  1.000000  1.000000  1.000000
 Harris En= -3266.13027132914    
 Initial guess orbital symmetries:
 Alpha Orbitals:
       Occupied  (A) (A) (A) (A) (A) (A) (A) (A) (A) (A) (A) (A)
                 (A) (A) (A) (A) (A) (A) (A) (A) (A) (A) (A) (A)
                 (A) (A) (A) (A) (A) (A) (A) (A) (A) (A) (A) (A)
                 (A) (A) (A) (A) (A) (A) (A) (A) (A) (A) (A)
       Virtual   (A) (A) (A) (A) (A) (A) (A) (A) (A) (A) (A) (A)
                 (A) (A) (A) (A) (A) (A) (A) (A) (A) (A) (A) (A)
                 (A) (A) (A) (A) (A) (A) (A) (A) (A) (A) (A) (A)
                 (A) (A) (A) (A) (A) (A) (A) (A) (A) (A) (A) (A)
                 (A) (A) (A) (A) (A) (A) (A) (A) (A) (A) (A) (A)
                 (A) (A) (A) (A) (A) (A) (A) (A) (A) (A) (A) (A)
                 (A) (A) (A) (A) (A) (A) (A) (A) (A) (A) (A) (A)
                 (A) (A) (A) (A) (A) (A) (A) (A) (A) (A) (A) (A)
                 (A) (A) (A) (A) (A) (A) (A) (A) (A) (A) (A) (A)
                 (A) (A) (A) (A) (A) (A) (A) (A) (A) (A) (A) (A)
                 (A) (A) (A) (A) (A) (A) (A) (A) (A) (A) (A) (A)
                 (A) (A) (A) (A) (A) (A) (A) (A) (A) (A) (A) (A)
                 (A) (A) (A) (A) (A) (A) (A) (A) (A) (A) (A) (A)
                 (A) (A) (A) (A) (A) (A) (A) (A) (A) (A) (A) (A)
                 (A) (A) (A) (A) (A) (A) (A) (A) (A) (A) (A) (A)
                 (A) (A) (A) (A) (A) (A) (A) (A) (A) (A) (A) (A)
                 (A)
 Beta  Orbitals:
       Occupied  (A) (A) (A) (A) (A) (A) (A) (A) (A) (A) (A) (A)
                 (A) (A) (A) (A) (A) (A) (A) (A) (A) (A) (A) (A)
                 (A) (A) (A) (A) (A) (A) (A) (A) (A) (A) (A) (A)
                 (A) (A) (A) (A) (A) (A) (A) (A) (A) (A)
       Virtual   (A) (A) (A) (A) (A) (A) (A) (A) (A) (A) (A) (A)
                 (A) (A) (A) (A) (A) (A) (A) (A) (A) (A) (A) (A)
                 (A) (A) (A) (A) (A) (A) (A) (A) (A) (A) (A) (A)
                 (A) (A) (A) (A) (A) (A) (A) (A) (A) (A) (A) (A)
                 (A) (A) (A) (A) (A) (A) (A) (A) (A) (A) (A) (A)
                 (A) (A) (A) (A) (A) (A) (A) (A) (A) (A) (A) (A)
                 (A) (A) (A) (A) (A) (A) (A) (A) (A) (A) (A) (A)
                 (A) (A) (A) (A) (A) (A) (A) (A) (A) (A) (A) (A)
                 (A) (A) (A) (A) (A) (A) (A) (A) (A) (A) (A) (A)
                 (A) (A) (A) (A) (A) (A) (A) (A) (A) (A) (A) (A)
                 (A) (A) (A) (A) (A) (A) (A) (A) (A) (A) (A) (A)
                 (A) (A) (A) (A) (A) (A) (A) (A) (A) (A) (A) (A)
                 (A) (A) (A) (A) (A) (A) (A) (A) (A) (A) (A) (A)
                 (A) (A) (A) (A) (A) (A) (A) (A) (A) (A) (A) (A)
                 (A) (A) (A) (A) (A) (A) (A) (A) (A) (A) (A) (A)
                 (A) (A) (A) (A) (A) (A) (A) (A) (A) (A) (A) (A)
                 (A) (A)
 The electronic state of the initial guess is 2-A.
 <S**2> of initial guess= 0.7500
 Leave Link  401 at Sat Sep  2 15:27:16 2006, MaxMem=    6291456 cpu:      81.4
 (Enter /usr/local/Gaussian/g03/l502.exe)
 UHF open shell SCF:
 Requested convergence on RMS density matrix=1.00D-08 within 128 cycles.
 Requested convergence on MAX density matrix=1.00D-06.
 Requested convergence on             energy=1.00D-06.
 No special actions if energy rises.
 Using DIIS extrapolation, IDIIS=  1040.
 Integral symmetry usage will be decided dynamically.
       115471 words used for storage of precomputed grid.
 IEnd=    354308 IEndB=    354308 NGot=   6291456 MDV=   6016539
 LenX=   6016539
 Fock matrices will be formed incrementally for  20 cycles.

 Cycle   1  Pass 1  IDiag  1:
 Petite list used in FoFDir.
 MinBra= 0 MaxBra= 2 Meth= 1.
 IRaf=       0 NMat=   1 IRICut=       1 DoRegI=T DoRafI=F ISym2E= 1 JSym2E=1.
 E= -3265.68663462977    
 DIIS: error= 3.30D-02 at cycle   1 NSaved=   1.
 NSaved= 1 IEnMin= 1 EnMin= -3265.68663462977     IErMin= 1 ErrMin= 3.30D-02
 ErrMax= 3.30D-02 EMaxC= 1.00D-01 BMatC= 1.42D+00 BMatP= 1.42D+00
 IDIUse=3 WtCom= 6.70D-01 WtEn= 3.30D-01
 Coeff-Com:  0.100D+01
 Coeff-En:   0.100D+01
 Coeff:      0.100D+01
 Gap=     0.392 Goal=   None    Shift=    0.000
 Gap=     0.283 Goal=   None    Shift=    0.000
 GapD=    0.283 DampG=1.000 DampE=0.500 DampFc=0.5000 IDamp=-1.
 Damping current iteration by 5.00D-01
 RMSDP=3.39D-02 MaxDP=4.17D+00              OVMax= 9.44D-01

 Cycle   2  Pass 1  IDiag  1:
 RMSU=  1.65D-02    CP:  1.12D+00
 E= -3265.63100831701     Delta-E=        0.055626312762 Rises=F Damp=T
 DIIS: error= 1.85D-02 at cycle   2 NSaved=   2.
 NSaved= 2 IEnMin= 1 EnMin= -3265.68663462977     IErMin= 2 ErrMin= 1.85D-02
 ErrMax= 1.85D-02 EMaxC= 1.00D-01 BMatC= 3.73D-01 BMatP= 1.42D+00
 IDIUse=3 WtCom= 8.15D-01 WtEn= 1.85D-01
 Coeff-Com:  0.261D+00 0.739D+00
 Coeff-En:   0.557D+00 0.443D+00
 Coeff:      0.316D+00 0.684D+00
 Gap=    -0.241 Goal=   None    Shift=    0.000
 Gap=     0.322 Goal=   None    Shift=    0.000
 RMSDP=1.75D-02 MaxDP=1.91D+00 DE= 5.56D-02 OVMax= 7.00D-01

 Cycle   3  Pass 1  IDiag  1:
 RMSU=  4.15D-03    CP:  9.70D-01  1.29D-02
 E= -3265.85662096875     Delta-E=       -0.225612651742 Rises=F Damp=F
 DIIS: error= 2.71D-02 at cycle   3 NSaved=   3.
 NSaved= 3 IEnMin= 3 EnMin= -3265.85662096875     IErMin= 2 ErrMin= 1.85D-02
 ErrMax= 2.71D-02 EMaxC= 1.00D-01 BMatC= 4.43D-01 BMatP= 3.73D-01
 IDIUse=2 WtCom= 0.00D+00 WtEn= 1.00D+00
 EnCoef did     2 forward-backward iterations
 Coeff-En:   0.937D-01 0.183D+00 0.723D+00
 Coeff:      0.937D-01 0.183D+00 0.723D+00
 Gap=     0.211 Goal=   None    Shift=    0.000
 Gap=     0.074 Goal=   None    Shift=    0.000
 RMSDP=1.12D-02 MaxDP=9.41D-01 DE=-2.26D-01 OVMax= 7.41D-01

 Cycle   4  Pass 1  IDiag  1:
 RMSU=  9.78D-03    CP:  1.07D+00  1.69D-01  2.17D-01
 E= -3265.47418737062     Delta-E=        0.382433598131 Rises=F Damp=F
 DIIS: error= 7.38D-02 at cycle   4 NSaved=   4.
 NSaved= 4 IEnMin= 3 EnMin= -3265.85662096875     IErMin= 2 ErrMin= 1.85D-02
 ErrMax= 7.38D-02 EMaxC= 1.00D-01 BMatC= 1.67D+00 BMatP= 3.73D-01
 IDIUse=2 WtCom= 0.00D+00 WtEn= 1.00D+00
 Coeff-En:   0.000D+00 0.000D+00 0.697D+00 0.303D+00
 Coeff:      0.000D+00 0.000D+00 0.697D+00 0.303D+00
 Gap=     0.173 Goal=   None    Shift=    0.000
 Gap=     0.064 Goal=   None    Shift=    0.000
 RMSDP=7.76D-03 MaxDP=7.75D-01 DE= 3.82D-01 OVMax= 4.32D-01

 Cycle   5  Pass 1  IDiag  1:
 RMSU=  2.97D-03    CP:  1.01D+00  8.84D-02  6.81D-01  3.46D-01
 E= -3266.00681487282     Delta-E=       -0.532627502200 Rises=F Damp=F
 DIIS: error= 1.52D-02 at cycle   5 NSaved=   5.
 NSaved= 5 IEnMin= 5 EnMin= -3266.00681487282     IErMin= 5 ErrMin= 1.52D-02
 ErrMax= 1.52D-02 EMaxC= 1.00D-01 BMatC= 8.24D-02 BMatP= 3.73D-01
 IDIUse=3 WtCom= 8.48D-01 WtEn= 1.52D-01
 Coeff-Com:  0.202D-01-0.244D-01 0.232D+00-0.577D-01 0.830D+00
 Coeff-En:   0.000D+00 0.000D+00 0.183D+00 0.000D+00 0.817D+00
 Coeff:      0.171D-01-0.207D-01 0.224D+00-0.489D-01 0.828D+00
 Gap=     0.205 Goal=   None    Shift=    0.000
 Gap=     0.083 Goal=   None    Shift=    0.000
 RMSDP=2.22D-03 MaxDP=1.52D-01 DE=-5.33D-01 OVMax= 8.82D-02

 Cycle   6  Pass 1  IDiag  1:
 RMSU=  1.52D-03    CP:  9.81D-01  3.70D-02  7.99D-01  2.75D-01  7.79D-01
 E= -3266.03376262716     Delta-E=       -0.026947754338 Rises=F Damp=F
 DIIS: error= 3.17D-03 at cycle   6 NSaved=   6.
 NSaved= 6 IEnMin= 6 EnMin= -3266.03376262716     IErMin= 6 ErrMin= 3.17D-03
 ErrMax= 3.17D-03 EMaxC= 1.00D-01 BMatC= 6.63D-03 BMatP= 8.24D-02
 IDIUse=3 WtCom= 9.68D-01 WtEn= 3.17D-02
 Coeff-Com:  0.714D-02-0.115D-01 0.121D+00-0.448D-01 0.448D+00 0.480D+00
 Coeff-En:   0.000D+00 0.000D+00 0.000D+00 0.000D+00 0.000D+00 0.100D+01
 Coeff:      0.691D-02-0.111D-01 0.117D+00-0.433D-01 0.434D+00 0.496D+00
 Gap=     0.203 Goal=   None    Shift=    0.000
 Gap=     0.090 Goal=   None    Shift=    0.000
 RMSDP=8.66D-04 MaxDP=4.60D-02 DE=-2.69D-02 OVMax= 2.75D-02

 Cycle   7  Pass 1  IDiag  1:
 RMSU=  7.20D-04    CP:  9.89D-01  4.40D-02  7.49D-01  2.49D-01  7.57D-01
                    CP:  8.80D-01
 E= -3266.03545666619     Delta-E=       -0.001694039031 Rises=F Damp=F
 DIIS: error= 3.00D-03 at cycle   7 NSaved=   7.
 NSaved= 7 IEnMin= 7 EnMin= -3266.03545666619     IErMin= 7 ErrMin= 3.00D-03
 ErrMax= 3.00D-03 EMaxC= 1.00D-01 BMatC= 2.03D-03 BMatP= 6.63D-03
 IDIUse=3 WtCom= 9.70D-01 WtEn= 3.00D-02
 Coeff-Com:  0.145D-02 0.582D-02 0.254D-01-0.101D-01-0.161D-01 0.253D+00
 Coeff-Com:  0.740D+00
 Coeff-En:   0.000D+00 0.000D+00 0.000D+00 0.000D+00 0.000D+00 0.370D-01
 Coeff-En:   0.963D+00
 Coeff:      0.140D-02 0.565D-02 0.247D-01-0.982D-02-0.156D-01 0.247D+00
 Coeff:      0.747D+00
 Gap=     0.204 Goal=   None    Shift=    0.000
 Gap=     0.092 Goal=   None    Shift=    0.000
 RMSDP=3.62D-04 MaxDP=1.54D-02 DE=-1.69D-03 OVMax= 1.29D-02

 Cycle   8  Pass 1  IDiag  1:
 RMSU=  2.56D-04    CP:  9.88D-01  4.60D-02  7.51D-01  2.28D-01  7.67D-01
                    CP:  8.46D-01  1.19D+00
 E= -3266.03610143847     Delta-E=       -0.000644772278 Rises=F Damp=F
 DIIS: error= 6.10D-04 at cycle   8 NSaved=   8.
 NSaved= 8 IEnMin= 8 EnMin= -3266.03610143847     IErMin= 8 ErrMin= 6.10D-04
 ErrMax= 6.10D-04 EMaxC= 1.00D-01 BMatC= 2.99D-04 BMatP= 2.03D-03
 IDIUse=3 WtCom= 9.94D-01 WtEn= 6.10D-03
 Coeff-Com:  0.112D-03 0.233D-02-0.590D-02 0.280D-02-0.841D-01 0.662D-01
 Coeff-Com:  0.418D+00 0.600D+00
 Coeff-En:   0.000D+00 0.000D+00 0.000D+00 0.000D+00 0.000D+00 0.000D+00
 Coeff-En:   0.000D+00 0.100D+01
 Coeff:      0.111D-03 0.231D-02-0.587D-02 0.278D-02-0.836D-01 0.658D-01
 Coeff:      0.416D+00 0.603D+00
 Gap=     0.204 Goal=   None    Shift=    0.000
 Gap=     0.094 Goal=   None    Shift=    0.000
 RMSDP=1.75D-04 MaxDP=8.78D-03 DE=-6.45D-04 OVMax= 5.94D-03

 Cycle   9  Pass 1  IDiag  1:
 RMSU=  8.58D-05    CP:  9.88D-01  4.46D-02  7.45D-01  2.22D-01  7.49D-01
                    CP:  8.82D-01  1.34D+00  8.81D-01
 E= -3266.03618920765     Delta-E=       -0.000087769180 Rises=F Damp=F
 DIIS: error= 2.96D-04 at cycle   9 NSaved=   9.
 NSaved= 9 IEnMin= 9 EnMin= -3266.03618920765     IErMin= 9 ErrMin= 2.96D-04
 ErrMax= 2.96D-04 EMaxC= 1.00D-01 BMatC= 4.05D-05 BMatP= 2.99D-04
 IDIUse=3 WtCom= 9.97D-01 WtEn= 2.96D-03
 Coeff-Com:  0.155D-03-0.416D-03-0.721D-02 0.263D-02-0.296D-01 0.161D-01
 Coeff-Com:  0.652D-01 0.223D+00 0.730D+00
 Coeff-En:   0.000D+00 0.000D+00 0.000D+00 0.000D+00 0.000D+00 0.000D+00
 Coeff-En:   0.000D+00 0.000D+00 0.100D+01
 Coeff:      0.155D-03-0.415D-03-0.719D-02 0.262D-02-0.295D-01 0.161D-01
 Coeff:      0.650D-01 0.223D+00 0.731D+00
 Gap=     0.204 Goal=   None    Shift=    0.000
 Gap=     0.094 Goal=   None    Shift=    0.000
 RMSDP=8.13D-05 MaxDP=5.87D-03 DE=-8.78D-05 OVMax= 5.15D-03

 Cycle  10  Pass 1  IDiag  1:
 RMSU=  5.39D-05    CP:  9.88D-01  4.38D-02  7.45D-01  2.24D-01  7.41D-01
                    CP:  8.97D-01  1.31D+00  8.52D-01  1.45D+00
 E= -3266.03621571005     Delta-E=       -0.000026502401 Rises=F Damp=F
 DIIS: error= 1.75D-04 at cycle  10 NSaved=  10.
 NSaved=10 IEnMin=10 EnMin= -3266.03621571005     IErMin=10 ErrMin= 1.75D-04
 ErrMax= 1.75D-04 EMaxC= 1.00D-01 BMatC= 8.26D-06 BMatP= 4.05D-05
 IDIUse=3 WtCom= 9.98D-01 WtEn= 1.75D-03
 Coeff-Com: -0.284D-03 0.385D-03-0.130D-02-0.142D-04 0.110D-01-0.948D-02
 Coeff-Com: -0.778D-01-0.618D-01 0.897D-01 0.105D+01
 Coeff-En:   0.000D+00 0.000D+00 0.000D+00 0.000D+00 0.000D+00 0.000D+00
 Coeff-En:   0.000D+00 0.000D+00 0.000D+00 0.100D+01
 Coeff:     -0.284D-03 0.384D-03-0.130D-02-0.142D-04 0.110D-01-0.947D-02
 Coeff:     -0.776D-01-0.617D-01 0.895D-01 0.105D+01
 Gap=     0.204 Goal=   None    Shift=    0.000
 Gap=     0.094 Goal=   None    Shift=    0.000
 RMSDP=5.13D-05 MaxDP=2.41D-03 DE=-2.65D-05 OVMax= 3.81D-03

 Cycle  11  Pass 1  IDiag  1:
 RMSU=  1.97D-05    CP:  9.88D-01  4.40D-02  7.44D-01  2.23D-01  7.40D-01
                    CP:  8.84D-01  1.32D+00  8.85D-01  1.81D+00  1.47D+00
 E= -3266.03622822690     Delta-E=       -0.000012516844 Rises=F Damp=F
 DIIS: error= 1.21D-04 at cycle  11 NSaved=  11.
 NSaved=11 IEnMin=11 EnMin= -3266.03622822690     IErMin=11 ErrMin= 1.21D-04
 ErrMax= 1.21D-04 EMaxC= 1.00D-01 BMatC= 4.27D-06 BMatP= 8.26D-06
 IDIUse=3 WtCom= 9.99D-01 WtEn= 1.21D-03
 Coeff-Com: -0.283D-03 0.328D-03 0.206D-02-0.116D-02 0.186D-01-0.148D-01
 Coeff-Com: -0.728D-01-0.110D+00-0.202D+00 0.595D+00 0.786D+00
 Coeff-En:   0.000D+00 0.000D+00 0.000D+00 0.000D+00 0.000D+00 0.000D+00
 Coeff-En:   0.000D+00 0.000D+00 0.000D+00 0.000D+00 0.100D+01
 Coeff:     -0.283D-03 0.327D-03 0.206D-02-0.116D-02 0.186D-01-0.148D-01
 Coeff:     -0.727D-01-0.110D+00-0.202D+00 0.594D+00 0.786D+00
 Gap=     0.204 Goal=   None    Shift=    0.000
 Gap=     0.094 Goal=   None    Shift=    0.000
 RMSDP=3.86D-05 MaxDP=1.73D-03 DE=-1.25D-05 OVMax= 2.63D-03

 Cycle  12  Pass 1  IDiag  1:
 RMSU=  1.12D-05    CP:  9.88D-01  4.41D-02  7.45D-01  2.22D-01  7.41D-01
                    CP:  8.75D-01  1.31D+00  9.11D-01  2.08D+00  1.70D+00
                    CP:  1.70D+00
 E= -3266.03623292444     Delta-E=       -0.000004697547 Rises=F Damp=F
 DIIS: error= 5.12D-05 at cycle  12 NSaved=  12.
 NSaved=12 IEnMin=12 EnMin= -3266.03623292444     IErMin=12 ErrMin= 5.12D-05
 ErrMax= 5.12D-05 EMaxC= 1.00D-01 BMatC= 8.54D-07 BMatP= 4.27D-06
 IDIUse=1 WtCom= 1.00D+00 WtEn= 0.00D+00
 Coeff-Com:  0.947D-04-0.149D-03 0.414D-03 0.162D-03-0.392D-02-0.351D-02
 Coeff-Com:  0.113D-01-0.139D-02-0.305D-01-0.197D+00 0.566D-01 0.117D+01
 Coeff:      0.947D-04-0.149D-03 0.414D-03 0.162D-03-0.392D-02-0.351D-02
 Coeff:      0.113D-01-0.139D-02-0.305D-01-0.197D+00 0.566D-01 0.117D+01
 Gap=     0.204 Goal=   None    Shift=    0.000
 Gap=     0.094 Goal=   None    Shift=    0.000
 RMSDP=2.91D-05 MaxDP=1.35D-03 DE=-4.70D-06 OVMax= 2.72D-03

 Cycle  13  Pass 1  IDiag  1:
 RMSU=  6.20D-06    CP:  9.88D-01  4.39D-02  7.46D-01  2.20D-01  7.39D-01
                    CP:  8.71D-01  1.32D+00  9.09D-01  2.28D+00  1.85D+00
                    CP:  2.18D+00  1.45D+00
 E= -3266.03623427821     Delta-E=       -0.000001353763 Rises=F Damp=F
 DIIS: error= 1.42D-05 at cycle  13 NSaved=  13.
 NSaved=13 IEnMin=13 EnMin= -3266.03623427821     IErMin=13 ErrMin= 1.42D-05
 ErrMax= 1.42D-05 EMaxC= 1.00D-01 BMatC= 1.79D-07 BMatP= 8.54D-07
 IDIUse=1 WtCom= 1.00D+00 WtEn= 0.00D+00
 Coeff-Com:  0.536D-04-0.121D-03-0.814D-04 0.839D-04-0.142D-02 0.219D-02
 Coeff-Com:  0.660D-02 0.126D-01-0.198D-02-0.820D-01-0.875D-01 0.257D+00
 Coeff-Com:  0.894D+00
 Coeff:      0.536D-04-0.121D-03-0.814D-04 0.839D-04-0.142D-02 0.219D-02
 Coeff:      0.660D-02 0.126D-01-0.198D-02-0.820D-01-0.875D-01 0.257D+00
 Coeff:      0.894D+00
 Gap=     0.204 Goal=   None    Shift=    0.000
 Gap=     0.094 Goal=   None    Shift=    0.000
 RMSDP=8.86D-06 MaxDP=4.42D-04 DE=-1.35D-06 OVMax= 6.87D-04

 Cycle  14  Pass 1  IDiag  1:
 RMSU=  3.28D-06    CP:  9.88D-01  4.39D-02  7.46D-01  2.20D-01  7.38D-01
                    CP:  8.68D-01  1.31D+00  9.11D-01  2.32D+00  1.92D+00
                    CP:  2.34D+00  1.56D+00  1.05D+00
 E= -3266.03623442190     Delta-E=       -0.000000143692 Rises=F Damp=F
 DIIS: error= 8.35D-06 at cycle  14 NSaved=  14.
 NSaved=14 IEnMin=14 EnMin= -3266.03623442190     IErMin=14 ErrMin= 8.35D-06
 ErrMax= 8.35D-06 EMaxC= 1.00D-01 BMatC= 4.79D-08 BMatP= 1.79D-07
 IDIUse=1 WtCom= 1.00D+00 WtEn= 0.00D+00
 Coeff-Com:  0.160D-04-0.543D-04-0.123D-03 0.284D-04-0.197D-03 0.209D-02
 Coeff-Com:  0.245D-02 0.865D-02 0.158D-02-0.219D-01-0.586D-01-0.920D-02
 Coeff-Com:  0.441D+00 0.634D+00
 Coeff:      0.160D-04-0.543D-04-0.123D-03 0.284D-04-0.197D-03 0.209D-02
 Coeff:      0.245D-02 0.865D-02 0.158D-02-0.219D-01-0.586D-01-0.920D-02
 Coeff:      0.441D+00 0.634D+00
 Gap=     0.204 Goal=   None    Shift=    0.000
 Gap=     0.094 Goal=   None    Shift=    0.000
 RMSDP=3.84D-06 MaxDP=1.97D-04 DE=-1.44D-07 OVMax= 2.74D-04

 Cycle  15  Pass 1  IDiag  1:
 RMSU=  1.11D-06    CP:  9.88D-01  4.39D-02  7.46D-01  2.20D-01  7.38D-01
                    CP:  8.68D-01  1.31D+00  9.08D-01  2.35D+00  1.96D+00
                    CP:  2.39D+00  1.61D+00  1.18D+00  9.83D-01
 E= -3266.03623445521     Delta-E=       -0.000000033316 Rises=F Damp=F
 DIIS: error= 3.95D-06 at cycle  15 NSaved=  15.
 NSaved=15 IEnMin=15 EnMin= -3266.03623445521     IErMin=15 ErrMin= 3.95D-06
 ErrMax= 3.95D-06 EMaxC= 1.00D-01 BMatC= 7.92D-09 BMatP= 4.79D-08
 IDIUse=1 WtCom= 1.00D+00 WtEn= 0.00D+00
 Coeff-Com: -0.944D-05 0.234D-04-0.226D-04-0.167D-04 0.361D-03 0.181D-03
 Coeff-Com: -0.800D-03-0.488D-03 0.979D-03 0.119D-01 0.740D-02-0.646D-01
 Coeff-Com: -0.146D+00 0.189D+00 0.100D+01
 Coeff:     -0.944D-05 0.234D-04-0.226D-04-0.167D-04 0.361D-03 0.181D-03
 Coeff:     -0.800D-03-0.488D-03 0.979D-03 0.119D-01 0.740D-02-0.646D-01
 Coeff:     -0.146D+00 0.189D+00 0.100D+01
 Gap=     0.204 Goal=   None    Shift=    0.000
 Gap=     0.094 Goal=   None    Shift=    0.000
 RMSDP=3.43D-06 MaxDP=1.68D-04 DE=-3.33D-08 OVMax= 2.72D-04

 Cycle  16  Pass 1  IDiag  1:
 RMSU=  6.01D-07    CP:  9.88D-01  4.39D-02  7.46D-01  2.20D-01  7.38D-01
                    CP:  8.67D-01  1.31D+00  9.07D-01  2.37D+00  1.99D+00
                    CP:  2.44D+00  1.66D+00  1.23D+00  1.07D+00  1.84D+00
 E= -3266.03623447121     Delta-E=       -0.000000015993 Rises=F Damp=F
 DIIS: error= 2.28D-06 at cycle  16 NSaved=  16.
 NSaved=16 IEnMin=16 EnMin= -3266.03623447121     IErMin=16 ErrMin= 2.28D-06
 ErrMax= 2.28D-06 EMaxC= 1.00D-01 BMatC= 1.85D-09 BMatP= 7.92D-09
 IDIUse=1 WtCom= 1.00D+00 WtEn= 0.00D+00
 Coeff-Com: -0.724D-05 0.161D-04 0.866D-05-0.239D-05 0.724D-04-0.488D-03
 Coeff-Com: -0.755D-03-0.255D-02 0.235D-02 0.663D-02 0.158D-01-0.192D-01
 Coeff-Com: -0.150D+00-0.114D+00 0.235D+00 0.103D+01
 Coeff:     -0.724D-05 0.161D-04 0.866D-05-0.239D-05 0.724D-04-0.488D-03
 Coeff:     -0.755D-03-0.255D-02 0.235D-02 0.663D-02 0.158D-01-0.192D-01
 Coeff:     -0.150D+00-0.114D+00 0.235D+00 0.103D+01
 Gap=     0.204 Goal=   None    Shift=    0.000
 Gap=     0.094 Goal=   None    Shift=    0.000
 RMSDP=2.22D-06 MaxDP=9.34D-05 DE=-1.60D-08 OVMax= 1.97D-04

 Cycle  17  Pass 1  IDiag  1:
 RMSU=  3.74D-07    CP:  9.88D-01  4.39D-02  7.46D-01  2.20D-01  7.38D-01
                    CP:  8.66D-01  1.31D+00  9.08D-01  2.38D+00  2.00D+00
                    CP:  2.48D+00  1.70D+00  1.27D+00  1.21D+00  2.29D+00
                    CP:  1.49D+00
 E= -3266.03623447678     Delta-E=       -0.000000005573 Rises=F Damp=F
 DIIS: error= 1.15D-06 at cycle  17 NSaved=  17.
 NSaved=17 IEnMin=17 EnMin= -3266.03623447678     IErMin=17 ErrMin= 1.15D-06
 ErrMax= 1.15D-06 EMaxC= 1.00D-01 BMatC= 5.78D-10 BMatP= 1.85D-09
 IDIUse=1 WtCom= 1.00D+00 WtEn= 0.00D+00
 Coeff-Com: -0.702D-06 0.194D-06 0.176D-04 0.168D-05-0.267D-04-0.194D-03
 Coeff-Com: -0.722D-04-0.535D-03-0.517D-03 0.178D-03 0.252D-02 0.459D-02
 Coeff-Com:  0.379D-01-0.433D-01-0.317D+00 0.107D+00 0.121D+01
 Coeff:     -0.702D-06 0.194D-06 0.176D-04 0.168D-05-0.267D-04-0.194D-03
 Coeff:     -0.722D-04-0.535D-03-0.517D-03 0.178D-03 0.252D-02 0.459D-02
 Coeff:      0.379D-01-0.433D-01-0.317D+00 0.107D+00 0.121D+01
 Gap=     0.204 Goal=   None    Shift=    0.000
 Gap=     0.094 Goal=   None    Shift=    0.000
 RMSDP=1.31D-06 MaxDP=4.72D-05 DE=-5.57D-09 OVMax= 1.16D-04

 Cycle  18  Pass 1  IDiag  1:
 RMSU=  2.46D-07    CP:  9.88D-01  4.39D-02  7.46D-01  2.20D-01  7.38D-01
                    CP:  8.66D-01  1.31D+00  9.08D-01  2.39D+00  2.01D+00
                    CP:  2.49D+00  1.72D+00  1.29D+00  1.24D+00  2.59D+00
                    CP:  1.99D+00  1.48D+00
 E= -3266.03623447837     Delta-E=       -0.000000001590 Rises=F Damp=F
 DIIS: error= 3.53D-07 at cycle  18 NSaved=  18.
 NSaved=18 IEnMin=18 EnMin= -3266.03623447837     IErMin=18 ErrMin= 3.53D-07
 ErrMax= 3.53D-07 EMaxC= 1.00D-01 BMatC= 1.11D-10 BMatP= 5.78D-10
 IDIUse=1 WtCom= 1.00D+00 WtEn= 0.00D+00
 Coeff-Com:  0.127D-05-0.170D-05 0.532D-05-0.110D-07-0.638D-05 0.114D-04
 Coeff-Com:  0.669D-04 0.165D-03-0.178D-03-0.468D-03-0.227D-02 0.223D-02
 Coeff-Com:  0.307D-01 0.131D-01-0.101D+00-0.142D+00 0.233D+00 0.967D+00
 Coeff:      0.127D-05-0.170D-05 0.532D-05-0.110D-07-0.638D-05 0.114D-04
 Coeff:      0.669D-04 0.165D-03-0.178D-03-0.468D-03-0.227D-02 0.223D-02
 Coeff:      0.307D-01 0.131D-01-0.101D+00-0.142D+00 0.233D+00 0.967D+00
 Gap=     0.204 Goal=   None    Shift=    0.000
 Gap=     0.094 Goal=   None    Shift=    0.000
 RMSDP=4.36D-07 MaxDP=2.25D-05 DE=-1.59D-09 OVMax= 3.43D-05

 Cycle  19  Pass 1  IDiag  1:
 RMSU=  9.70D-08    CP:  9.88D-01  4.39D-02  7.46D-01  2.20D-01  7.38D-01
                    CP:  8.66D-01  1.31D+00  9.09D-01  2.39D+00  2.01D+00
                    CP:  2.50D+00  1.73D+00  1.30D+00  1.26D+00  2.66D+00
                    CP:  2.09D+00  1.83D+00  9.71D-01
 E= -3266.03623447856     Delta-E=       -0.000000000196 Rises=F Damp=F
 DIIS: error= 2.67D-07 at cycle  19 NSaved=  19.
 NSaved=19 IEnMin=19 EnMin= -3266.03623447856     IErMin=19 ErrMin= 2.67D-07
 ErrMax= 2.67D-07 EMaxC= 1.00D-01 BMatC= 4.87D-11 BMatP= 1.11D-10
 IDIUse=1 WtCom= 1.00D+00 WtEn= 0.00D+00
 Coeff-Com:  0.105D-05-0.126D-05 0.150D-07-0.176D-06-0.541D-06 0.457D-04
 Coeff-Com:  0.605D-04 0.216D-03 0.126D-03-0.386D-03-0.214D-02 0.502D-03
 Coeff-Com:  0.102D-01 0.177D-01 0.862D-02-0.109D+00-0.132D+00 0.586D+00
 Coeff-Com:  0.620D+00
 Coeff:      0.105D-05-0.126D-05 0.150D-07-0.176D-06-0.541D-06 0.457D-04
 Coeff:      0.605D-04 0.216D-03 0.126D-03-0.386D-03-0.214D-02 0.502D-03
 Coeff:      0.102D-01 0.177D-01 0.862D-02-0.109D+00-0.132D+00 0.586D+00
 Coeff:      0.620D+00
 Gap=     0.204 Goal=   None    Shift=    0.000
 Gap=     0.094 Goal=   None    Shift=    0.000
 RMSDP=1.42D-07 MaxDP=6.15D-06 DE=-1.96D-10 OVMax= 1.16D-05

 Cycle  20  Pass 1  IDiag  1:
 Restarting incremental Fock formation.
 E= -3266.03623447864     Delta-E=       -0.000000000080 Rises=F Damp=F
 DIIS: error= 1.19D-07 at cycle  20 NSaved=  20.
 NSaved=20 IEnMin=20 EnMin= -3266.03623447864     IErMin=20 ErrMin= 1.19D-07
 ErrMax= 1.19D-07 EMaxC= 1.00D-01 BMatC= 9.14D-12 BMatP= 4.87D-11
 IDIUse=1 WtCom= 1.00D+00 WtEn= 0.00D+00
 Coeff-Com:  0.266D-06-0.369D-06-0.107D-05 0.108D-06-0.897D-06 0.229D-04
 Coeff-Com:  0.224D-04 0.945D-04 0.132D-03-0.180D-03-0.643D-03-0.111D-03
 Coeff-Com: -0.212D-02 0.622D-02 0.301D-01-0.229D-01-0.134D+00 0.692D-01
 Coeff-Com:  0.361D+00 0.693D+00
 Coeff:      0.266D-06-0.369D-06-0.107D-05 0.108D-06-0.897D-06 0.229D-04
 Coeff:      0.224D-04 0.945D-04 0.132D-03-0.180D-03-0.643D-03-0.111D-03
 Coeff:     -0.212D-02 0.622D-02 0.301D-01-0.229D-01-0.134D+00 0.692D-01
 Coeff:      0.361D+00 0.693D+00
 Gap=     0.204 Goal=   None    Shift=    0.000
 Gap=     0.094 Goal=   None    Shift=    0.000
 RMSDP=7.73D-08 MaxDP=4.05D-06 DE=-8.00D-11 OVMax= 4.79D-06

 Cycle  21  Pass 1  IDiag  1:
 RMSU=  7.17D-08    CP:  1.00D+00
 E= -3266.03623447864     Delta-E=        0.000000000007 Rises=F Damp=F
 DIIS: error= 2.59D-08 at cycle  21 NSaved=  20.
 NSaved=20 IEnMin=19 EnMin= -3266.03623447864     IErMin=20 ErrMin= 2.59D-08
 ErrMax= 2.59D-08 EMaxC= 1.00D-01 BMatC= 1.01D-12 BMatP= 9.14D-12
 IDIUse=1 WtCom= 1.00D+00 WtEn= 0.00D+00
 Coeff-Com: -0.110D-06 0.122D-06-0.233D-06 0.597D-06 0.220D-05-0.263D-05
 Coeff-Com:  0.251D-05-0.325D-04-0.681D-05 0.214D-03-0.942D-04-0.198D-02
 Coeff-Com: -0.119D-02 0.577D-02 0.919D-02-0.127D-01-0.676D-01-0.346D-02
 Coeff-Com:  0.173D+00 0.899D+00
 Coeff:     -0.110D-06 0.122D-06-0.233D-06 0.597D-06 0.220D-05-0.263D-05
 Coeff:      0.251D-05-0.325D-04-0.681D-05 0.214D-03-0.942D-04-0.198D-02
 Coeff:     -0.119D-02 0.577D-02 0.919D-02-0.127D-01-0.676D-01-0.346D-02
 Coeff:      0.173D+00 0.899D+00
 Gap=     0.204 Goal=   None    Shift=    0.000
 Gap=     0.094 Goal=   None    Shift=    0.000
 RMSDP=2.10D-08 MaxDP=9.00D-07 DE= 7.28D-12 OVMax= 1.52D-06

 Cycle  22  Pass 1  IDiag  1:
 RMSU=  2.04D-08    CP:  1.00D+00  1.06D+00
 E= -3266.03623447866     Delta-E=       -0.000000000018 Rises=F Damp=F
 DIIS: error= 1.18D-08 at cycle  22 NSaved=  20.
 NSaved=20 IEnMin=20 EnMin= -3266.03623447866     IErMin=20 ErrMin= 1.18D-08
 ErrMax= 1.18D-08 EMaxC= 1.00D-01 BMatC= 1.28D-13 BMatP= 1.01D-12
 IDIUse=1 WtCom= 1.00D+00 WtEn= 0.00D+00
 Coeff-Com: -0.206D-07-0.675D-07 0.208D-06-0.221D-06-0.190D-05-0.790D-05
 Coeff-Com: -0.210D-04-0.784D-05 0.795D-04 0.922D-04 0.593D-04-0.811D-03
 Coeff-Com: -0.257D-02 0.279D-02 0.127D-01-0.128D-01-0.373D-01-0.527D-01
 Coeff-Com:  0.113D+00 0.978D+00
 Coeff:     -0.206D-07-0.675D-07 0.208D-06-0.221D-06-0.190D-05-0.790D-05
 Coeff:     -0.210D-04-0.784D-05 0.795D-04 0.922D-04 0.593D-04-0.811D-03
 Coeff:     -0.257D-02 0.279D-02 0.127D-01-0.128D-01-0.373D-01-0.527D-01
 Coeff:      0.113D+00 0.978D+00
 Gap=     0.204 Goal=   None    Shift=    0.000
 Gap=     0.094 Goal=   None    Shift=    0.000
 RMSDP=6.19D-09 MaxDP=2.93D-07 DE=-1.82D-11 OVMax= 2.74D-07

 SCF Done:  E(UB+HF-LYP) =  -3266.03623448     A.U. after   22 cycles
             Convg  =    0.6189D-08             -V/T =  2.0016
             S**2   =   0.7588
 KE= 3.260848294051D+03 PE=-8.970189948806D+03 EE= 1.849967859125D+03
 Annihilation of the first spin contaminant:
 S**2 before annihilation     0.7588,   after     0.7501
 Leave Link  502 at Sat Sep  2 20:42:46 2006, MaxMem=    6291456 cpu:    5318.8
 (Enter /usr/local/Gaussian/g03/l601.exe)
 Copying SCF densities to generalized density rwf, ISCF=1 IROHF=0.

 **********************************************************************

            Population analysis using the SCF density.

 **********************************************************************

 Orbital symmetries:
 Alpha Orbitals:
       Occupied  (A) (A) (A) (A) (A) (A) (A) (A) (A) (A) (A) (A)
                 (A) (A) (A) (A) (A) (A) (A) (A) (A) (A) (A) (A)
                 (A) (A) (A) (A) (A) (A) (A) (A) (A) (A) (A) (A)
                 (A) (A) (A) (A) (A) (A) (A) (A) (A) (A) (A)
       Virtual   (A) (A) (A) (A) (A) (A) (A) (A) (A) (A) (A) (A)
                 (A) (A) (A) (A) (A) (A) (A) (A) (A) (A) (A) (A)
                 (A) (A) (A) (A) (A) (A) (A) (A) (A) (A) (A) (A)
                 (A) (A) (A) (A) (A) (A) (A) (A) (A) (A) (A) (A)
                 (A) (A) (A) (A) (A) (A) (A) (A) (A) (A) (A) (A)
                 (A) (A) (A) (A) (A) (A) (A) (A) (A) (A) (A) (A)
                 (A) (A) (A) (A) (A) (A) (A) (A) (A) (A) (A) (A)
                 (A) (A) (A) (A) (A) (A) (A) (A) (A) (A) (A) (A)
                 (A) (A) (A) (A) (A) (A) (A) (A) (A) (A) (A) (A)
                 (A) (A) (A) (A) (A) (A) (A) (A) (A) (A) (A) (A)
                 (A) (A) (A) (A) (A) (A) (A) (A) (A) (A) (A) (A)
                 (A) (A) (A) (A) (A) (A) (A) (A) (A) (A) (A) (A)
                 (A) (A) (A) (A) (A) (A) (A) (A) (A) (A) (A) (A)
                 (A) (A) (A) (A) (A) (A) (A) (A) (A) (A) (A) (A)
                 (A) (A) (A) (A) (A) (A) (A) (A) (A) (A) (A) (A)
                 (A) (A) (A) (A) (A) (A) (A) (A) (A) (A) (A) (A)
                 (A)
 Beta  Orbitals:
       Occupied  (A) (A) (A) (A) (A) (A) (A) (A) (A) (A) (A) (A)
                 (A) (A) (A) (A) (A) (A) (A) (A) (A) (A) (A) (A)
                 (A) (A) (A) (A) (A) (A) (A) (A) (A) (A) (A) (A)
                 (A) (A) (A) (A) (A) (A) (A) (A) (A) (A)
       Virtual   (A) (A) (A) (A) (A) (A) (A) (A) (A) (A) (A) (A)
                 (A) (A) (A) (A) (A) (A) (A) (A) (A) (A) (A) (A)
                 (A) (A) (A) (A) (A) (A) (A) (A) (A) (A) (A) (A)
                 (A) (A) (A) (A) (A) (A) (A) (A) (A) (A) (A) (A)
                 (A) (A) (A) (A) (A) (A) (A) (A) (A) (A) (A) (A)
                 (A) (A) (A) (A) (A) (A) (A) (A) (A) (A) (A) (A)
                 (A) (A) (A) (A) (A) (A) (A) (A) (A) (A) (A) (A)
                 (A) (A) (A) (A) (A) (A) (A) (A) (A) (A) (A) (A)
                 (A) (A) (A) (A) (A) (A) (A) (A) (A) (A) (A) (A)
                 (A) (A) (A) (A) (A) (A) (A) (A) (A) (A) (A) (A)
                 (A) (A) (A) (A) (A) (A) (A) (A) (A) (A) (A) (A)
                 (A) (A) (A) (A) (A) (A) (A) (A) (A) (A) (A) (A)
                 (A) (A) (A) (A) (A) (A) (A) (A) (A) (A) (A) (A)
                 (A) (A) (A) (A) (A) (A) (A) (A) (A) (A) (A) (A)
                 (A) (A) (A) (A) (A) (A) (A) (A) (A) (A) (A) (A)
                 (A) (A) (A) (A) (A) (A) (A) (A) (A) (A) (A) (A)
                 (A) (A)
 The electronic state is 2-A.
 Alpha  occ. eigenvalues -- -482.85644-101.52129 -62.50927 -56.32956 -56.32599
 Alpha  occ. eigenvalues --  -56.32552 -10.27083 -10.22933 -10.22039 -10.22037
 Alpha  occ. eigenvalues --  -10.21569 -10.21569  -9.43328  -8.71904  -7.20323
 Alpha  occ. eigenvalues --   -7.18743  -7.18736  -6.55030  -6.53810  -6.53690
 Alpha  occ. eigenvalues --   -2.66134  -2.65798  -2.65712  -2.64735  -2.64733
 Alpha  occ. eigenvalues --   -0.91319  -0.84215  -0.79521  -0.77956  -0.75591
 Alpha  occ. eigenvalues --   -0.65185  -0.63570  -0.55732  -0.50309  -0.49400
 Alpha  occ. eigenvalues --   -0.46807  -0.45431  -0.42990  -0.39145  -0.38965
 Alpha  occ. eigenvalues --   -0.36713  -0.31708  -0.31661  -0.30953  -0.29332
 Alpha  occ. eigenvalues --   -0.28599  -0.26158
 Alpha virt. eigenvalues --   -0.05779  -0.05100  -0.03512  -0.00722   0.01232
 Alpha virt. eigenvalues --    0.01382   0.03503   0.03806   0.03978   0.04532
 Alpha virt. eigenvalues --    0.05689   0.06544   0.07310   0.07738   0.08426
 Alpha virt. eigenvalues --    0.09538   0.10091   0.11379   0.11425   0.11568
 Alpha virt. eigenvalues --    0.12281   0.12348   0.13268   0.14412   0.15013
 Alpha virt. eigenvalues --    0.15306   0.15658   0.17371   0.17622   0.17767
 Alpha virt. eigenvalues --    0.18600   0.18882   0.20207   0.20837   0.21886
 Alpha virt. eigenvalues --    0.22920   0.23185   0.23407   0.24485   0.24527
 Alpha virt. eigenvalues --    0.27579   0.27941   0.28409   0.29105   0.30723
 Alpha virt. eigenvalues --    0.37697   0.40476   0.40775   0.44146   0.45709
 Alpha virt. eigenvalues --    0.47084   0.48298   0.48683   0.49274   0.50456
 Alpha virt. eigenvalues --    0.51701   0.52217   0.52742   0.53776   0.55893
 Alpha virt. eigenvalues --    0.56541   0.56810   0.59394   0.59765   0.61436
 Alpha virt. eigenvalues --    0.62391   0.65091   0.65897   0.66871   0.68541
 Alpha virt. eigenvalues --    0.68934   0.69558   0.70783   0.72378   0.73718
 Alpha virt. eigenvalues --    0.76991   0.78511   0.79955   0.80414   0.82303
 Alpha virt. eigenvalues --    0.82590   0.84203   0.86046   0.88361   0.90843
 Alpha virt. eigenvalues --    0.91168   0.91959   0.95437   0.96173   0.96945
 Alpha virt. eigenvalues --    0.99539   1.01106   1.04270   1.05736   1.08193
 Alpha virt. eigenvalues --    1.09974   1.10604   1.18632   1.24803   1.31216
 Alpha virt. eigenvalues --    1.32704   1.44376   1.46469   1.47961   1.51675
 Alpha virt. eigenvalues --    1.54017   1.57965   1.58632   1.61991   1.62232
 Alpha virt. eigenvalues --    1.65249   1.68951   1.73165   1.74174   1.78914
 Alpha virt. eigenvalues --    1.83043   1.86632   1.88988   1.89931   1.92398
 Alpha virt. eigenvalues --    1.92895   1.93282   1.97042   1.99550   1.99570
 Alpha virt. eigenvalues --    2.00969   2.05326   2.10118   2.22351   2.23630
 Alpha virt. eigenvalues --    2.28413   2.29332   2.30210   2.33520   2.35345
 Alpha virt. eigenvalues --    2.36975   2.39588   2.42762   2.46399   2.58864
 Alpha virt. eigenvalues --    2.61142   2.62185   2.68590   2.69632   2.71729
 Alpha virt. eigenvalues --    2.72928   2.74504   2.75523   2.75760   2.80248
 Alpha virt. eigenvalues --    2.82488   2.86315   2.89857   2.90339   3.04125
 Alpha virt. eigenvalues --    3.08067   3.08445   3.28578   3.35658   3.45897
 Alpha virt. eigenvalues --    3.48566   3.58676   3.70917   3.95017   4.00495
 Alpha virt. eigenvalues --    4.08592   4.10824   4.11637   4.16777   4.19662
 Alpha virt. eigenvalues --    4.35352   4.54779   4.79161   6.70990   7.53191
 Alpha virt. eigenvalues --    7.65217   7.70556   9.70167  23.50365  23.89421
 Alpha virt. eigenvalues --   23.89863  23.99746  24.08004  24.15189  25.87460
 Alpha virt. eigenvalues --   25.88502  26.08029  47.96930 215.67969 289.72983
 Alpha virt. eigenvalues --  289.85076 289.927591020.77351
  Beta  occ. eigenvalues -- -482.85633-101.51646 -62.50920 -56.32953 -56.32572
  Beta  occ. eigenvalues --  -56.32548 -10.26841 -10.22779 -10.21872 -10.21869
  Beta  occ. eigenvalues --  -10.21646 -10.21645  -9.42863  -8.71888  -7.18794
  Beta  occ. eigenvalues --   -7.18455  -7.18449  -6.55028  -6.53760  -6.53683
  Beta  occ. eigenvalues --   -2.66125  -2.65772  -2.65710  -2.64707  -2.64706
  Beta  occ. eigenvalues --   -0.90973  -0.83818  -0.79371  -0.76213  -0.73608
  Beta  occ. eigenvalues --   -0.64941  -0.63267  -0.55611  -0.50143  -0.49235
  Beta  occ. eigenvalues --   -0.46771  -0.45230  -0.41869  -0.39012  -0.38845
  Beta  occ. eigenvalues --   -0.34593  -0.31656  -0.30324  -0.28589  -0.28100
  Beta  occ. eigenvalues --   -0.27758
  Beta virt. eigenvalues --   -0.18340  -0.04581  -0.04473  -0.03308  -0.00683
  Beta virt. eigenvalues --    0.01244   0.01420   0.03574   0.03866   0.03996
  Beta virt. eigenvalues --    0.04603   0.05886   0.06545   0.07350   0.07741
  Beta virt. eigenvalues --    0.08565   0.09998   0.10113   0.11394   0.11428
  Beta virt. eigenvalues --    0.11777   0.12346   0.12402   0.13354   0.14555
  Beta virt. eigenvalues --    0.15087   0.15334   0.15742   0.17397   0.17776
  Beta virt. eigenvalues --    0.17834   0.18642   0.18992   0.20390   0.20851
  Beta virt. eigenvalues --    0.21927   0.22972   0.23333   0.23452   0.24519
  Beta virt. eigenvalues --    0.24721   0.27691   0.27954   0.28644   0.29266
  Beta virt. eigenvalues --    0.30875   0.37781   0.40607   0.40812   0.44234
  Beta virt. eigenvalues --    0.47129   0.47264   0.48565   0.49080   0.49716
  Beta virt. eigenvalues --    0.50495   0.52086   0.52780   0.53010   0.54143
  Beta virt. eigenvalues --    0.55897   0.56503   0.56951   0.59899   0.60305
  Beta virt. eigenvalues --    0.61666   0.63375   0.65327   0.65938   0.67266
  Beta virt. eigenvalues --    0.68619   0.69048   0.69722   0.71065   0.72866
  Beta virt. eigenvalues --    0.74121   0.77082   0.79231   0.80202   0.80431
  Beta virt. eigenvalues --    0.82650   0.82684   0.84318   0.86533   0.90575
  Beta virt. eigenvalues --    0.91476   0.92121   0.92804   0.96569   0.97430
  Beta virt. eigenvalues --    0.98295   1.00328   1.02054   1.04414   1.06397
  Beta virt. eigenvalues --    1.08432   1.10504   1.11165   1.19854   1.25407
  Beta virt. eigenvalues --    1.31647   1.33141   1.44460   1.46521   1.48226
  Beta virt. eigenvalues --    1.51797   1.54308   1.58246   1.58965   1.62059
  Beta virt. eigenvalues --    1.62560   1.65640   1.68867   1.73465   1.74257
  Beta virt. eigenvalues --    1.79033   1.83316   1.87042   1.89347   1.90178
  Beta virt. eigenvalues --    1.92723   1.93040   1.93545   1.97270   1.99632
  Beta virt. eigenvalues --    1.99788   2.01230   2.05530   2.10164   2.22675
  Beta virt. eigenvalues --    2.24012   2.28824   2.29736   2.30807   2.33809
  Beta virt. eigenvalues --    2.36470   2.36989   2.41158   2.42895   2.46564
  Beta virt. eigenvalues --    2.58940   2.61407   2.62580   2.68597   2.69681
  Beta virt. eigenvalues --    2.71745   2.72952   2.74609   2.75996   2.76024
  Beta virt. eigenvalues --    2.80276   2.83244   2.86698   2.90273   2.90379
  Beta virt. eigenvalues --    3.04684   3.08206   3.08660   3.28768   3.35776
  Beta virt. eigenvalues --    3.45972   3.48762   3.58802   3.70959   3.95126
  Beta virt. eigenvalues --    4.00772   4.08717   4.11097   4.11712   4.16856
  Beta virt. eigenvalues --    4.19736   4.35359   4.54820   4.79488   6.71034
  Beta virt. eigenvalues --    7.53304   7.65239   7.70569   9.71068  23.50494
  Beta virt. eigenvalues --   23.89655  23.89941  23.99886  24.08044  24.15258
  Beta virt. eigenvalues --   25.87876  25.88907  26.10032  47.96946 215.68412
  Beta virt. eigenvalues --  289.73017 289.85081 289.927611020.77360
          Condensed to atoms (all electrons):
              1          2          3          4          5          6
     1  C    8.314424  -1.555580   0.793507  -1.091221   0.793516  -1.555524
     2  C   -1.555580   6.997686  -0.784984   0.732040  -1.052595   1.321944
     3  C    0.793507  -0.784984   7.175879  -0.433717   0.248148  -1.052610
     4  C   -1.091221   0.732040  -0.433717   6.150149  -0.433746   0.732059
     5  C    0.793516  -1.052595   0.248148  -0.433746   7.175934  -0.785016
     6  C   -1.555524   1.321944  -1.052610   0.732059  -0.785016   6.997650
     7  H    0.407903  -0.032325   0.010697  -0.001310   0.010698  -0.032335
     8  H   -0.016234   0.415015  -0.048552   0.010784  -0.007545   0.005199
     9  H    0.000917   0.026544   0.344915  -0.011175  -0.013314   0.006856
    10  Br   0.068045   0.005806   0.133622  -0.192349   0.133637   0.005803
    11  H    0.000912   0.006856  -0.013311  -0.011164   0.344904   0.026548
    12  H   -0.016236   0.005197  -0.007543   0.010785  -0.048552   0.415017
    13  Cl  -0.293441   0.077695   0.072897  -0.036385   0.072925   0.077670
              7          8          9         10         11         12
     1  C    0.407903  -0.016234   0.000917   0.068045   0.000912  -0.016236
     2  C   -0.032325   0.415015   0.026544   0.005806   0.006856   0.005197
     3  C    0.010697  -0.048552   0.344915   0.133622  -0.013311  -0.007543
     4  C   -0.001310   0.010784  -0.011175  -0.192349  -0.011164   0.010785
     5  C    0.010698  -0.007545  -0.013314   0.133637   0.344904  -0.048552
     6  C   -0.032335   0.005199   0.006856   0.005803   0.026548   0.415017
     7  H    0.476824  -0.007031  -0.000223  -0.000332  -0.000223  -0.007030
     8  H   -0.007031   0.504929  -0.007789  -0.000245   0.000039  -0.000188
     9  H   -0.000223  -0.007789   0.506611  -0.006633  -0.000103   0.000039
    10  Br  -0.000332  -0.000245  -0.006633  34.948234  -0.006632  -0.000245
    11  H   -0.000223   0.000039  -0.000103  -0.006632   0.506608  -0.007788
    12  H   -0.007030  -0.000188   0.000039  -0.000245  -0.007788   0.504921
    13  Cl  -0.023329  -0.000750  -0.001143  -0.001298  -0.001143  -0.000749
             13
     1  C   -0.293441
     2  C    0.077695
     3  C    0.072897
     4  C   -0.036385
     5  C    0.072925
     6  C    0.077670
     7  H   -0.023329
     8  H   -0.000750
     9  H   -0.001143
    10  Br  -0.001298
    11  H   -0.001143
    12  H   -0.000749
    13  Cl  17.301148
 Mulliken atomic charges:
              1
     1  C    0.149012
     2  C   -0.163299
     3  C   -0.438948
     4  C    0.575252
     5  C   -0.438996
     6  C   -0.163261
     7  H    0.198015
     8  H    0.152368
     9  H    0.154497
    10  Br  -0.087414
    11  H    0.154498
    12  H    0.152372
    13  Cl  -0.244096
 Sum of Mulliken charges=   0.00000
 Atomic charges with hydrogens summed into heavy atoms:
              1
     1  C    0.347026
     2  C   -0.010932
     3  C   -0.284450
     4  C    0.575252
     5  C   -0.284497
     6  C   -0.010888
     7  H    0.000000
     8  H    0.000000
     9  H    0.000000
    10  Br  -0.087414
    11  H    0.000000
    12  H    0.000000
    13  Cl  -0.244096
 Sum of Mulliken charges=   0.00000
          Atomic-Atomic Spin Densities.
              1          2          3          4          5          6
     1  C   -0.077887  -0.065236   0.150950  -0.080932   0.150927  -0.065264
     2  C   -0.065236   0.300118  -0.156485   0.077076  -0.103194   0.141200
     3  C    0.150950  -0.156485   0.017612  -0.051184   0.063748  -0.103215
     4  C   -0.080932   0.077076  -0.051184   0.222001  -0.051182   0.077079
     5  C    0.150927  -0.103194   0.063748  -0.051182   0.017561  -0.156458
     6  C   -0.065264   0.141200  -0.103215   0.077079  -0.156458   0.300176
     7  H    0.025263  -0.004776  -0.002449   0.000150  -0.002449  -0.004774
     8  H    0.007364  -0.005612   0.002815  -0.001577  -0.000212  -0.001568
     9  H    0.001052  -0.000315  -0.000657   0.000056   0.000381  -0.000418
    10  Br  -0.006240   0.008503  -0.011692  -0.011689  -0.011688   0.008503
    11  H    0.001053  -0.000418   0.000381   0.000056  -0.000658  -0.000315
    12  H    0.007365  -0.001568  -0.000212  -0.001578   0.002817  -0.005612
    13  Cl   0.000168  -0.065956   0.024146  -0.012058   0.024148  -0.065973
              7          8          9         10         11         12
     1  C    0.025263   0.007364   0.001052  -0.006240   0.001053   0.007365
     2  C   -0.004776  -0.005612  -0.000315   0.008503  -0.000418  -0.001568
     3  C   -0.002449   0.002815  -0.000657  -0.011692   0.000381  -0.000212
     4  C    0.000150  -0.001577   0.000056  -0.011689   0.000056  -0.001578
     5  C   -0.002449  -0.000212   0.000381  -0.011688  -0.000658   0.002817
     6  C   -0.004774  -0.001568  -0.000418   0.008503  -0.000315  -0.005612
     7  H    0.004898  -0.000367   0.000000   0.000076   0.000000  -0.000367
     8  H   -0.000367  -0.008038   0.000065  -0.000044  -0.000003   0.000004
     9  H    0.000000   0.000065   0.002434   0.000197   0.000002  -0.000003
    10  Br   0.000076  -0.000044   0.000197   0.058976   0.000197  -0.000044
    11  H    0.000000  -0.000003   0.000002   0.000197   0.002435   0.000065
    12  H   -0.000367   0.000004  -0.000003  -0.000044   0.000065  -0.008039
    13  Cl  -0.011362   0.000765  -0.000141  -0.001110  -0.000141   0.000765
             13
     1  C    0.000168
     2  C   -0.065956
     3  C    0.024146
     4  C   -0.012058
     5  C    0.024148
     6  C   -0.065973
     7  H   -0.011362
     8  H    0.000765
     9  H   -0.000141
    10  Br  -0.001110
    11  H   -0.000141
    12  H    0.000765
    13  Cl   0.747464
 Mulliken atomic spin densities:
              1
     1  C    0.048585
     2  C    0.123336
     3  C   -0.066241
     4  C    0.166219
     5  C   -0.066260
     6  C    0.123361
     7  H    0.003845
     8  H   -0.006406
     9  H    0.002653
    10  Br   0.033945
    11  H    0.002654
    12  H   -0.006407
    13  Cl   0.640715
 Sum of Mulliken spin densities=   1.00000
 Electronic spatial extent (au):  <R**2>=  2187.8597
 Charge=     0.0000 electrons
 Dipole moment (field-independent basis, Debye):
    X=     2.0009    Y=     0.0018    Z=     2.7835  Tot=     3.4281
 Quadrupole moment (field-independent basis, Debye-Ang):
   XX=   -76.3044   YY=   -60.0989   ZZ=   -68.9777
   XY=    -0.0053   XZ=    -8.8334   YZ=    -0.0050
 Traceless Quadrupole moment (field-independent basis, Debye-Ang):
   XX=    -7.8441   YY=     8.3614   ZZ=    -0.5174
   XY=    -0.0053   XZ=    -8.8334   YZ=    -0.0050
 Octapole moment (field-independent basis, Debye-Ang**2):
  XXX=   116.5226  YYY=     0.0020  ZZZ=   -16.2456  XYY=    19.9203
  XXY=     0.0096  XXZ=    15.6707  XZZ=    22.2047  YZZ=    -0.0110
  YYZ=     1.1772  XYZ=     0.0012
 Hexadecapole moment (field-independent basis, Debye-Ang**3):
 XXXX= -2068.5609 YYYY=  -295.4115 ZZZZ=  -319.5024 XXXY=    -0.0613
 XXXZ=   -97.7048 YYYX=    -0.0321 YYYZ=    -0.0270 ZZZX=   -19.3156
 ZZZY=    -0.0012 XXYY=  -379.4689 XXZZ=  -368.6102 YYZZ=  -110.1740
 XXYZ=     0.0045 YYXZ=   -17.2067 ZZXY=     0.0081
 N-N= 5.933375611512D+02 E-N=-8.970189948322D+03  KE= 3.260848294051D+03
                          Isotropic Fermi Contact Couplings
        Atom                 a.u.       MegaHertz       Gauss      10(-4) cm-1
     1  C(13)              0.02488      27.97282       9.98140       9.33073
     2  C(13)              0.00580       6.51966       2.32638       2.17472
     3  C(13)             -0.00878      -9.87067      -3.52210      -3.29250
     4  C(13)              0.01299      14.59913       5.20933       4.86974
     5  C(13)             -0.00878      -9.87264      -3.52280      -3.29316
     6  C(13)              0.00580       6.52378       2.32785       2.17610
     7  H(1)               0.00271      12.11455       4.32277       4.04098
     8  H(1)              -0.00177      -7.91988      -2.82601      -2.64179
     9  H(1)               0.00062       2.77157       0.98897       0.92450
    10  Br(79)             0.00360       4.04289       1.44260       1.34856
    11  H(1)               0.00062       2.77269       0.98937       0.92487
    12  H(1)              -0.00177      -7.92150      -2.82659      -2.64233
    13  Cl(35)             0.05533      24.26200       8.65729       8.09293
 --------------------------------------------------------
       Center         ----  Spin Dipole Couplings  ----
                      3XX-RR        3YY-RR        3ZZ-RR
 --------------------------------------------------------
     1   Atom       -0.008443     -0.060864      0.069308
     2   Atom       -0.050253     -0.067040      0.117293
     3   Atom        0.022225      0.024746     -0.046971
     4   Atom       -0.063122     -0.101501      0.164623
     5   Atom        0.022235      0.024754     -0.046989
     6   Atom       -0.050261     -0.067073      0.117334
     7   Atom        0.000684     -0.011889      0.011205
     8   Atom       -0.007086      0.009402     -0.002317
     9   Atom        0.001765      0.000949     -0.002714
    10   Atom       -0.223336     -0.222072      0.445408
    11   Atom        0.001767      0.000945     -0.002712
    12   Atom       -0.007086      0.009390     -0.002305
    13   Atom        0.178388     -2.038626      1.860238
 --------------------------------------------------------
                        XY            XZ            YZ
 --------------------------------------------------------
     1   Atom        0.000053      0.089134      0.000080
     2   Atom        0.004630      0.068971      0.006542
     3   Atom       -0.000245     -0.024267      0.000809
     4   Atom        0.000047      0.083578      0.000153
     5   Atom        0.000217     -0.024275     -0.000891
     6   Atom       -0.004553      0.068998     -0.006339
     7   Atom       -0.000006     -0.010215      0.000015
     8   Atom       -0.004946      0.003079      0.005109
     9   Atom       -0.000717     -0.000552      0.000888
    10   Atom        0.000150      0.261340      0.000378
    11   Atom        0.000717     -0.000554     -0.000892
    12   Atom        0.004952      0.003073     -0.005125
    13   Atom        0.001803      2.952196      0.002382
 --------------------------------------------------------


 ---------------------------------------------------------------------------------
              Anisotropic Spin Dipole Couplings in Principal Axis System
 ---------------------------------------------------------------------------------

       Atom             a.u.   MegaHertz   Gauss  10(-4) cm-1        Axes

              Baa    -0.0668    -8.965    -3.199    -2.991  0.8366 -0.0001 -0.5478
     1 C(13)  Bbb    -0.0609    -8.167    -2.914    -2.724 -0.0002  1.0000 -0.0005
              Bcc     0.1277    17.133     6.113     5.715  0.5478  0.0005  0.8366
 
              Baa    -0.0756   -10.138    -3.618    -3.382  0.9138 -0.2524 -0.3183
     2 C(13)  Bbb    -0.0668    -8.959    -3.197    -2.988  0.2256  0.9669 -0.1189
              Bcc     0.1423    19.098     6.815     6.370  0.3377  0.0369  0.9405
 
              Baa    -0.0546    -7.332    -2.616    -2.446  0.3010 -0.0088  0.9536
     3 C(13)  Bbb     0.0247     3.316     1.183     1.106  0.0902  0.9957 -0.0193
              Bcc     0.0299     4.016     1.433     1.340  0.9493 -0.0918 -0.3005
 
              Baa    -0.1015   -13.621    -4.860    -4.543  0.0000  1.0000 -0.0006
     4 C(13)  Bbb    -0.0905   -12.144    -4.333    -4.051  0.9503 -0.0002 -0.3113
              Bcc     0.1920    25.765     9.194     8.594  0.3113  0.0005  0.9503
 
              Baa    -0.0547    -7.335    -2.617    -2.447  0.3010  0.0099  0.9536
     5 C(13)  Bbb     0.0247     3.317     1.184     1.106 -0.0901  0.9958  0.0181
              Bcc     0.0299     4.018     1.434     1.340  0.9494  0.0914 -0.3006
 
              Baa    -0.0756   -10.141    -3.619    -3.383  0.9138  0.2519 -0.3186
     6 C(13)  Bbb    -0.0668    -8.962    -3.198    -2.989 -0.2255  0.9671  0.1178
              Bcc     0.1424    19.103     6.816     6.372  0.3378 -0.0358  0.9405
 
              Baa    -0.0119    -6.344    -2.264    -2.116  0.0000  1.0000 -0.0007
     7 H(1)   Bbb    -0.0055    -2.958    -1.056    -0.987  0.8538  0.0003  0.5207
              Bcc     0.0174     9.302     3.319     3.103 -0.5207  0.0005  0.8538
 
              Baa    -0.0109    -5.799    -2.069    -1.934  0.8138  0.3207 -0.4846
     8 H(1)   Bbb    -0.0012    -0.617    -0.220    -0.206  0.5473 -0.1427  0.8247
              Bcc     0.0120     6.416     2.289     2.140 -0.1954  0.9364  0.2916
 
              Baa    -0.0029    -1.574    -0.561    -0.525  0.0828 -0.2068  0.9749
     9 H(1)   Bbb     0.0006     0.317     0.113     0.106  0.5607  0.8184  0.1260
              Bcc     0.0024     1.256     0.448     0.419  0.8238 -0.5362 -0.1837
 
              Baa    -0.3134   -42.032   -14.998   -14.020  0.9455 -0.0002 -0.3257
    10 Br(79) Bbb    -0.2221   -29.788   -10.629    -9.936  0.0000  1.0000 -0.0006
              Bcc     0.5354    71.820    25.627    23.957  0.3257  0.0005  0.9455
 
              Baa    -0.0029    -1.574    -0.562    -0.525  0.0828  0.2080  0.9746
    11 H(1)   Bbb     0.0006     0.317     0.113     0.106 -0.5602  0.8185 -0.1272
              Bcc     0.0024     1.257     0.449     0.419  0.8242  0.5354 -0.1843
 
              Baa    -0.0109    -5.800    -2.070    -1.935  0.8138 -0.3214 -0.4842
    12 H(1)   Bbb    -0.0012    -0.617    -0.220    -0.206  0.5473  0.1436  0.8245
              Bcc     0.0120     6.417     2.290     2.141  0.1954  0.9360 -0.2928
 
              Baa    -2.0503  -107.309   -38.290   -35.794  0.7981 -0.0003 -0.6025
    13 Cl(35) Bbb    -2.0386  -106.697   -38.072   -35.590  0.0000  1.0000 -0.0006
              Bcc     4.0889   214.006    76.363    71.385  0.6025  0.0005  0.7981
 

 ---------------------------------------------------------------------------------

 No NMR shielding tensors so no spin-rotation constants.
 Leave Link  601 at Sat Sep  2 20:42:56 2006, MaxMem=    6291456 cpu:       2.7
 (Enter /usr/local/Gaussian/g03/l701.exe)
 Compute integral first derivatives.
 ... and contract with generalized density number  0.
 Leave Link  701 at Sat Sep  2 20:43:01 2006, MaxMem=    6291456 cpu:       1.3
 (Enter /usr/local/Gaussian/g03/l702.exe)
 L702 exits ... SP integral derivatives will be done elsewhere.
 Leave Link  702 at Sat Sep  2 20:43:02 2006, MaxMem=    6291456 cpu:       0.0
 (Enter /usr/local/Gaussian/g03/l703.exe)
 Compute integral first derivatives, UseDBF=F.
 Integral derivatives from FoFDir, PRISM(SPDF).
 Symmetry not used in FoFDir.
 MinBra= 0 MaxBra= 2 Meth= 1.
 IRaf=       0 NMat=   1 IRICut=       1 DoRegI=T DoRafI=F ISym2E= 0 JSym2E=0.
 Leave Link  703 at Sat Sep  2 21:25:23 2006, MaxMem=    6291456 cpu:     715.4
 (Enter /usr/local/Gaussian/g03/l716.exe)
 Dipole        = 7.87199630D-01 6.89762523D-04 1.09512945D+00
 ***** Axes restored to original set *****
 -------------------------------------------------------------------
 Center     Atomic                   Forces (Hartrees/Bohr)
 Number     Number              X              Y              Z
 -------------------------------------------------------------------
    1          6          -0.002040566    0.000292936   -0.001196922
    2          6          -0.002242966   -0.000123279    0.000832574
    3          6           0.000286381   -0.000009085    0.002724789
    4          6           0.000103970    0.000040786    0.000056838
    5          6           0.002502006   -0.000061835   -0.001091444
    6          6          -0.000372430   -0.000169991   -0.002354124
    7          1          -0.000170425   -0.000020807   -0.000099311
    8          1          -0.000191346    0.000041233    0.000144575
    9          1          -0.000042841    0.000000521    0.000260489
   10         35           0.001976864    0.000020198    0.001152230
   11          1           0.000205551   -0.000006088   -0.000165704
   12          1           0.000032796    0.000035598   -0.000238276
   13         17          -0.000046994   -0.000040187   -0.000025712
 -------------------------------------------------------------------
 Cartesian Forces:  Max     0.002724789 RMS     0.000982489
 Leave Link  716 at Sat Sep  2 21:25:24 2006, MaxMem=    6291456 cpu:       0.0
 (Enter /usr/local/Gaussian/g03/l103.exe)

 GradGradGradGradGradGradGradGradGradGradGradGradGradGradGradGradGradGrad
 Berny optimization.
 Internal  Forces:  Max     0.002917853 RMS     0.000783490
 Search for a local minimum.
 Step number   1 out of a maximum of  87
 All quantities printed in internal units (Hartrees-Bohrs-Radians)
 Second derivative matrix not updated -- first step.
     Eigenvalues ---    0.02037   0.02124   0.02136   0.02189   0.02229
     Eigenvalues ---    0.02264   0.02277   0.02904   0.03148   0.03253
     Eigenvalues ---    0.03570   0.06716   0.09401   0.11531   0.12597
     Eigenvalues ---    0.15750   0.16000   0.16000   0.18047   0.18354
     Eigenvalues ---    0.22890   0.25000   0.32455   0.34449   0.35688
     Eigenvalues ---    0.35688   0.35795   0.35795   0.38837   0.43041
     Eigenvalues ---    0.44135   0.46973   0.489391000.000001000.00000
     Eigenvalues --- 1000.000001000.000001000.000001000.000001000.00000
     Eigenvalues --- 1000.000001000.000001000.000001000.000001000.00000
     Eigenvalues --- 1000.000001000.000001000.000001000.000001000.00000
     Eigenvalues --- 1000.000001000.000001000.000001000.000001000.00000
     Eigenvalues --- 1000.000001000.000001000.000001000.000001000.00000
     Eigenvalues --- 1000.000001000.000001000.000001000.000001000.00000
     Eigenvalues --- 1000.000001000.000001000.000001000.000001000.00000
     Eigenvalues --- 1000.000001000.000001000.000001000.000001000.00000
     Eigenvalues --- 1000.000001000.00000
 RFO step:  Lambda=-1.22847471D-04.
 Linear search not attempted -- first point.
 Iteration  1 RMS(Cart)=  0.00314503 RMS(Int)=  0.00000120
 Iteration  2 RMS(Cart)=  0.00000119 RMS(Int)=  0.00000048
 Iteration  3 RMS(Cart)=  0.00000000 RMS(Int)=  0.00000048
 Variable       Old X    -DE/DX   Delta X   Delta X   Delta X     New X
                                 (Linear)    (Quad)   (Total)
    R1        2.66094   0.00214   0.00000   0.00547   0.00547   2.66641
    R2        2.66094   0.00214   0.00000   0.00547   0.00547   2.66641
    R3        2.04227   0.00008   0.00000   0.00047   0.00047   2.04275
    R4        4.88417  -0.00050   0.00000  -0.00136  -0.00136   4.88282
    R5        2.60950   0.00292   0.00000   0.00596   0.00596   2.61546
    R6        2.04572   0.00024   0.00000   0.00067   0.00067   2.04639
    R7        5.87021   0.00036   0.00000   0.00365   0.00365   5.87386
    R8        2.63893   0.00264   0.00000   0.00574   0.00574   2.64466
    R9        2.04404   0.00026   0.00000   0.00073   0.00073   2.04476
   R10        2.63893   0.00264   0.00000   0.00573   0.00573   2.64465
   R11        3.58650   0.00229   0.00000   0.01246   0.01246   3.59895
   R12        2.60953   0.00291   0.00000   0.00594   0.00594   2.61547
   R13        2.04404   0.00026   0.00000   0.00073   0.00073   2.04476
   R14        2.04572   0.00024   0.00000   0.00067   0.00067   2.04639
   R15        5.86992   0.00037   0.00000   0.00369   0.00369   5.87361
   R16        5.03351   0.00008   0.00000  -0.00130  -0.00130   5.03221
    A1        2.08497   0.00000   0.00000  -0.00019  -0.00019   2.08477
    A2        2.09366   0.00001   0.00000  -0.00002  -0.00002   2.09364
    A3        2.09365   0.00001   0.00000  -0.00003  -0.00003   2.09363
    A4        2.10154   0.00016   0.00000   0.00029   0.00029   2.10184
    A5        2.08691  -0.00009   0.00000   0.00005   0.00005   2.08695
    A6        2.09465  -0.00008   0.00000  -0.00036  -0.00036   2.09429
    A7        2.02213  -0.00005   0.00000   0.00027   0.00027   2.02240
    A8        1.68962   0.00019   0.00000  -0.00004  -0.00004   1.68957
    A9        2.07689  -0.00016   0.00000  -0.00036  -0.00036   2.07653
   A10        2.10914   0.00003   0.00000  -0.00011  -0.00011   2.10903
   A11        2.09715   0.00012   0.00000   0.00047   0.00047   2.09762
   A12        2.12428  -0.00002   0.00000   0.00027   0.00027   2.12455
   A13        2.07944   0.00001   0.00000  -0.00013  -0.00013   2.07931
   A14        2.07946   0.00001   0.00000  -0.00014  -0.00014   2.07932
   A15        2.07687  -0.00015   0.00000  -0.00035  -0.00035   2.07653
   A16        2.09717   0.00012   0.00000   0.00046   0.00046   2.09763
   A17        2.10915   0.00003   0.00000  -0.00011  -0.00011   2.10903
   A18        2.10155   0.00016   0.00000   0.00030   0.00030   2.10184
   A19        2.08690  -0.00009   0.00000   0.00005   0.00005   2.08695
   A20        2.09465  -0.00008   0.00000  -0.00036  -0.00036   2.09429
   A21        2.02216  -0.00005   0.00000   0.00027   0.00026   2.02243
   A22        1.68951   0.00019   0.00000  -0.00003  -0.00003   1.68948
   A23        0.80453   0.00063   0.00000   0.00117   0.00117   0.80570
   A24        0.75304   0.00036   0.00000   0.00072   0.00072   0.75377
   A25        0.75308   0.00036   0.00000   0.00072   0.00072   0.75379
    D1        0.02442  -0.00007   0.00000   0.00190   0.00190   0.02632
    D2       -3.13135  -0.00013   0.00000   0.00022   0.00022  -3.13113
    D3        3.00783   0.00005   0.00000   0.00014   0.00014   3.00798
    D4       -0.14794  -0.00001   0.00000  -0.00153  -0.00153  -0.14947
    D5       -0.02442   0.00007   0.00000  -0.00190  -0.00190  -0.02632
    D6        3.13136   0.00013   0.00000  -0.00022  -0.00022   3.13114
    D7       -3.00783  -0.00005   0.00000  -0.00015  -0.00015  -3.00797
    D8        0.14795   0.00001   0.00000   0.00153   0.00153   0.14948
    D9       -0.01167   0.00001   0.00000  -0.00061  -0.00061  -0.01229
[...]
     Eigenvalues ---    0.00312   0.00478   0.00772   0.01204   0.01345
     Eigenvalues ---    0.01448   0.01724   0.01842   0.02002   0.02069
     Eigenvalues ---    0.02225   0.02694   0.04959   0.06547   0.08489
     Eigenvalues ---    0.11218   0.11855   0.13268   0.13810   0.15114
     Eigenvalues ---    0.18234   0.22625   0.26970   0.30073   0.32322
     Eigenvalues ---    0.35737   0.36085   0.36114   0.36301   0.37339
     Eigenvalues ---    0.40449   0.42405   0.501491000.000001000.00000
     Eigenvalues --- 1000.000001000.000001000.000001000.000001000.00000
     Eigenvalues --- 1000.000001000.000001000.000001000.000001000.00000
     Eigenvalues --- 1000.000001000.000001000.000001000.000001000.00000
     Eigenvalues --- 1000.000001000.000001000.000001000.000001000.00000
     Eigenvalues --- 1000.000001000.000001000.000001000.000001000.00000
     Eigenvalues --- 1000.000001000.000001000.000001000.000001000.00000
     Eigenvalues --- 1000.000001000.000001000.000001000.000001000.00000
     Eigenvalues --- 1000.000001000.000001000.000001000.000001000.00000
     Eigenvalues --- 1000.000001000.00000
 Angle between quadratic step and forces=  54.40 degrees.
 Linear search not attempted -- first point.
 Iteration  1 RMS(Cart)=  0.00207534 RMS(Int)=  0.00000557
 Iteration  2 RMS(Cart)=  0.00000378 RMS(Int)=  0.00000151
 Iteration  3 RMS(Cart)=  0.00000000 RMS(Int)=  0.00000151
 Variable       Old X    -DE/DX   Delta X   Delta X   Delta X     New X
                                 (Linear)    (Quad)   (Total)
    R1        2.66645  -0.00002   0.00000   0.00016   0.00016   2.66661
    R2        2.66645  -0.00002   0.00000   0.00016   0.00016   2.66661
    R3        2.04271   0.00000   0.00000  -0.00009  -0.00009   2.04262
    R4        4.88134  -0.00004   0.00000  -0.00848  -0.00848   4.87286
    R5        2.61516  -0.00001   0.00000  -0.00011  -0.00011   2.61506
    R6        2.04628   0.00000   0.00000  -0.00001  -0.00001   2.04628
    R7        5.87374  -0.00001   0.00000  -0.00319  -0.00320   5.87055
    R8        2.64388  -0.00005   0.00000  -0.00009  -0.00008   2.64380
    R9        2.04463  -0.00002   0.00000  -0.00008  -0.00008   2.04455
   R10        2.64387  -0.00005   0.00000  -0.00007  -0.00007   2.64380
   R11        3.59727   0.00008   0.00000   0.00047   0.00047   3.59774
   R12        2.61517  -0.00001   0.00000  -0.00011  -0.00011   2.61506
   R13        2.04462  -0.00002   0.00000  -0.00008  -0.00008   2.04455
   R14        2.04628   0.00000   0.00000  -0.00001  -0.00001   2.04628
   R15        5.87353  -0.00001   0.00000  -0.00286  -0.00286   5.87067
   R16        5.03104  -0.00006   0.00000  -0.01120  -0.01120   5.01984
    A1        2.08489  -0.00001   0.00000  -0.00012  -0.00012   2.08477
    A2        2.09348   0.00000   0.00000  -0.00014  -0.00014   2.09334
    A3        2.09347   0.00000   0.00000  -0.00013  -0.00013   2.09333
    A4        2.10180   0.00001   0.00000   0.00009   0.00009   2.10189
    A5        2.08712  -0.00001   0.00000  -0.00024  -0.00024   2.08688
    A6        2.09415   0.00000   0.00000   0.00016   0.00016   2.09431
    A7        2.02277   0.00003   0.00000   0.00384   0.00384   2.02661
    A8        1.68956  -0.00002   0.00000  -0.00163  -0.00163   1.68793
    A9        2.07581  -0.00002   0.00000  -0.00017  -0.00017   2.07564
   A10        2.10935   0.00002   0.00000   0.00012   0.00012   2.10947
   A11        2.09802   0.00001   0.00000   0.00005   0.00005   2.09807
   A12        2.12593   0.00004   0.00000   0.00029   0.00029   2.12622
   A13        2.07863  -0.00002   0.00000  -0.00014  -0.00014   2.07848
   A14        2.07863  -0.00002   0.00000  -0.00015  -0.00015   2.07848
   A15        2.07581  -0.00002   0.00000  -0.00016  -0.00016   2.07564
   A16        2.09803   0.00001   0.00000   0.00004   0.00005   2.09807
   A17        2.10935   0.00002   0.00000   0.00012   0.00012   2.10947
   A18        2.10181   0.00001   0.00000   0.00008   0.00008   2.10189
   A19        2.08711  -0.00001   0.00000  -0.00023  -0.00023   2.08688
   A20        2.09415   0.00000   0.00000   0.00015   0.00015   2.09431
   A21        2.02279   0.00003   0.00000   0.00381   0.00381   2.02660
   A22        1.68947  -0.00002   0.00000  -0.00149  -0.00149   1.68798
   A23        0.80575  -0.00001   0.00000   0.00046   0.00046   0.80621
   A24        0.75379   0.00000   0.00000   0.00075   0.00075   0.75453
   A25        0.75381   0.00000   0.00000   0.00071   0.00071   0.75452
    D1        0.02707  -0.00001   0.00000  -0.00031  -0.00031   0.02676
    D2       -3.13067   0.00000   0.00000  -0.00003  -0.00003  -3.13070
    D3        3.00730  -0.00003   0.00000  -0.00305  -0.00305   3.00425
    D4       -0.15043  -0.00002   0.00000  -0.00278  -0.00277  -0.15320
    D5       -0.02706   0.00001   0.00000   0.00031   0.00030  -0.02676
    D6        3.13067   0.00000   0.00000   0.00001   0.00001   3.13069
    D7       -3.00730   0.00003   0.00000   0.00305   0.00305  -3.00425
    D8        0.15044   0.00002   0.00000   0.00276   0.00276   0.15319
    D9       -0.01256   0.00000   0.00000   0.00018   0.00018  -0.01239
   D10        3.12789   0.00001   0.00000   0.00038   0.00038   3.12827
   D11       -3.13795  -0.00001   0.00000  -0.00009  -0.00009  -3.13805
   D12        0.00250   0.00000   0.00000   0.00011   0.00011   0.00261
   D13       -1.12022   0.00000   0.00000   0.00109   0.00109  -1.11913
   D14        2.02023   0.00001   0.00000   0.00129   0.00129   2.02152
   D15        1.36583  -0.00001   0.00000  -0.00212  -0.00213   1.36370
   D16        2.46538  -0.00001   0.00000  -0.00175  -0.00175   2.46363
   D17       -2.68107   0.00000   0.00000  -0.00104  -0.00104  -2.68211
   D18       -1.58151   0.00001   0.00000  -0.00066  -0.00067  -1.58218
   D19       -0.00222   0.00000   0.00000  -0.00006  -0.00006  -0.00228
   D20        3.14065   0.00000   0.00000  -0.00003  -0.00003   3.14062
   D21        3.14050   0.00000   0.00000  -0.00025  -0.00025   3.14025
   D22        0.00019   0.00000   0.00000  -0.00022  -0.00022  -0.00003
   D23        0.00222   0.00000   0.00000   0.00006   0.00006   0.00228
   D24       -3.14050   0.00000   0.00000   0.00026   0.00026  -3.14024
   D25       -3.14065   0.00000   0.00000   0.00002   0.00003  -3.14062
   D26       -0.00019   0.00001   0.00000   0.00023   0.00023   0.00004
   D27        0.01256   0.00000   0.00000  -0.00018  -0.00018   0.01238
   D28        3.13794   0.00001   0.00000   0.00011   0.00011   3.13805
   D29        1.12032   0.00000   0.00000  -0.00124  -0.00124   1.11908
   D30       -3.12789  -0.00001   0.00000  -0.00039  -0.00039  -3.12828
   D31       -0.00251   0.00000   0.00000  -0.00010  -0.00010  -0.00261
   D32       -2.02013  -0.00001   0.00000  -0.00145  -0.00145  -2.02158
   D33       -1.36587   0.00001   0.00000   0.00219   0.00220  -1.36368
   D34       -2.46538   0.00001   0.00000   0.00174   0.00174  -2.46364
   D35        2.68107   0.00000   0.00000   0.00103   0.00103   2.68210
   D36        1.58156  -0.00001   0.00000   0.00058   0.00058   1.58214
         Item               Value     Threshold  Converged?
 Maximum Force            0.000077     0.000450     YES
 RMS     Force            0.000020     0.000300     YES
 Maximum Displacement     0.010726     0.001800     NO 
 RMS     Displacement     0.002074     0.001200     NO 
 Predicted change in Energy=-9.013170D-07
 GradGradGradGradGradGradGradGradGradGradGradGradGradGradGradGradGradGrad

 Leave Link  103 at Mon Sep  4 13:30:07 2006, MaxMem=    6291456 cpu:       0.2
 (Enter /usr/local/Gaussian/g03/l9999.exe)
 1\1\GINC-PUBLIX\Freq\UB3LYP\6-311+G(d,p)\C6H5Br1Cl1(2)\NOBODY\04-Sep-2
 006\0\\#P GEOM=ALLCHECK GUESS=READ SCRF=CHECK GENCHK UB3LYP/6-311+G(D,
 P) FREQ\\bromobz\cl complex basis\\0,2\C,-1.9319812494,-0.444227063,-1
 .1209164221\C,-1.9319818277,-0.4460152375,0.2901093818\C,-0.7386594341
 ,-0.4463502361,0.9909080385\C,0.4650460948,-0.4602729179,0.2779357357\
 C,0.4934704871,-0.4764627303,-1.1207589544\C,-0.7037817386,-0.47602791
 35,-1.8148267199\H,-2.8601199452,-0.5693752667,-1.6606913216\H,-2.8735
 52777,-0.4319329524,0.8247142026\H,-0.7304552408,-0.4349907744,2.07278
 62869\Br,2.1092236509,-0.4592264498,1.2372812309\H,1.4393615216,-0.488
 0179768,-1.6459371755\H,-0.7016247516,-0.4849985083,-2.8976338112\Cl,-
 2.4711241518,2.0575516359,-1.4713404482\\Version=Sun64-SVR4-Unix-G03Re
 vB.04\State=2-A\HF=-3266.0362913\S2=0.759063\S2-1=0.\S2A=0.750059\RMSD
 =2.712e-09\RMSF=4.569e-05\Dipole=0.3431328,-1.2849917,0.218608\DipoleD
 eriv=-0.136374,0.3146916,-0.0602635,0.1863241,-0.2565456,0.1118539,-0.
 0583009,0.1865881,-0.0774744,0.3345596,-0.1994742,0.0306481,-0.0788873
 ,-0.1021111,0.0032681,0.4043185,-0.5475712,0.2167534,-0.8131305,0.4176
 365,-0.2100677,-0.0241566,-0.0528232,-0.0028996,-0.0911377,-0.0364065,
 0.0228249,1.2553489,-0.2748857,0.6234149,0.0110172,-0.0323102,0.009611
 2,0.6191447,-0.1569213,0.5570604,-0.3069015,0.1690988,-0.3802797,-0.02
 16176,-0.0471899,-0.0241191,-0.4900906,0.3781831,-0.4891122,0.4242321,
 -0.5740366,0.3609741,-0.0429663,-0.0938888,-0.0701168,-0.0224292,0.100
 9833,0.1188822,0.0550109,-0.0390045,-0.0146014,-0.0460905,0.1633235,-0
 .0280269,-0.0144926,-0.0239491,0.0728971,-0.0028342,-0.0162718,0.04337
 81,0.027364,0.1077646,0.0051486,0.0232601,0.0196301,0.0383186,0.081800
 7,0.0093368,-0.0187909,0.0054002,0.1345402,-0.0038222,-0.0094711,0.009
 8463,-0.0098636,-0.6848507,0.2040312,-0.3858096,0.0071438,-0.0109933,0
 .0039351,-0.3830445,0.1188099,-0.2537484,0.0004446,0.0155832,0.0364117
 ,0.0015896,0.1345182,0.0047999,0.0273589,0.0015831,0.071556,0.0572494,
 0.0094839,-0.0104528,0.018767,0.1073119,0.0186701,0.0092781,-0.026997,
 -0.0211508,-0.2645554,-0.0361892,-0.0145614,-0.0438876,-0.0515962,-0.0
 283024,-0.0143936,-0.0237788,-0.2469434\Polar=155.8994139,-41.4905227,
 111.993911,36.8728271,-24.4653851,115.5693772\PG=C01 [X(C6H5Br1Cl1)]\N
 Imag=0\\0.68999911,0.04373425,0.11537268,0.04619026,0.03257056,0.63625
 328,-0.12150134,-0.00720074,0.02516946,0.73191326,-0.00657474,-0.05624
 415,0.00101909,-0.00118306,0.13457604,-0.01579285,-0.01584042,-0.30408
 693,-0.02660558,0.00535993,0.64935283,0.01882655,0.00833798,-0.0551370
 6,-0.28750347,-0.00424246,-0.06602799,0.62718337,0.00105058,0.00692091
 ,-0.00025171,0.00025816,-0.05902987,-0.00014120,-0.00475161,0.12502667
 ,-0.03139869,-0.00064637,-0.02518386,-0.13237150,0.00010292,-0.1879189
 7,0.01913777,0.00630516,0.75120862,-0.00924820,-0.00374463,0.01990246,
 -0.06582997,0.00307569,-0.02852392,-0.23032941,0.00327157,0.12421387,0
 .49972238,0.00023861,-0.00756720,-0.00037044,0.00020730,0.00551936,0.0
 0055290,0.00164725,-0.05833735,-0.00201312,-0.00207222,0.11339814,0.01
 984618,-0.00269689,-0.03164885,0.02718150,-0.00315950,0.05603600,0.056
 55013,-0.00285826,-0.17657032,-0.06145008,0.00580364,0.56916460,-0.051
 54252,0.00444453,0.00833391,-0.01468878,0.00078412,-0.02183186,0.03320
 532,0.00083154,0.02918341,-0.11216343,0.00094724,0.05743932,0.73754641
 ,0.00070026,0.00706800,0.00174613,-0.00026694,-0.00298543,-0.00096412,
 0.00127628,0.00594269,-0.00008945,-0.00042882,-0.05830005,-0.00149005,
 -0.00537413,0.12498879,-0.01524640,0.00858191,0.04503777,-0.02559334,0
 .00149072,-0.04040514,0.06925055,-0.00031054,-0.02244678,-0.01022635,-
 0.00248280,-0.29478905,-0.04325459,0.00427517,0.64089058,-0.25605861,-
 0.01356851,0.06038527,0.02663584,0.00153061,0.05618160,-0.05447656,-0.
 00031648,0.00067630,0.02593312,-0.00138114,-0.08033986,-0.29701642,0.0
 0166560,-0.06072154,0.64656187,0.00228404,-0.05622090,-0.00938762,-0.0
 0091950,0.00708101,0.00118460,0.00225711,-0.00299682,-0.00000956,-0.00
 201708,0.00562720,0.00435229,-0.00174305,-0.05912033,-0.00552878,-0.00
 181237,0.13465705,0.10110806,-0.00214467,-0.16954667,0.03298202,-0.002
 44730,-0.02375599,-0.00314016,0.00033148,-0.00060422,-0.02466190,-0.00
 066316,-0.03583263,-0.12695855,-0.00066863,-0.17831169,0.02164666,0.00
 882951,0.73460943,-0.27042169,-0.03213287,-0.12315748,0.00455860,0.001
 41760,0.00141082,0.00215430,-0.00072872,0.00085720,-0.00032200,0.00011
 094,0.00101436,-0.00275750,-0.00054193,0.00390853,-0.01825974,-0.00243
 269,-0.01480005,0.28367417,-0.03385602,-0.03359525,-0.02011170,0.00126
 881,0.00317787,0.00290262,-0.00098632,0.00519827,0.00004672,0.00048409
 ,-0.00047668,0.00025907,-0.00026992,0.00517946,-0.00105138,0.00372303,
 0.00322516,0.00004885,0.03094017,0.03316824,-0.12313266,-0.01910562,-0
 .13013989,-0.02775331,-0.00353970,-0.01067753,0.00113851,-0.00041929,-
 0.00543774,0.00100889,0.00004198,-0.00147510,0.00362740,-0.00059463,-0
 .00050659,0.01427825,0.00298755,0.01209303,0.13126740,0.01840781,0.134
 27868,0.00467630,0.00007555,-0.00253100,-0.27306694,0.00312053,0.12170
 374,-0.01793473,0.00042283,0.01472812,-0.00239444,0.00011847,-0.002766
 42,0.00010024,-0.00002196,-0.00073766,0.00141002,0.00002108,-0.0007909
 8,0.00053073,0.00000953,0.00031136,0.28661452,-0.00044956,0.00260307,0
 .00094445,0.00352624,-0.03788164,-0.00392891,0.00045271,0.00553119,0.0
 0016111,-0.00040740,0.00775670,0.00026936,-0.00011277,-0.00107775,-0.0
 0027358,0.00031200,0.00540748,0.00007473,0.00043383,-0.00286988,0.0004
 1296,-0.00370991,0.02498595,0.02817455,-0.00020039,-0.01081974,0.12175
 457,-0.00170033,-0.12705629,-0.01633832,0.00005682,0.01143899,-0.00259
 615,-0.00014989,-0.00075712,-0.00064163,-0.00000502,-0.00037462,-0.001
 16874,0.00017095,-0.00576680,-0.00026017,-0.00009449,0.00097217,-0.129
 63259,0.00230735,0.13193734,-0.00469579,-0.00010058,-0.00216963,0.0042
 3272,0.00003799,-0.02818192,-0.05610838,-0.00003695,-0.00268841,0.0019
 3502,0.00037792,0.02819249,-0.00477510,0.00007980,0.00203045,-0.000878
 27,0.00006328,-0.00019982,0.00013780,-0.00003670,-0.00127359,0.0008956
 3,0.00000646,0.00036441,0.05827360,0.00047407,0.00782270,0.00033476,0.
 00010297,0.00413405,-0.00034286,-0.00003506,-0.03631184,-0.00333336,0.
 00012217,0.00170253,-0.00040787,0.00009658,0.00559953,0.00009677,-0.00
 009337,-0.00104590,0.00000521,-0.00020020,0.00000392,0.00024921,-0.000
 13563,-0.00453349,0.00007752,-0.00021093,0.02479907,-0.00256968,-0.000
 24190,0.00063293,0.00177503,0.00001522,-0.00997439,0.00006753,-0.00315
 112,-0.34315378,-0.00303844,-0.00010797,-0.01162567,0.00247135,-0.0000
 6160,0.00068915,0.00008518,-0.00000082,0.00064630,0.00022889,0.0000437
 4,-0.00048826,-0.00009519,0.00008683,0.00075134,0.00173537,0.00349373,
 0.36170671,-0.00166598,0.00141062,-0.00126117,0.00127079,-0.00033789,0
 .00823743,-0.03758303,-0.00027532,-0.02146994,-0.10519328,-0.00037019,
 -0.04283901,-0.01607805,-0.00026935,-0.01287602,0.00564853,-0.00030358
 ,-0.00076106,0.00025728,-0.00018087,0.00000955,-0.00092015,0.00004678,
 -0.00105674,0.00053251,0.00000304,-0.00056951,0.15337496,-0.00020750,-
 0.00084546,-0.00010221,-0.00002376,0.00404317,-0.00010988,0.00038155,0
 .00399012,0.00004044,-0.00041603,-0.01919216,-0.00042286,-0.00024380,0
 .00399262,0.00000106,-0.00000440,0.00403949,-0.00010662,0.00007743,-0.
 00046122,0.00005530,0.00001758,-0.00022029,0.00004052,-0.00003501,-0.0
 0188688,0.00004089,0.00046040,0.00864071,-0.00123842,0.00084169,-0.000
 27302,0.00171093,-0.00011614,0.00142805,-0.00072717,-0.00012580,0.0033
 4253,-0.04283732,-0.00039572,-0.05675664,-0.03362988,-0.00023144,-0.01
 816596,0.00575969,-0.00045720,-0.00294538,0.00000574,-0.00009553,0.000
 25032,0.00011744,0.00003011,-0.00010690,0.00077646,0.00007643,0.001150
 96,0.07227769,0.00056630,0.07165637,-0.00268311,-0.00020821,-0.0036978
 1,0.00022722,0.00000305,-0.00054119,0.00129721,0.00001868,-0.00096045,
 0.00243250,0.00001219,-0.00331818,-0.27478538,0.00283054,0.12365803,-0
 .01784589,0.00060781,0.01425019,-0.00078231,0.00004581,0.00074558,-0.0
 0002012,-0.00001384,0.00007198,0.00027280,-0.00000457,-0.00011045,0.00
 109082,-0.00003733,-0.00088455,0.28973105,0.00058468,0.00782122,0.0000
 9836,-0.00007481,-0.00104559,-0.00006475,0.00015547,0.00559624,-0.0001
 8524,0.00028990,0.00170723,0.00005338,0.00261399,-0.03631532,-0.001800
 61,-0.00030878,0.00414286,0.00025073,0.00011215,-0.00000506,-0.0002968
 6,-0.00001800,-0.00078603,-0.00000289,0.00002600,0.00040545,-0.0000191
 7,0.00004094,-0.00188825,0.00002889,-0.00309805,0.02480144,-0.00331711
 ,-0.00012300,-0.00137836,-0.00082304,0.00007805,-0.00046009,-0.0014028
 6,-0.00011638,-0.00537872,0.02791197,-0.00025871,-0.01212835,0.1209046
 3,-0.00185841,-0.12447216,-0.01569482,0.00038964,0.01209464,-0.0007554
 8,-0.00003468,0.00044100,0.00006554,0.00000439,0.00007357,0.00135674,-
 0.00000260,-0.00043172,0.00046001,-0.00000346,0.00059443,-0.12907976,0
 .00194343,0.13024608,0.00392511,0.00045441,0.02858650,-0.00486180,0.00
 033728,0.00237679,-0.00085439,-0.00002014,-0.00010330,-0.00344996,0.00
 002429,-0.00200563,0.00364265,-0.00032571,-0.02852612,-0.05813643,0.00
 031285,0.00028755,0.00089265,-0.00013387,-0.00045669,0.00012090,-0.000
 01263,0.00137643,0.00010948,-0.00002252,-0.00000117,-0.00070505,0.0000
 2490,-0.00117804,0.00090173,-0.00005911,0.00036188,0.05832697,0.000539
 60,0.00256985,-0.00147957,0.00040469,0.00540109,0.00010125,-0.00030090
 ,-0.00107264,0.00007281,0.00012703,0.00774637,-0.00062085,0.00044042,0
 .00553729,0.00033530,-0.00142900,-0.03781965,-0.00146927,0.00052869,-0
 .00286908,0.00025425,-0.00001347,0.00054301,-0.00004655,-0.00001426,-0
 .00078591,0.00000135,0.00005509,-0.00022085,0.00003837,0.00000918,-0.0
 0453525,0.00007079,-0.00024402,0.02495228,-0.00211182,-0.00007621,-0.0
 1003633,0.00274646,-0.00020552,0.00051121,-0.00018775,0.00002158,0.000
 57327,-0.00217315,0.00004431,0.00030817,0.00253207,-0.00002441,-0.0101
 3874,0.00025287,-0.00292114,-0.34204916,0.00009952,0.00012926,0.000609
 16,-0.00022820,-0.00000891,-0.00052736,-0.00000766,0.00000145,-0.00005
 626,-0.00000263,-0.00000608,-0.00032014,-0.00010115,-0.00004275,0.0007
 4716,-0.00061770,0.00277327,0.36025658,0.00039017,-0.00150181,-0.00061
 372,-0.00138613,0.00203127,-0.00240507,0.00212323,0.00027589,0.0001956
 3,-0.00109233,0.00013934,0.00249520,-0.00068743,0.00067635,-0.00166553
 ,-0.00351746,0.00368208,0.00103804,0.00033772,-0.00100775,0.00022930,-
 0.00001196,-0.00007191,-0.00004762,0.00006799,-0.00009654,0.00002109,-
 0.00002935,0.00000597,-0.00015256,0.00016347,-0.00026439,0.00001230,0.
 00008814,-0.00010305,-0.00020086,0.00355393,-0.00851827,0.00429454,-0.
 00501011,0.00390063,-0.00674591,0.01129081,-0.00419200,-0.00045757,-0.
 00045206,0.00171574,0.00041589,0.00091852,-0.00241475,-0.00050950,-0.0
 0333324,0.01168281,-0.00697666,-0.00204086,0.00241559,-0.00967576,0.00
 154702,0.00011339,0.00054168,-0.00045360,-0.00015702,0.00009677,-0.000
 09918,-0.00027966,0.00000901,-0.00015997,-0.00016527,0.00010108,-0.000
 08905,-0.00033574,0.00055347,0.00031515,-0.00376544,0.01835298,-0.0005
 1143,-0.00091868,0.00118969,-0.00017318,0.00310256,-0.00299277,-0.0031
 8318,0.00065923,0.00013098,0.00247012,-0.00000102,-0.00392504,0.001824
 43,-0.00003356,0.00299322,-0.00134089,0.00039057,-0.00063086,0.0001807
 2,-0.00045030,0.00008076,-0.00014417,-0.00007989,0.00023542,0.00006513
 ,-0.00024838,0.00015268,-0.00014861,0.00000660,0.00014538,-0.00003223,
 0.00003747,0.00005253,-0.00010051,-0.00003116,0.00012244,0.00109380,-0
 .00243344,0.00244557\\0.00001103,-0.00008433,0.00000741,-0.00004343,-0
 .00003952,0.00001483,-0.00004538,0.00002705,-0.00003342,0.00016849,0.0
 0000197,0.00009736,-0.00005024,0.00002675,-0.00002277,-0.00000952,-0.0
 0004029,-0.00004336,-0.00001065,-0.00000375,-0.00000623,0.00000453,-0.
 00000596,0.00001351,-0.00000302,0.00000846,0.00002420,-0.00006668,-0.0
 0000775,-0.00003861,0.00001959,0.00000801,-0.00001467,0.00001358,-0.00
 000566,-0.00000254,0.00001169,0.00011502,0.00000428\\\@


 IN THE LONG RUN, DIGGING FOR TRUTH HAS ALWAYS PROVED NOT ONLY 
 MORE INTERESTING BUT MORE PROFITABLE THAN DIGGING FOR GOLD.

                             -- GEORGE R. HARRISON
 Job cpu time:  0 days  8 hours 26 minutes  3.0 seconds.
 File lengths (MBytes):  RWF=    207 Int=      0 D2E=      0 Chk=     14 Scr=      1
 Normal termination of Gaussian 03 at Mon Sep  4 13:30:09 2006.
