 Entering Gaussian System, Link 0=/usr/local/Gaussian/g03/g03
 Initial command:
 /usr/local/Gaussian/g03/l1.exe /export/scratch//webmo/3303/Gau-21288.inp -scrdir=/export/scratch//webmo/3303/
 Entering Link 1 = /usr/local/Gaussian/g03/l1.exe PID=     21293.
  
 Copyright (c) 1988,1990,1992,1993,1995,1998,2003, Gaussian, Inc.
                  All Rights Reserved.
  
 This is the Gaussian(R) 03 program.  It is based on the
 the Gaussian(R) 98 system (copyright 1998, Gaussian, Inc.),
 the Gaussian(R) 94 system (copyright 1995, Gaussian, Inc.),
 the Gaussian 92(TM) system (copyright 1992, Gaussian, Inc.),
 the Gaussian 90(TM) system (copyright 1990, Gaussian, Inc.),
 the Gaussian 88(TM) system (copyright 1988, Gaussian, Inc.),
 the Gaussian 86(TM) system (copyright 1986, Carnegie Mellon
 University), and the Gaussian 82(TM) system (copyright 1983,
 Carnegie Mellon University). Gaussian is a federally registered
 trademark of Gaussian, Inc.
  
 This software contains proprietary and confidential information,
 including trade secrets, belonging to Gaussian, Inc.
  
 This software is provided under written license and may be
 used, copied, transmitted, or stored only in accord with that
 written license.
  
 The following legend is applicable only to US Government
 contracts under DFARS:
  
                    RESTRICTED RIGHTS LEGEND
  
 Use, duplication or disclosure by the US Government is subject
 to restrictions as set forth in subparagraph (c)(1)(ii) of the
 Rights in Technical Data and Computer Software clause at DFARS
 252.227-7013.
  
 Gaussian, Inc.
 Carnegie Office Park, Building 6, Pittsburgh, PA 15106 USA
  
 The following legend is applicable only to US Government
 contracts under FAR:
  
                    RESTRICTED RIGHTS LEGEND
  
 Use, reproduction and disclosure by the US Government is subject
 to restrictions as set forth in subparagraph (c) of the
 Commercial Computer Software - Restricted Rights clause at FAR
 52.227-19.
  
 Gaussian, Inc.
 Carnegie Office Park, Building 6, Pittsburgh, PA 15106 USA
  
  
 ---------------------------------------------------------------
 Warning -- This program may not be used in any manner that
 competes with the business of Gaussian, Inc. or will provide
 assistance to any competitor of Gaussian, Inc.  The licensee
 of this program is prohibited from giving any competitor of
 Gaussian, Inc. access to this program.  By using this program,
 the user acknowledges that Gaussian, Inc. is engaged in the
 business of creating and licensing software in the field of
 computational chemistry and represents and warrants to the
 licensee that it is not a competitor of Gaussian, Inc. and that
 it will not use this program in any manner prohibited above.
 ---------------------------------------------------------------
  

 Cite this work as:
 Gaussian 03, Revision B.04,
 M. J. Frisch, G. W. Trucks, H. B. Schlegel, G. E. Scuseria, 
 M. A. Robb, J. R. Cheeseman, J. A. Montgomery, Jr., T. Vreven, 
 K. N. Kudin, J. C. Burant, J. M. Millam, S. S. Iyengar, J. Tomasi, 
 V. Barone, B. Mennucci, M. Cossi, G. Scalmani, N. Rega, 
 G. A. Petersson, H. Nakatsuji, M. Hada, M. Ehara, K. Toyota, 
 R. Fukuda, J. Hasegawa, M. Ishida, T. Nakajima, Y. Honda, O. Kitao, 
 H. Nakai, M. Klene, X. Li, J. E. Knox, H. P. Hratchian, J. B. Cross, 
 C. Adamo, J. Jaramillo, R. Gomperts, R. E. Stratmann, O. Yazyev, 
 A. J. Austin, R. Cammi, C. Pomelli, J. W. Ochterski, P. Y. Ayala, 
 K. Morokuma, G. A. Voth, P. Salvador, J. J. Dannenberg, 
 V. G. Zakrzewski, S. Dapprich, A. D. Daniels, M. C. Strain, 
 O. Farkas, D. K. Malick, A. D. Rabuck, K. Raghavachari, 
 J. B. Foresman, J. V. Ortiz, Q. Cui, A. G. Baboul, S. Clifford, 
 J. Cioslowski, B. B. Stefanov, G. Liu, A. Liashenko, P. Piskorz, 
 I. Komaromi, R. L. Martin, D. J. Fox, T. Keith, M. A. Al-Laham, 
 C. Y. Peng, A. Nanayakkara, M. Challacombe, P. M. W. Gill, 
 B. Johnson, W. Chen, M. W. Wong, C. Gonzalez, and J. A. Pople, 
 Gaussian, Inc., Pittsburgh PA, 2003.
 
 ***************************************************
 Gaussian 03:  Sun64-SVR4-Unix-G03RevB.04 2-Jun-2003
                     29-Aug-2006 
 ***************************************************
 ------------------------------
 #P B3LYP/6-311+G(d,p) OPT FREQ
 ------------------------------
 1/14=-1,18=20,26=3,38=1/1,3;
 2/9=110,17=6,18=5,40=1/2;
 3/5=4,6=6,7=111,11=2,16=1,25=1,30=1,74=-5/1,2,3;
 4//1;
 5/5=2,38=5/2;
 6/7=2,8=2,9=2,10=2,28=1/1;
 7//1,2,3,16;
 1/14=-1,18=20/3(1);
 99//99;
 2/9=110/2;
 3/5=4,6=6,7=111,11=2,16=1,25=1,30=1,74=-5/1,2,3;
 4/5=5,16=3/1;
 5/5=2,38=5/2;
 7//1,2,3,16;
 1/14=-1,18=20/3(-5);
 2/9=110/2;
 6/7=2,8=2,9=2,10=2,19=2,28=1/1;
 99/9=1/99;
 Leave Link    1 at Tue Aug 29 08:01:03 2006, MaxMem=          0 cpu:       0.2
 (Enter /usr/local/Gaussian/g03/l101.exe)
 -----------------
 toluene\cl basis2
 -----------------
 Symbolic Z-matrix:
 Charge =  0 Multiplicity = 2
 C
 C                    1    B1
 C                    1    B2       2    A1
 C                    1    B3       2    A2       3    D1       0
 C                    1    B4       2    A3       3    D2       0
 C                    1    B5       2    A4       3    D3       0
 C                    1    B6       2    A5       3    D4       0
 H                    1    B7       2    A6       3    D5       0
 H                    1    B8       2    A7       3    D6       0
 H                    1    B9       2    A8       3    D7       0
 H                    1    B10      2    A9       3    D8       0
 H                    1    B11      2    A10      3    D9       0
 H                    1    B12      2    A11      3    D10      0
 H                    1    B13      2    A12      3    D11      0
 H                    1    B14      2    A13      3    D12      0
 Cl                   1    B15      2    A14      3    D13      0
       Variables:
  A10                 144.83511                  
  A11                 116.03898                  
  A12                  95.69125                  
  B1                    1.40353                  
  A13                 143.7401                   
  B2                    2.42134                  
  A14                  65.69158                  
  B3                    2.80755                  
  B4                    2.4213                   
  B5                    1.40337                  
  B6                    1.50218                  
  B7                    2.15276                  
  B8                    3.40449                  
  B10                   3.40441                  
  B9                    3.8822                   
  B11                   2.15262                  
  B12                   2.14787                  
  B13                   2.15635                  
  B14                   2.15651                  
  B15                   4.26906                  
  D10                -146.91936                  
  D11                 167.08817                  
  D12                 158.85371                  
  D13                  40.14286                  
  D1                    0.33992                  
  D2                   -0.01996                  
  D3                   -0.03653                  
  A1                   29.26056                  
  D4                 -179.05557                  
  A2                   59.38517                  
  D5                  179.65999                  
  A3                   89.50737                  
  A4                  118.77154                  
  D6                    0.27509                  
  D7                   -1.97982                  
  A5                  120.59648                  
  D8                    0.06987                  
  A6                   26.06331                  
  D9                    0.1957                   
  A7                   20.1989                   
  A8                   59.39918                  
  A9                   98.57073                  
 
                    Isotopes and Nuclear Properties:

  Atom         1           2           3           4           5           6           7           8           9          10
 IAtWgt=          12          12          12          12          12          12          12           1           1           1
 AtmWgt=  12.0000000  12.0000000  12.0000000  12.0000000  12.0000000  12.0000000  12.0000000   1.0078250   1.0078250   1.0078250
 IAtSpn=           0           0           0           0           0           0           0           1           1           1
 AtZEff=   0.0000000   0.0000000   0.0000000   0.0000000   0.0000000   0.0000000   0.0000000   0.0000000   0.0000000   0.0000000
 AtQMom=   0.0000000   0.0000000   0.0000000   0.0000000   0.0000000   0.0000000   0.0000000   0.0000000   0.0000000   0.0000000
 AtGFac=   0.0000000   0.0000000   0.0000000   0.0000000   0.0000000   0.0000000   0.0000000   2.7928460   2.7928460   2.7928460

  Atom        11          12          13          14          15          16
 IAtWgt=           1           1           1           1           1          35
 AtmWgt=   1.0078250   1.0078250   1.0078250   1.0078250   1.0078250  34.9688527
 IAtSpn=           1           1           1           1           1           3
 AtZEff=   0.0000000   0.0000000   0.0000000   0.0000000   0.0000000   0.0000000
 AtQMom=   0.0000000   0.0000000   0.0000000   0.0000000   0.0000000  -8.2490000
 AtGFac=   2.7928460   2.7928460   2.7928460   2.7928460   2.7928460   0.8218740
 Leave Link  101 at Tue Aug 29 08:01:04 2006, MaxMem=    6291456 cpu:       0.2
 (Enter /usr/local/Gaussian/g03/l103.exe)

 GradGradGradGradGradGradGradGradGradGradGradGradGradGradGradGradGradGrad
 Berny optimization.
 Initialization pass.
                           ----------------------------
                           !    Initial Parameters    !
                           ! (Angstroms and Degrees)  !
 --------------------------                            --------------------------
 ! Name  Definition              Value          Derivative Info.                !
 --------------------------------------------------------------------------------
 ! R1    R(1,2)                  1.4035         estimate D2E/DX2                !
 ! R2    R(1,6)                  1.4034         estimate D2E/DX2                !
 ! R3    R(1,7)                  1.5022         estimate D2E/DX2                !
 ! R4    R(2,3)                  1.3796         estimate D2E/DX2                !
 ! R5    R(2,8)                  1.0844         estimate D2E/DX2                !
 ! R6    R(3,4)                  1.4091         estimate D2E/DX2                !
 ! R7    R(3,9)                  1.0828         estimate D2E/DX2                !
 ! R8    R(3,16)                 3.1022         estimate D2E/DX2                !
 ! R9    R(4,5)                  1.4091         estimate D2E/DX2                !
 ! R10   R(4,10)                 1.0808         estimate D2E/DX2                !
 ! R11   R(4,16)                 2.5765         estimate D2E/DX2                !
 ! R12   R(5,6)                  1.3797         estimate D2E/DX2                !
 ! R13   R(5,11)                 1.0828         estimate D2E/DX2                !
 ! R14   R(5,16)                 3.1011         estimate D2E/DX2                !
 ! R15   R(6,12)                 1.0843         estimate D2E/DX2                !
 ! R16   R(7,13)                 1.0963         estimate D2E/DX2                !
 ! R17   R(7,14)                 1.0917         estimate D2E/DX2                !
 ! R18   R(7,15)                 1.0917         estimate D2E/DX2                !
 ! R19   R(10,16)                2.658          estimate D2E/DX2                !
 ! A1    A(2,1,6)              118.7715         estimate D2E/DX2                !
 ! A2    A(2,1,7)              120.5965         estimate D2E/DX2                !
 ! A3    A(6,1,7)              120.6246         estimate D2E/DX2                !
 ! A4    A(1,2,3)              120.9195         estimate D2E/DX2                !
 ! A5    A(1,2,8)              119.2783         estimate D2E/DX2                !
 ! A6    A(3,2,8)              119.8013         estimate D2E/DX2                !
 ! A7    A(2,3,4)              120.1023         estimate D2E/DX2                !
 ! A8    A(2,3,9)              120.4946         estimate D2E/DX2                !
 ! A9    A(2,3,16)             115.8726         estimate D2E/DX2                !
 ! A10   A(4,3,9)              119.3953         estimate D2E/DX2                !
 ! A11   A(9,3,16)              96.5751         estimate D2E/DX2                !
 ! A12   A(3,4,5)              119.1709         estimate D2E/DX2                !
 ! A13   A(3,4,10)             120.0807         estimate D2E/DX2                !
 ! A14   A(5,4,10)             120.0815         estimate D2E/DX2                !
 ! A15   A(4,5,6)              120.1027         estimate D2E/DX2                !
 ! A16   A(4,5,11)             119.3966         estimate D2E/DX2                !
 ! A17   A(6,5,11)             120.493          estimate D2E/DX2                !
 ! A18   A(6,5,16)             115.8803         estimate D2E/DX2                !
 ! A19   A(11,5,16)             96.5358         estimate D2E/DX2                !
 ! A20   A(1,6,5)              120.9187         estimate D2E/DX2                !
 ! A21   A(1,6,12)             119.2801         estimate D2E/DX2                !
 ! A22   A(5,6,12)             119.8003         estimate D2E/DX2                !
 ! A23   A(1,7,13)             110.5245         estimate D2E/DX2                !
 ! A24   A(1,7,14)             111.4875         estimate D2E/DX2                !
 ! A25   A(1,7,15)             111.5055         estimate D2E/DX2                !
 ! A26   A(13,7,14)            107.3096         estimate D2E/DX2                !
 ! A27   A(13,7,15)            107.3367         estimate D2E/DX2                !
 ! A28   A(14,7,15)            108.4907         estimate D2E/DX2                !
 ! A29   A(3,16,5)              46.1312         estimate D2E/DX2                !
 ! A30   A(3,16,10)             43.268          estimate D2E/DX2                !
 ! A31   A(5,16,10)             43.2801         estimate D2E/DX2                !
 ! D1    D(6,1,2,3)             -0.0365         estimate D2E/DX2                !
 ! D2    D(6,1,2,8)           -179.6965         estimate D2E/DX2                !
 ! D3    D(7,1,2,3)           -179.0556         estimate D2E/DX2                !
 ! D4    D(7,1,2,8)              1.2844         estimate D2E/DX2                !
 ! D5    D(2,1,6,5)              0.0339         estimate D2E/DX2                !
 ! D6    D(2,1,6,12)           179.6956         estimate D2E/DX2                !
 ! D7    D(7,1,6,5)            179.0527         estimate D2E/DX2                !
 ! D8    D(7,1,6,12)            -1.2856         estimate D2E/DX2                !
 ! D9    D(2,1,7,13)            88.8743         estimate D2E/DX2                !
 ! D10   D(2,1,7,14)           -30.3879         estimate D2E/DX2                !
 ! D11   D(2,1,7,15)          -151.8178         estimate D2E/DX2                !
 ! D12   D(6,1,7,13)           -90.1264         estimate D2E/DX2                !
 ! D13   D(6,1,7,14)           150.6113         estimate D2E/DX2                !
 ! D14   D(6,1,7,15)            29.1815         estimate D2E/DX2                !
 ! D15   D(1,2,3,4)             -0.6737         estimate D2E/DX2                !
 ! D16   D(1,2,3,9)           -179.6534         estimate D2E/DX2                !
 ! D17   D(1,2,3,16)           -63.9758         estimate D2E/DX2                !
 ! D18   D(8,2,3,4)            178.9845         estimate D2E/DX2                !
 ! D19   D(8,2,3,9)              0.0048         estimate D2E/DX2                !
 ! D20   D(8,2,3,16)           115.6824         estimate D2E/DX2                !
 ! D21   D(2,3,4,5)              1.3702         estimate D2E/DX2                !
 ! D22   D(2,3,4,10)           172.0201         estimate D2E/DX2                !
 ! D23   D(9,3,4,5)           -179.6389         estimate D2E/DX2                !
 ! D24   D(9,3,4,10)            -8.989          estimate D2E/DX2                !
 ! D25   D(2,3,16,5)            77.6914         estimate D2E/DX2                !
 ! D26   D(2,3,16,10)          140.8136         estimate D2E/DX2                !
 ! D27   D(9,3,16,5)          -153.7274         estimate D2E/DX2                !
 ! D28   D(9,3,16,10)          -90.6052         estimate D2E/DX2                !
 ! D29   D(3,4,5,6)             -1.3728         estimate D2E/DX2                !
 ! D30   D(3,4,5,11)           179.6362         estimate D2E/DX2                !
 ! D31   D(10,4,5,6)          -172.0226         estimate D2E/DX2                !
 ! D32   D(10,4,5,11)            8.9864         estimate D2E/DX2                !
 ! D33   D(4,5,6,1)              0.679          estimate D2E/DX2                !
 ! D34   D(4,5,6,12)          -178.981          estimate D2E/DX2                !
 ! D35   D(11,5,6,1)           179.6588         estimate D2E/DX2                !
 ! D36   D(11,5,6,12)           -0.0012         estimate D2E/DX2                !
 ! D37   D(16,5,6,1)            64.0317         estimate D2E/DX2                !
 ! D38   D(16,5,6,12)         -115.6283         estimate D2E/DX2                !
 ! D39   D(6,5,16,3)           -77.7142         estimate D2E/DX2                !
 ! D40   D(6,5,16,10)         -140.8111         estimate D2E/DX2                !
 ! D41   D(11,5,16,3)          153.7305         estimate D2E/DX2                !
 ! D42   D(11,5,16,10)          90.6336         estimate D2E/DX2                !
 --------------------------------------------------------------------------------
 Trust Radius=3.00D-01 FncErr=1.00D-07 GrdErr=1.00D-06
 Number of steps in this run= 100 maximum allowed number of steps= 100.
 GradGradGradGradGradGradGradGradGradGradGradGradGradGradGradGradGradGrad

 Leave Link  103 at Tue Aug 29 08:01:05 2006, MaxMem=    6291456 cpu:       0.0
 (Enter /usr/local/Gaussian/g03/l202.exe)
                          Input orientation:                          
 ---------------------------------------------------------------------
 Center     Atomic     Atomic              Coordinates (Angstroms)
 Number     Number      Type              X           Y           Z
 ---------------------------------------------------------------------
    1          6             0        0.000000    0.000000    0.000000
    2          6             0        0.000000    0.000000    1.403531
    3          6             0        1.183510    0.000000    2.112395
    4          6             0        2.416165   -0.014334    1.429785
    5          6             0        2.421209    0.000843    0.020818
    6          6             0        1.230121    0.000784   -0.675469
    7          6             0       -1.292857    0.021313   -0.764590
    8          1             0       -0.945828   -0.005613    1.933842
    9          1             0        1.175489   -0.005644    3.195112
   10          1             0        3.339554    0.115442    1.976251
   11          1             0        3.366391   -0.004105   -0.507360
   12          1             0        1.239755   -0.004234   -1.759764
   13          1             0       -1.617028    1.053349   -0.942877
   14          1             0       -2.091468   -0.479465   -0.213841
   15          1             0       -1.189579   -0.460125   -1.738886
   16         17             0        2.974112   -2.508239    1.757352
 ---------------------------------------------------------------------
                    Distance matrix (angstroms):
                    1          2          3          4          5
     1  C    0.000000
     2  C    1.403531   0.000000
     3  C    2.421345   1.379560   0.000000
     4  C    2.807551   2.416350   1.409113   0.000000
     5  C    2.421298   2.788216   2.430349   1.409058   0.000000
     6  C    1.403373   2.415665   2.788254   2.416407   1.379676
     7  C    1.502175   2.524417   3.796036   4.309686   3.796257
     8  H    2.152758   1.084367   2.136818   3.399580   3.872549
     9  H    3.404489   2.142795   1.082761   2.157714   3.409986
    10  H    3.882205   3.390274   2.163420   1.080793   2.163379
    11  H    3.404412   3.870932   3.410001   2.157676   1.082759
    12  H    2.152622   3.397565   3.872570   3.399598   2.136897
    13  H    2.147868   3.038083   4.276358   4.799595   4.282969
    14  H    2.156352   2.687009   4.045583   4.820436   4.544229
    15  H    2.156511   3.391400   4.547047   4.820850   4.043122
    16  Cl   4.269062   3.906634   3.102188   2.576463   3.101088
                    6          7          8          9         10
     6  C    0.000000
     7  C    2.524635   0.000000
     8  H    3.397543   2.720789   0.000000
     9  H    3.870972   4.666122   2.467952   0.000000
    10  H    3.390350   5.383335   4.287301   2.486657   0.000000
    11  H    2.142880   4.666413   4.955270   4.302134   2.486632
    12  H    1.084349   2.721240   4.291795   4.955293   4.287340
    13  H    3.047237   1.096344   3.138060   5.103191   5.828265
    14  H    3.387727   1.091734   2.479832   4.745363   5.886121
    15  H    2.682954   1.091651   3.708764   5.490395   5.886133
    16  Cl   3.905806   5.564696   4.654053   3.400762   2.658038
                   11         12         13         14         15
    11  H    0.000000
    12  H    2.468014   0.000000
    13  H    5.112959   3.153886   0.000000
    14  H    5.486379   3.703076   1.762414   0.000000
    15  H    4.741464   2.471829   1.762653   1.771875   0.000000
    16  Cl   3.399042   4.652756   6.407394   5.801864   5.809886
                   16
    16  Cl   0.000000
 Stoichiometry    C7H8Cl(2)
 Framework group  C1[X(C7H8Cl)]
 Deg. of freedom    42
 Full point group                 C1      NOp   1
 Largest Abelian subgroup         C1      NOp   1
 Largest concise Abelian subgroup C1      NOp   1
                         Standard orientation:                         
 ---------------------------------------------------------------------
 Center     Atomic     Atomic              Coordinates (Angstroms)
 Number     Number      Type              X           Y           Z
 ---------------------------------------------------------------------
    1          6             0        1.671322   -0.000558   -0.140735
    2          6             0        1.034940    1.207937    0.182462
    3          6             0       -0.194577    1.216437    0.808082
    4          6             0       -0.837388    0.001824    1.119706
    5          6             0       -0.195528   -1.213910    0.810755
    6          6             0        1.034074   -1.207727    0.185018
    7          6             0        3.019673   -0.001423   -0.802913
    8          1             0        1.517677    2.145543   -0.069949
    9          1             0       -0.681902    2.152775    1.049241
   10          1             0       -1.734826    0.002832    1.721967
   11          1             0       -0.683527   -2.149356    1.053992
   12          1             0        1.516041   -2.146249   -0.065376
   13          1             0        3.817279    0.010389   -0.050812
   14          1             0        3.155625    0.878691   -1.434419
   15          1             0        3.163855   -0.893069   -1.416002
   16         17             0       -2.545019   -0.001002   -0.809582
 ---------------------------------------------------------------------
 Rotational constants (GHZ):      3.1239771      0.9748330      0.9394754
 Leave Link  202 at Tue Aug 29 08:01:06 2006, MaxMem=    6291456 cpu:       0.4
 (Enter /usr/local/Gaussian/g03/l301.exe)
 Standard basis: 6-311+G(d,p) (5D, 7F)
 There are   232 symmetry adapted basis functions of A   symmetry.
 Integral buffers will be    131072 words long.
 Raffenetti 2 integral format.
 Two-electron integral symmetry is turned on.
   232 basis functions,   369 primitive gaussians,   240 cartesian basis functions
    34 alpha electrons       33 beta electrons
       nuclear repulsion energy       391.9293203018 Hartrees.
 IExCor= 402 DFT=T Ex=B+HF Corr=LYP ExCW=0 ScaHFX=  0.200000
 ScaDFX=  0.800000  0.720000  1.000000  0.810000
 IRadAn=      0 IRanWt=     -1 IRanGd=            0 ICorTp=0
 NAtoms=   16 NActive=   16 NUniq=   16 SFac= 1.00D+00 NAtFMM=   60 Big=F
 Leave Link  301 at Tue Aug 29 08:01:08 2006, MaxMem=    6291456 cpu:       0.1
 (Enter /usr/local/Gaussian/g03/l302.exe)
 NPDir=0 NMtPBC=     1 NCelOv=     1 NCel=       1 NClECP=     1 NCelD=      1
         NCelK=      1 NCelE2=     1 NClLst=     1 CellRange=     0.0.
 One-electron integrals computed using PRISM.
 NBasis=   232 RedAO= T  NBF=   232
 NBsUse=   232 1.00D-06 NBFU=   232
 Precomputing XC quadrature grid using
 IXCGrd= 2 IRadAn=           0 IRanWt=          -1 IRanGd=           0.
 NRdTot=    1029 NPtTot=      130490 NUsed=      137758 NTot=      137790
 NSgBfM=   239   239   239   239.
 Leave Link  302 at Tue Aug 29 08:01:18 2006, MaxMem=    6291456 cpu:       2.9
 (Enter /usr/local/Gaussian/g03/l303.exe)
 DipDrv:  MaxL=1.
 Leave Link  303 at Tue Aug 29 08:01:19 2006, MaxMem=    6291456 cpu:       0.2
 (Enter /usr/local/Gaussian/g03/l401.exe)
 Harris functional with IExCor=  402 diagonalized for initial guess.
 ExpMin= 4.38D-02 ExpMax= 1.06D+05 ExpMxC= 3.62D+03 IAcc=2 IRadAn=         4 AccDes= 0.00D+00
 HarFok:  IExCor= 402 AccDes= 0.00D+00 IRadAn=         4 IDoV=1
 ScaDFX=  1.000000  1.000000  1.000000  1.000000
 Harris En= -731.929058278428    
 Initial guess orbital symmetries:
 Alpha Orbitals:
       Occupied  (A) (A) (A) (A) (A) (A) (A) (A) (A) (A) (A) (A)
                 (A) (A) (A) (A) (A) (A) (A) (A) (A) (A) (A) (A)
                 (A) (A) (A) (A) (A) (A) (A) (A) (A) (A)
       Virtual   (A) (A) (A) (A) (A) (A) (A) (A) (A) (A) (A) (A)
                 (A) (A) (A) (A) (A) (A) (A) (A) (A) (A) (A) (A)
                 (A) (A) (A) (A) (A) (A) (A) (A) (A) (A) (A) (A)
                 (A) (A) (A) (A) (A) (A) (A) (A) (A) (A) (A) (A)
                 (A) (A) (A) (A) (A) (A) (A) (A) (A) (A) (A) (A)
                 (A) (A) (A) (A) (A) (A) (A) (A) (A) (A) (A) (A)
                 (A) (A) (A) (A) (A) (A) (A) (A) (A) (A) (A) (A)
                 (A) (A) (A) (A) (A) (A) (A) (A) (A) (A) (A) (A)
                 (A) (A) (A) (A) (A) (A) (A) (A) (A) (A) (A) (A)
                 (A) (A) (A) (A) (A) (A) (A) (A) (A) (A) (A) (A)
                 (A) (A) (A) (A) (A) (A) (A) (A) (A) (A) (A) (A)
                 (A) (A) (A) (A) (A) (A) (A) (A) (A) (A) (A) (A)
                 (A) (A) (A) (A) (A) (A) (A) (A) (A) (A) (A) (A)
                 (A) (A) (A) (A) (A) (A) (A) (A) (A) (A) (A) (A)
                 (A) (A) (A) (A) (A) (A) (A) (A) (A) (A) (A) (A)
                 (A) (A) (A) (A) (A) (A) (A) (A) (A) (A) (A) (A)
                 (A) (A) (A) (A) (A) (A)
 Beta  Orbitals:
       Occupied  (A) (A) (A) (A) (A) (A) (A) (A) (A) (A) (A) (A)
                 (A) (A) (A) (A) (A) (A) (A) (A) (A) (A) (A) (A)
                 (A) (A) (A) (A) (A) (A) (A) (A) (A)
       Virtual   (A) (A) (A) (A) (A) (A) (A) (A) (A) (A) (A) (A)
                 (A) (A) (A) (A) (A) (A) (A) (A) (A) (A) (A) (A)
                 (A) (A) (A) (A) (A) (A) (A) (A) (A) (A) (A) (A)
                 (A) (A) (A) (A) (A) (A) (A) (A) (A) (A) (A) (A)
                 (A) (A) (A) (A) (A) (A) (A) (A) (A) (A) (A) (A)
                 (A) (A) (A) (A) (A) (A) (A) (A) (A) (A) (A) (A)
                 (A) (A) (A) (A) (A) (A) (A) (A) (A) (A) (A) (A)
                 (A) (A) (A) (A) (A) (A) (A) (A) (A) (A) (A) (A)
                 (A) (A) (A) (A) (A) (A) (A) (A) (A) (A) (A) (A)
                 (A) (A) (A) (A) (A) (A) (A) (A) (A) (A) (A) (A)
                 (A) (A) (A) (A) (A) (A) (A) (A) (A) (A) (A) (A)
                 (A) (A) (A) (A) (A) (A) (A) (A) (A) (A) (A) (A)
                 (A) (A) (A) (A) (A) (A) (A) (A) (A) (A) (A) (A)
                 (A) (A) (A) (A) (A) (A) (A) (A) (A) (A) (A) (A)
                 (A) (A) (A) (A) (A) (A) (A) (A) (A) (A) (A) (A)
                 (A) (A) (A) (A) (A) (A) (A) (A) (A) (A) (A) (A)
                 (A) (A) (A) (A) (A) (A) (A)
 The electronic state of the initial guess is 2-A.
 <S**2> of initial guess= 0.7500
 Leave Link  401 at Tue Aug 29 08:03:15 2006, MaxMem=    6291456 cpu:      36.4
 (Enter /usr/local/Gaussian/g03/l502.exe)
 UHF open shell SCF:
 Requested convergence on RMS density matrix=1.00D-08 within 128 cycles.
 Requested convergence on MAX density matrix=1.00D-06.
 Requested convergence on             energy=1.00D-06.
 No special actions if energy rises.
 Using DIIS extrapolation, IDIIS=  1040.
 Integral symmetry usage will be decided dynamically.
       137757 words used for storage of precomputed grid.
 IEnd=    359336 IEndB=    359336 NGot=   6291456 MDV=   6006601
 LenX=   6006601
 Fock matrices will be formed incrementally for  20 cycles.

 Cycle   1  Pass 1  IDiag  1:
 Petite list used in FoFDir.
 MinBra= 0 MaxBra= 2 Meth= 1.
 IRaf=       0 NMat=   1 IRICut=       1 DoRegI=T DoRafI=F ISym2E= 1 JSym2E=1.
 E= -731.564328704766    
 DIIS: error= 2.78D-02 at cycle   1 NSaved=   1.
 NSaved= 1 IEnMin= 1 EnMin= -731.564328704766     IErMin= 1 ErrMin= 2.78D-02
 ErrMax= 2.78D-02 EMaxC= 1.00D-01 BMatC= 1.02D+00 BMatP= 1.02D+00
 IDIUse=3 WtCom= 7.22D-01 WtEn= 2.78D-01
 Coeff-Com:  0.100D+01
 Coeff-En:   0.100D+01
 Coeff:      0.100D+01
 Gap=     0.328 Goal=   None    Shift=    0.000
 Gap=     0.138 Goal=   None    Shift=    0.000
 GapD=    0.138 DampG=1.000 DampE=0.500 DampFc=0.5000 IDamp=-1.
 Damping current iteration by 5.00D-01
 RMSDP=1.11D-02 MaxDP=5.00D-01              OVMax= 4.29D-01

 Cycle   2  Pass 1  IDiag  1:
 RMSU=  5.46D-03    CP:  9.73D-01
 E= -731.662957515744     Delta-E=       -0.098628810979 Rises=F Damp=T
 DIIS: error= 8.17D-03 at cycle   2 NSaved=   2.
 NSaved= 2 IEnMin= 2 EnMin= -731.662957515744     IErMin= 2 ErrMin= 8.17D-03
 ErrMax= 8.17D-03 EMaxC= 1.00D-01 BMatC= 6.80D-02 BMatP= 1.02D+00
 IDIUse=3 WtCom= 9.18D-01 WtEn= 8.17D-02
 Coeff-Com:  0.727D-01 0.927D+00
 Coeff-En:   0.215D+00 0.785D+00
 Coeff:      0.843D-01 0.916D+00
 Gap=     0.270 Goal=   None    Shift=    0.000
 Gap=     0.101 Goal=   None    Shift=    0.000
 RMSDP=1.19D-02 MaxDP=6.81D-01 DE=-9.86D-02 OVMax= 5.57D-01

 Cycle   3  Pass 1  IDiag  1:
 RMSU=  9.14D-03    CP:  1.11D+00 -7.02D-02
 E= -731.788567375041     Delta-E=       -0.125609859297 Rises=F Damp=F
 DIIS: error= 1.06D-02 at cycle   3 NSaved=   3.
 NSaved= 3 IEnMin= 3 EnMin= -731.788567375041     IErMin= 2 ErrMin= 8.17D-03
 ErrMax= 1.06D-02 EMaxC= 1.00D-01 BMatC= 1.07D-01 BMatP= 6.80D-02
 IDIUse=2 WtCom= 0.00D+00 WtEn= 1.00D+00
 Coeff-En:   0.000D+00 0.000D+00 0.100D+01
 Coeff:      0.000D+00 0.000D+00 0.100D+01
 Gap=     0.362 Goal=   None    Shift=    0.000
 Gap=     0.135 Goal=   None    Shift=    0.000
 RMSDP=1.24D-02 MaxDP=7.08D-01 DE=-1.26D-01 OVMax= 5.61D-01

 Cycle   4  Pass 1  IDiag  1:
 RMSU=  3.45D-03    CP:  9.69D-01  9.83D-01 -9.92D-03
 E= -731.661006283342     Delta-E=        0.127561091699 Rises=F Damp=F
 DIIS: error= 2.49D-02 at cycle   4 NSaved=   4.
 NSaved= 4 IEnMin= 3 EnMin= -731.788567375041     IErMin= 2 ErrMin= 8.17D-03
 ErrMax= 2.49D-02 EMaxC= 1.00D-01 BMatC= 4.88D-01 BMatP= 6.80D-02
 IDIUse=2 WtCom= 0.00D+00 WtEn= 1.00D+00
 Coeff-En:   0.000D+00 0.000D+00 0.770D+00 0.230D+00
 Coeff:      0.000D+00 0.000D+00 0.770D+00 0.230D+00
 Gap=     0.227 Goal=   None    Shift=    0.000
 Gap=     0.076 Goal=   None    Shift=    0.000
 RMSDP=4.45D-03 MaxDP=2.15D-01 DE= 1.28D-01 OVMax= 3.51D-01

 Cycle   5  Pass 1  IDiag  1:
 RMSU=  1.47D-03    CP:  1.01D+00  5.81D-01  3.22D-01  5.87D-01
 E= -731.812479693708     Delta-E=       -0.151473410366 Rises=F Damp=F
 DIIS: error= 7.73D-03 at cycle   5 NSaved=   5.
 NSaved= 5 IEnMin= 5 EnMin= -731.812479693708     IErMin= 5 ErrMin= 7.73D-03
 ErrMax= 7.73D-03 EMaxC= 1.00D-01 BMatC= 3.38D-02 BMatP= 6.80D-02
 IDIUse=3 WtCom= 9.23D-01 WtEn= 7.73D-02
 Coeff-Com:  0.446D-02 0.203D-01 0.341D+00-0.127D-01 0.647D+00
 Coeff-En:   0.000D+00 0.000D+00 0.287D+00 0.000D+00 0.713D+00
 Coeff:      0.412D-02 0.188D-01 0.337D+00-0.117D-01 0.652D+00
 Gap=     0.211 Goal=   None    Shift=    0.000
 Gap=     0.099 Goal=   None    Shift=    0.000
 RMSDP=1.99D-03 MaxDP=1.16D-01 DE=-1.51D-01 OVMax= 1.31D-01

 Cycle   6  Pass 1  IDiag  1:
 RMSU=  4.54D-04    CP:  1.02D+00  3.81D-01  4.77D-01  4.19D-01  1.02D+00
 E= -731.823082485078     Delta-E=       -0.010602791370 Rises=F Damp=F
 DIIS: error= 2.49D-03 at cycle   6 NSaved=   6.
 NSaved= 6 IEnMin= 6 EnMin= -731.823082485078     IErMin= 6 ErrMin= 2.49D-03
 ErrMax= 2.49D-03 EMaxC= 1.00D-01 BMatC= 1.65D-03 BMatP= 3.38D-02
 IDIUse=3 WtCom= 9.75D-01 WtEn= 2.49D-02
 Coeff-Com: -0.202D-03-0.247D-02 0.103D+00-0.679D-01 0.469D+00 0.499D+00
 Coeff-En:   0.000D+00 0.000D+00 0.000D+00 0.000D+00 0.000D+00 0.100D+01
 Coeff:     -0.197D-03-0.241D-02 0.100D+00-0.662D-01 0.457D+00 0.512D+00
 Gap=     0.209 Goal=   None    Shift=    0.000
 Gap=     0.094 Goal=   None    Shift=    0.000
 RMSDP=3.23D-04 MaxDP=2.04D-02 DE=-1.06D-02 OVMax= 1.10D-02

 Cycle   7  Pass 1  IDiag  1:
 RMSU=  1.97D-04    CP:  1.02D+00  3.91D-01  4.75D-01  4.24D-01  1.00D+00
                    CP:  5.68D-01
 E= -731.823551184894     Delta-E=       -0.000468699816 Rises=F Damp=F
 DIIS: error= 3.78D-04 at cycle   7 NSaved=   7.
 NSaved= 7 IEnMin= 7 EnMin= -731.823551184894     IErMin= 7 ErrMin= 3.78D-04
 ErrMax= 3.78D-04 EMaxC= 1.00D-01 BMatC= 4.37D-05 BMatP= 1.65D-03
 IDIUse=3 WtCom= 9.96D-01 WtEn= 3.78D-03
 Coeff-Com: -0.184D-04-0.199D-02-0.890D-03-0.113D-01 0.476D-01 0.150D+00
 Coeff-Com:  0.817D+00
 Coeff-En:   0.000D+00 0.000D+00 0.000D+00 0.000D+00 0.000D+00 0.000D+00
 Coeff-En:   0.100D+01
 Coeff:     -0.183D-04-0.198D-02-0.886D-03-0.112D-01 0.474D-01 0.149D+00
 Coeff:      0.818D+00
 Gap=     0.209 Goal=   None    Shift=    0.000
 Gap=     0.094 Goal=   None    Shift=    0.000
 RMSDP=1.00D-04 MaxDP=4.36D-03 DE=-4.69D-04 OVMax= 6.40D-03

 Cycle   8  Pass 1  IDiag  1:
 RMSU=  6.00D-05    CP:  1.02D+00  3.99D-01  4.70D-01  4.27D-01  1.02D+00
                    CP:  6.15D-01  1.05D+00
 E= -731.823570865205     Delta-E=       -0.000019680311 Rises=F Damp=F
 DIIS: error= 1.78D-04 at cycle   8 NSaved=   8.
 NSaved= 8 IEnMin= 8 EnMin= -731.823570865205     IErMin= 8 ErrMin= 1.78D-04
 ErrMax= 1.78D-04 EMaxC= 1.00D-01 BMatC= 1.96D-05 BMatP= 4.37D-05
 IDIUse=3 WtCom= 9.98D-01 WtEn= 1.78D-03
 Coeff-Com: -0.276D-04-0.371D-03-0.203D-01 0.815D-02-0.642D-01-0.157D-01
 Coeff-Com:  0.458D+00 0.634D+00
 Coeff-En:   0.000D+00 0.000D+00 0.000D+00 0.000D+00 0.000D+00 0.000D+00
 Coeff-En:   0.000D+00 0.100D+01
 Coeff:     -0.275D-04-0.370D-03-0.202D-01 0.814D-02-0.641D-01-0.157D-01
 Coeff:      0.457D+00 0.635D+00
 Gap=     0.210 Goal=   None    Shift=    0.000
 Gap=     0.094 Goal=   None    Shift=    0.000
 RMSDP=4.05D-05 MaxDP=2.47D-03 DE=-1.97D-05 OVMax= 1.55D-03

 Cycle   9  Pass 1  IDiag  1:
 RMSU=  1.68D-05    CP:  1.02D+00  4.00D-01  4.68D-01  4.29D-01  1.01D+00
                    CP:  5.93D-01  1.19D+00  1.13D+00
 E= -731.823578508793     Delta-E=       -0.000007643589 Rises=F Damp=F
 DIIS: error= 9.14D-05 at cycle   9 NSaved=   9.
 NSaved= 9 IEnMin= 9 EnMin= -731.823578508793     IErMin= 9 ErrMin= 9.14D-05
 ErrMax= 9.14D-05 EMaxC= 1.00D-01 BMatC= 3.48D-06 BMatP= 1.96D-05
 IDIUse=1 WtCom= 1.00D+00 WtEn= 0.00D+00
 Coeff-Com: -0.131D-03-0.468D-04-0.175D-02 0.213D-02-0.262D-02-0.284D-01
 Coeff-Com: -0.195D+00-0.220D-01 0.125D+01
 Coeff:     -0.131D-03-0.468D-04-0.175D-02 0.213D-02-0.262D-02-0.284D-01
 Coeff:     -0.195D+00-0.220D-01 0.125D+01
 Gap=     0.210 Goal=   None    Shift=    0.000
 Gap=     0.094 Goal=   None    Shift=    0.000
 RMSDP=3.34D-05 MaxDP=1.82D-03 DE=-7.64D-06 OVMax= 1.41D-03

 Cycle  10  Pass 1  IDiag  1:
 RMSU=  1.35D-05    CP:  1.02D+00  4.00D-01  4.66D-01  4.31D-01  1.01D+00
                    CP:  5.89D-01  1.29D+00  1.18D+00  1.54D+00
 E= -731.823581454644     Delta-E=       -0.000002945850 Rises=F Damp=F
 DIIS: error= 3.58D-05 at cycle  10 NSaved=  10.
 NSaved=10 IEnMin=10 EnMin= -731.823581454644     IErMin=10 ErrMin= 3.58D-05
 ErrMax= 3.58D-05 EMaxC= 1.00D-01 BMatC= 6.47D-07 BMatP= 3.48D-06
 IDIUse=1 WtCom= 1.00D+00 WtEn= 0.00D+00
 Coeff-Com: -0.698D-04 0.276D-03 0.385D-02-0.153D-02 0.151D-01-0.936D-02
 Coeff-Com: -0.209D+00-0.142D+00 0.603D+00 0.741D+00
 Coeff:     -0.698D-04 0.276D-03 0.385D-02-0.153D-02 0.151D-01-0.936D-02
 Coeff:     -0.209D+00-0.142D+00 0.603D+00 0.741D+00
 Gap=     0.210 Goal=   None    Shift=    0.000
 Gap=     0.094 Goal=   None    Shift=    0.000
 RMSDP=1.82D-05 MaxDP=1.08D-03 DE=-2.95D-06 OVMax= 5.48D-04

 Cycle  11  Pass 1  IDiag  1:
 RMSU=  7.21D-06    CP:  1.02D+00  4.02D-01  4.65D-01  4.31D-01  1.01D+00
                    CP:  5.84D-01  1.28D+00  1.31D+00  1.66D+00  9.08D-01
 E= -731.823581926953     Delta-E=       -0.000000472310 Rises=F Damp=F
 DIIS: error= 2.20D-05 at cycle  11 NSaved=  11.
 NSaved=11 IEnMin=11 EnMin= -731.823581926953     IErMin=11 ErrMin= 2.20D-05
 ErrMax= 2.20D-05 EMaxC= 1.00D-01 BMatC= 3.10D-07 BMatP= 6.47D-07
 IDIUse=1 WtCom= 1.00D+00 WtEn= 0.00D+00
 Coeff-Com:  0.228D-04 0.145D-03 0.270D-02-0.128D-02 0.697D-02 0.357D-02
 Coeff-Com: -0.477D-01-0.363D-01-0.231D-01 0.225D+00 0.870D+00
 Coeff:      0.228D-04 0.145D-03 0.270D-02-0.128D-02 0.697D-02 0.357D-02
 Coeff:     -0.477D-01-0.363D-01-0.231D-01 0.225D+00 0.870D+00
 Gap=     0.210 Goal=   None    Shift=    0.000
 Gap=     0.094 Goal=   None    Shift=    0.000
 RMSDP=6.40D-06 MaxDP=3.30D-04 DE=-4.72D-07 OVMax= 2.69D-04

 Cycle  12  Pass 1  IDiag  1:
 RMSU=  3.10D-06    CP:  1.02D+00  4.02D-01  4.65D-01  4.31D-01  1.01D+00
                    CP:  5.86D-01  1.27D+00  1.31D+00  1.62D+00  9.79D-01
                    CP:  1.50D+00
 E= -731.823582080124     Delta-E=       -0.000000153171 Rises=F Damp=F
 DIIS: error= 8.01D-06 at cycle  12 NSaved=  12.
 NSaved=12 IEnMin=12 EnMin= -731.823582080124     IErMin=12 ErrMin= 8.01D-06
 ErrMax= 8.01D-06 EMaxC= 1.00D-01 BMatC= 6.62D-08 BMatP= 3.10D-07
 IDIUse=1 WtCom= 1.00D+00 WtEn= 0.00D+00
 Coeff-Com:  0.433D-04-0.110D-03 0.382D-03-0.992D-04-0.107D-02 0.444D-02
 Coeff-Com:  0.296D-01 0.248D-01-0.146D+00-0.148D+00 0.221D+00 0.102D+01
 Coeff:      0.433D-04-0.110D-03 0.382D-03-0.992D-04-0.107D-02 0.444D-02
 Coeff:      0.296D-01 0.248D-01-0.146D+00-0.148D+00 0.221D+00 0.102D+01
 Gap=     0.210 Goal=   None    Shift=    0.000
 Gap=     0.094 Goal=   None    Shift=    0.000
 RMSDP=8.10D-06 MaxDP=4.54D-04 DE=-1.53D-07 OVMax= 2.01D-04

 Cycle  13  Pass 1  IDiag  1:
 RMSU=  1.57D-06    CP:  1.02D+00  4.01D-01  4.66D-01  4.31D-01  1.01D+00
                    CP:  5.88D-01  1.26D+00  1.28D+00  1.54D+00  1.12D+00
                    CP:  1.79D+00  1.54D+00
 E= -731.823582118652     Delta-E=       -0.000000038528 Rises=F Damp=F
 DIIS: error= 2.56D-06 at cycle  13 NSaved=  13.
 NSaved=13 IEnMin=13 EnMin= -731.823582118652     IErMin=13 ErrMin= 2.56D-06
 ErrMax= 2.56D-06 EMaxC= 1.00D-01 BMatC= 4.78D-09 BMatP= 6.62D-08
 IDIUse=1 WtCom= 1.00D+00 WtEn= 0.00D+00
 Coeff-Com:  0.171D-04-0.764D-04-0.369D-04 0.601D-04-0.885D-03 0.170D-02
 Coeff-Com:  0.141D-01 0.114D-01-0.521D-01-0.827D-01-0.103D-01 0.435D+00
 Coeff-Com:  0.684D+00
 Coeff:      0.171D-04-0.764D-04-0.369D-04 0.601D-04-0.885D-03 0.170D-02
 Coeff:      0.141D-01 0.114D-01-0.521D-01-0.827D-01-0.103D-01 0.435D+00
 Coeff:      0.684D+00
 Gap=     0.210 Goal=   None    Shift=    0.000
 Gap=     0.094 Goal=   None    Shift=    0.000
 RMSDP=1.11D-06 MaxDP=4.18D-05 DE=-3.85D-08 OVMax= 4.53D-05

 Cycle  14  Pass 1  IDiag  1:
 RMSU=  5.84D-07    CP:  1.02D+00  4.01D-01  4.66D-01  4.31D-01  1.01D+00
                    CP:  5.88D-01  1.26D+00  1.28D+00  1.54D+00  1.13D+00
                    CP:  1.90D+00  1.65D+00  9.72D-01
 E= -731.823582121125     Delta-E=       -0.000000002474 Rises=F Damp=F
 DIIS: error= 1.19D-06 at cycle  14 NSaved=  14.
 NSaved=14 IEnMin=14 EnMin= -731.823582121125     IErMin=14 ErrMin= 1.19D-06
 ErrMax= 1.19D-06 EMaxC= 1.00D-01 BMatC= 7.33D-10 BMatP= 4.78D-09
 IDIUse=1 WtCom= 1.00D+00 WtEn= 0.00D+00
 Coeff-Com: -0.276D-05 0.514D-06-0.337D-04-0.412D-05 0.778D-04-0.262D-04
 Coeff-Com: -0.132D-02-0.162D-02 0.794D-02-0.163D-02-0.386D-01-0.170D-01
 Coeff-Com:  0.259D+00 0.793D+00
 Coeff:     -0.276D-05 0.514D-06-0.337D-04-0.412D-05 0.778D-04-0.262D-04
 Coeff:     -0.132D-02-0.162D-02 0.794D-02-0.163D-02-0.386D-01-0.170D-01
 Coeff:      0.259D+00 0.793D+00
 Gap=     0.210 Goal=   None    Shift=    0.000
 Gap=     0.094 Goal=   None    Shift=    0.000
 RMSDP=6.54D-07 MaxDP=3.46D-05 DE=-2.47D-09 OVMax= 3.11D-05

 Cycle  15  Pass 1  IDiag  1:
 RMSU=  2.73D-07    CP:  1.02D+00  4.01D-01  4.66D-01  4.31D-01  1.01D+00
                    CP:  5.88D-01  1.26D+00  1.28D+00  1.53D+00  1.13D+00
                    CP:  1.93D+00  1.76D+00  1.07D+00  1.17D+00
 E= -731.823582121587     Delta-E=       -0.000000000462 Rises=F Damp=F
 DIIS: error= 4.88D-07 at cycle  15 NSaved=  15.
 NSaved=15 IEnMin=15 EnMin= -731.823582121587     IErMin=15 ErrMin= 4.88D-07
 ErrMax= 4.88D-07 EMaxC= 1.00D-01 BMatC= 1.94D-10 BMatP= 7.33D-10
 IDIUse=1 WtCom= 1.00D+00 WtEn= 0.00D+00
 Coeff-Com: -0.488D-05 0.180D-04-0.133D-04-0.126D-04 0.188D-03-0.487D-03
 Coeff-Com: -0.377D-02-0.306D-02 0.162D-01 0.171D-01-0.140D-01-0.105D+00
 Coeff-Com: -0.530D-01 0.316D+00 0.830D+00
 Coeff:     -0.488D-05 0.180D-04-0.133D-04-0.126D-04 0.188D-03-0.487D-03
 Coeff:     -0.377D-02-0.306D-02 0.162D-01 0.171D-01-0.140D-01-0.105D+00
 Coeff:     -0.530D-01 0.316D+00 0.830D+00
 Gap=     0.210 Goal=   None    Shift=    0.000
 Gap=     0.094 Goal=   None    Shift=    0.000
 RMSDP=4.09D-07 MaxDP=2.17D-05 DE=-4.62D-10 OVMax= 2.17D-05

 Cycle  16  Pass 1  IDiag  1:
 RMSU=  1.36D-07    CP:  1.02D+00  4.01D-01  4.66D-01  4.31D-01  1.01D+00
                    CP:  5.88D-01  1.26D+00  1.28D+00  1.52D+00  1.14D+00
                    CP:  1.94D+00  1.80D+00  1.15D+00  1.33D+00  1.35D+00
 E= -731.823582121746     Delta-E=       -0.000000000159 Rises=F Damp=F
 DIIS: error= 2.08D-07 at cycle  16 NSaved=  16.
 NSaved=16 IEnMin=16 EnMin= -731.823582121746     IErMin=16 ErrMin= 2.08D-07
 ErrMax= 2.08D-07 EMaxC= 1.00D-01 BMatC= 2.37D-11 BMatP= 1.94D-10
 IDIUse=1 WtCom= 1.00D+00 WtEn= 0.00D+00
 Coeff-Com: -0.901D-06 0.351D-05 0.679D-05-0.276D-05 0.421D-04-0.135D-03
 Coeff-Com: -0.738D-03-0.429D-03 0.317D-02 0.352D-02 0.843D-03-0.212D-01
 Coeff-Com: -0.510D-01-0.514D-01 0.174D+00 0.944D+00
 Coeff:     -0.901D-06 0.351D-05 0.679D-05-0.276D-05 0.421D-04-0.135D-03
 Coeff:     -0.738D-03-0.429D-03 0.317D-02 0.352D-02 0.843D-03-0.212D-01
 Coeff:     -0.510D-01-0.514D-01 0.174D+00 0.944D+00
 Gap=     0.210 Goal=   None    Shift=    0.000
 Gap=     0.094 Goal=   None    Shift=    0.000
 RMSDP=2.08D-07 MaxDP=1.02D-05 DE=-1.59D-10 OVMax= 1.49D-05

 Cycle  17  Pass 1  IDiag  1:
 RMSU=  6.23D-08    CP:  1.02D+00  4.01D-01  4.66D-01  4.31D-01  1.01D+00
                    CP:  5.88D-01  1.26D+00  1.28D+00  1.52D+00  1.15D+00
                    CP:  1.96D+00  1.82D+00  1.18D+00  1.46D+00  1.62D+00
                    CP:  1.31D+00
 E= -731.823582121784     Delta-E=       -0.000000000038 Rises=F Damp=F
 DIIS: error= 1.21D-07 at cycle  17 NSaved=  17.
 NSaved=17 IEnMin=17 EnMin= -731.823582121784     IErMin=17 ErrMin= 1.21D-07
 ErrMax= 1.21D-07 EMaxC= 1.00D-01 BMatC= 8.68D-12 BMatP= 2.37D-11
 IDIUse=1 WtCom= 1.00D+00 WtEn= 0.00D+00
 Coeff-Com:  0.375D-06-0.134D-05 0.632D-05 0.486D-06-0.616D-05 0.163D-04
 Coeff-Com:  0.239D-03 0.283D-03-0.106D-02-0.120D-02 0.236D-02 0.762D-02
 Coeff-Com: -0.150D-01-0.779D-01-0.522D-01 0.455D+00 0.681D+00
 Coeff:      0.375D-06-0.134D-05 0.632D-05 0.486D-06-0.616D-05 0.163D-04
 Coeff:      0.239D-03 0.283D-03-0.106D-02-0.120D-02 0.236D-02 0.762D-02
 Coeff:     -0.150D-01-0.779D-01-0.522D-01 0.455D+00 0.681D+00
 Gap=     0.210 Goal=   None    Shift=    0.000
 Gap=     0.094 Goal=   None    Shift=    0.000
 RMSDP=8.45D-08 MaxDP=3.71D-06 DE=-3.77D-11 OVMax= 7.40D-06

 Cycle  18  Pass 1  IDiag  1:
 RMSU=  3.40D-08    CP:  1.02D+00  4.01D-01  4.66D-01  4.31D-01  1.01D+00
                    CP:  5.88D-01  1.26D+00  1.28D+00  1.52D+00  1.15D+00
                    CP:  1.96D+00  1.82D+00  1.19D+00  1.50D+00  1.74D+00
                    CP:  1.55D+00  1.04D+00
 E= -731.823582121797     Delta-E=       -0.000000000013 Rises=F Damp=F
 DIIS: error= 8.09D-08 at cycle  18 NSaved=  18.
 NSaved=18 IEnMin=18 EnMin= -731.823582121797     IErMin=18 ErrMin= 8.09D-08
 ErrMax= 8.09D-08 EMaxC= 1.00D-01 BMatC= 4.21D-12 BMatP= 8.68D-12
 IDIUse=1 WtCom= 1.00D+00 WtEn= 0.00D+00
 Coeff-Com:  0.693D-06-0.242D-05 0.586D-06 0.180D-05-0.250D-04 0.752D-04
 Coeff-Com:  0.517D-03 0.406D-03-0.223D-02-0.257D-02 0.119D-02 0.157D-01
 Coeff-Com:  0.135D-01-0.327D-01-0.114D+00-0.115D+00 0.460D+00 0.775D+00
 Coeff:      0.693D-06-0.242D-05 0.586D-06 0.180D-05-0.250D-04 0.752D-04
 Coeff:      0.517D-03 0.406D-03-0.223D-02-0.257D-02 0.119D-02 0.157D-01
 Coeff:      0.135D-01-0.327D-01-0.114D+00-0.115D+00 0.460D+00 0.775D+00
 Gap=     0.210 Goal=   None    Shift=    0.000
 Gap=     0.094 Goal=   None    Shift=    0.000
 RMSDP=7.51D-08 MaxDP=3.49D-06 DE=-1.32D-11 OVMax= 7.11D-06

 Cycle  19  Pass 1  IDiag  1:
 RMSU=  1.59D-08    CP:  1.02D+00  4.01D-01  4.66D-01  4.31D-01  1.01D+00
                    CP:  5.88D-01  1.26D+00  1.28D+00  1.52D+00  1.15D+00
                    CP:  1.96D+00  1.83D+00  1.20D+00  1.53D+00  1.87D+00
                    CP:  1.71D+00  1.44D+00  1.09D+00
 E= -731.823582121806     Delta-E=       -0.000000000009 Rises=F Damp=F
 DIIS: error= 4.77D-08 at cycle  19 NSaved=  19.
 NSaved=19 IEnMin=19 EnMin= -731.823582121806     IErMin=19 ErrMin= 4.77D-08
 ErrMax= 4.77D-08 EMaxC= 1.00D-01 BMatC= 6.11D-13 BMatP= 4.21D-12
 IDIUse=1 WtCom= 1.00D+00 WtEn= 0.00D+00
 Coeff-Com: -0.931D-07 0.549D-06-0.384D-05 0.420D-06-0.588D-05 0.388D-05
 Coeff-Com:  0.215D-04-0.218D-04 0.332D-04-0.125D-03-0.671D-03-0.231D-03
 Coeff-Com:  0.769D-02 0.229D-01 0.637D-02-0.174D+00-0.227D+00 0.454D-01
 Coeff-Com:  0.132D+01
 Coeff:     -0.931D-07 0.549D-06-0.384D-05 0.420D-06-0.588D-05 0.388D-05
 Coeff:      0.215D-04-0.218D-04 0.332D-04-0.125D-03-0.671D-03-0.231D-03
 Coeff:      0.769D-02 0.229D-01 0.637D-02-0.174D+00-0.227D+00 0.454D-01
 Coeff:      0.132D+01
 Gap=     0.210 Goal=   None    Shift=    0.000
 Gap=     0.094 Goal=   None    Shift=    0.000
 RMSDP=6.38D-08 MaxDP=2.70D-06 DE=-8.87D-12 OVMax= 6.22D-06

 Cycle  20  Pass 1  IDiag  1:
 Restarting incremental Fock formation.
 E= -731.823582121814     Delta-E=       -0.000000000008 Rises=F Damp=F
 DIIS: error= 1.01D-08 at cycle  20 NSaved=  20.
 NSaved=20 IEnMin=20 EnMin= -731.823582121814     IErMin=20 ErrMin= 1.01D-08
 ErrMax= 1.01D-08 EMaxC= 1.00D-01 BMatC= 8.23D-14 BMatP= 6.11D-13
 IDIUse=1 WtCom= 1.00D+00 WtEn= 0.00D+00
 Coeff-Com: -0.149D-06 0.459D-06-0.822D-06-0.220D-06 0.315D-05-0.119D-04
 Coeff-Com: -0.778D-04-0.809D-04 0.373D-03 0.360D-03-0.274D-03-0.245D-02
 Coeff-Com: -0.551D-03 0.104D-01 0.196D-01-0.180D-01-0.124D+00-0.122D+00
 Coeff-Com:  0.275D+00 0.961D+00
 Coeff:     -0.149D-06 0.459D-06-0.822D-06-0.220D-06 0.315D-05-0.119D-04
 Coeff:     -0.778D-04-0.809D-04 0.373D-03 0.360D-03-0.274D-03-0.245D-02
 Coeff:     -0.551D-03 0.104D-01 0.196D-01-0.180D-01-0.124D+00-0.122D+00
 Coeff:      0.275D+00 0.961D+00
 Gap=     0.210 Goal=   None    Shift=    0.000
 Gap=     0.094 Goal=   None    Shift=    0.000
 RMSDP=1.97D-08 MaxDP=9.55D-07 DE=-8.41D-12 OVMax= 1.68D-06

 Cycle  21  Pass 1  IDiag  1:
 RMSU=  1.94D-08    CP:  1.00D+00
 E= -731.823582121817     Delta-E=       -0.000000000003 Rises=F Damp=F
 DIIS: error= 3.96D-09 at cycle  21 NSaved=  20.
 NSaved=20 IEnMin=20 EnMin= -731.823582121817     IErMin=20 ErrMin= 3.96D-09
 ErrMax= 3.96D-09 EMaxC= 1.00D-01 BMatC= 1.20D-14 BMatP= 8.23D-14
 IDIUse=1 WtCom= 1.00D+00 WtEn= 0.00D+00
 Coeff-Com: -0.294D-07 0.223D-06-0.221D-07 0.846D-06-0.236D-05-0.131D-04
 Coeff-Com: -0.138D-04 0.595D-04 0.580D-04 0.255D-04-0.338D-03-0.842D-03
 Coeff-Com: -0.180D-03 0.279D-02 0.133D-01-0.480D-02-0.348D-01-0.785D-01
 Coeff-Com:  0.298D+00 0.806D+00
 Coeff:     -0.294D-07 0.223D-06-0.221D-07 0.846D-06-0.236D-05-0.131D-04
 Coeff:     -0.138D-04 0.595D-04 0.580D-04 0.255D-04-0.338D-03-0.842D-03
 Coeff:     -0.180D-03 0.279D-02 0.133D-01-0.480D-02-0.348D-01-0.785D-01
 Coeff:      0.298D+00 0.806D+00
 Gap=     0.210 Goal=   None    Shift=    0.000
 Gap=     0.094 Goal=   None    Shift=    0.000
 RMSDP=3.69D-09 MaxDP=2.36D-07 DE=-3.18D-12 OVMax= 2.71D-07

 SCF Done:  E(UB+HF-LYP) =  -731.823582122     A.U. after   21 cycles
             Convg  =    0.3693D-08             -V/T =  2.0032
             S**2   =   0.7589
 KE= 7.294814653590D+02 PE=-2.507509281853D+03 EE= 6.542749140708D+02
 Annihilation of the first spin contaminant:
 S**2 before annihilation     0.7589,   after     0.7501
 Leave Link  502 at Tue Aug 29 12:20:36 2006, MaxMem=    6291456 cpu:    4870.5
 (Enter /usr/local/Gaussian/g03/l601.exe)
 Copying SCF densities to generalized density rwf, ISCF=1 IROHF=0.

 **********************************************************************

            Population analysis using the SCF density.

 **********************************************************************

 Orbital symmetries:
 Alpha Orbitals:
       Occupied  (A) (A) (A) (A) (A) (A) (A) (A) (A) (A) (A) (A)
                 (A) (A) (A) (A) (A) (A) (A) (A) (A) (A) (A) (A)
                 (A) (A) (A) (A) (A) (A) (A) (A) (A) (A)
       Virtual   (A) (A) (A) (A) (A) (A) (A) (A) (A) (A) (A) (A)
                 (A) (A) (A) (A) (A) (A) (A) (A) (A) (A) (A) (A)
                 (A) (A) (A) (A) (A) (A) (A) (A) (A) (A) (A) (A)
                 (A) (A) (A) (A) (A) (A) (A) (A) (A) (A) (A) (A)
                 (A) (A) (A) (A) (A) (A) (A) (A) (A) (A) (A) (A)
                 (A) (A) (A) (A) (A) (A) (A) (A) (A) (A) (A) (A)
                 (A) (A) (A) (A) (A) (A) (A) (A) (A) (A) (A) (A)
                 (A) (A) (A) (A) (A) (A) (A) (A) (A) (A) (A) (A)
                 (A) (A) (A) (A) (A) (A) (A) (A) (A) (A) (A) (A)
                 (A) (A) (A) (A) (A) (A) (A) (A) (A) (A) (A) (A)
                 (A) (A) (A) (A) (A) (A) (A) (A) (A) (A) (A) (A)
                 (A) (A) (A) (A) (A) (A) (A) (A) (A) (A) (A) (A)
                 (A) (A) (A) (A) (A) (A) (A) (A) (A) (A) (A) (A)
                 (A) (A) (A) (A) (A) (A) (A) (A) (A) (A) (A) (A)
                 (A) (A) (A) (A) (A) (A) (A) (A) (A) (A) (A) (A)
                 (A) (A) (A) (A) (A) (A) (A) (A) (A) (A) (A) (A)
                 (A) (A) (A) (A) (A) (A)
 Beta  Orbitals:
       Occupied  (A) (A) (A) (A) (A) (A) (A) (A) (A) (A) (A) (A)
                 (A) (A) (A) (A) (A) (A) (A) (A) (A) (A) (A) (A)
                 (A) (A) (A) (A) (A) (A) (A) (A) (A)
       Virtual   (A) (A) (A) (A) (A) (A) (A) (A) (A) (A) (A) (A)
                 (A) (A) (A) (A) (A) (A) (A) (A) (A) (A) (A) (A)
                 (A) (A) (A) (A) (A) (A) (A) (A) (A) (A) (A) (A)
                 (A) (A) (A) (A) (A) (A) (A) (A) (A) (A) (A) (A)
                 (A) (A) (A) (A) (A) (A) (A) (A) (A) (A) (A) (A)
                 (A) (A) (A) (A) (A) (A) (A) (A) (A) (A) (A) (A)
                 (A) (A) (A) (A) (A) (A) (A) (A) (A) (A) (A) (A)
                 (A) (A) (A) (A) (A) (A) (A) (A) (A) (A) (A) (A)
                 (A) (A) (A) (A) (A) (A) (A) (A) (A) (A) (A) (A)
                 (A) (A) (A) (A) (A) (A) (A) (A) (A) (A) (A) (A)
                 (A) (A) (A) (A) (A) (A) (A) (A) (A) (A) (A) (A)
                 (A) (A) (A) (A) (A) (A) (A) (A) (A) (A) (A) (A)
                 (A) (A) (A) (A) (A) (A) (A) (A) (A) (A) (A) (A)
                 (A) (A) (A) (A) (A) (A) (A) (A) (A) (A) (A) (A)
                 (A) (A) (A) (A) (A) (A) (A) (A) (A) (A) (A) (A)
                 (A) (A) (A) (A) (A) (A) (A) (A) (A) (A) (A) (A)
                 (A) (A) (A) (A) (A) (A) (A)
 The electronic state is 2-A.
 Alpha  occ. eigenvalues -- -101.51000 -10.22040 -10.21694 -10.20587 -10.20583
 Alpha  occ. eigenvalues --  -10.19649 -10.19647 -10.18984  -9.42205  -7.19166
 Alpha  occ. eigenvalues --   -7.17632  -7.17625  -0.89158  -0.80706  -0.77780
 Alpha  occ. eigenvalues --   -0.76377  -0.71281  -0.63497  -0.61581  -0.54095
 Alpha  occ. eigenvalues --   -0.49297  -0.48197  -0.45095  -0.44927  -0.43857
 Alpha  occ. eigenvalues --   -0.41135  -0.39835  -0.37502  -0.36783  -0.32451
 Alpha  occ. eigenvalues --   -0.29683  -0.28310  -0.27369  -0.25323
 Alpha virt. eigenvalues --   -0.04323  -0.03776  -0.00611   0.00977   0.01444
 Alpha virt. eigenvalues --    0.03266   0.03756   0.04060   0.04920   0.05981
 Alpha virt. eigenvalues --    0.06134   0.07003   0.07841   0.08307   0.09927
 Alpha virt. eigenvalues --    0.10714   0.11291   0.11948   0.12410   0.12466
 Alpha virt. eigenvalues --    0.12527   0.13340   0.14706   0.15255   0.15462
 Alpha virt. eigenvalues --    0.16261   0.16702   0.17612   0.17796   0.19284
 Alpha virt. eigenvalues --    0.19647   0.19993   0.20696   0.20851   0.21278
 Alpha virt. eigenvalues --    0.22929   0.23020   0.23509   0.24240   0.24357
 Alpha virt. eigenvalues --    0.24981   0.25132   0.28659   0.29458   0.30252
 Alpha virt. eigenvalues --    0.30574   0.32148   0.32283   0.40931   0.44867
 Alpha virt. eigenvalues --    0.45326   0.46227   0.47673   0.48138   0.49284
 Alpha virt. eigenvalues --    0.49893   0.52071   0.52780   0.53004   0.55147
 Alpha virt. eigenvalues --    0.55446   0.56484   0.58437   0.60090   0.60934
 Alpha virt. eigenvalues --    0.61095   0.62179   0.62506   0.64674   0.66402
 Alpha virt. eigenvalues --    0.67373   0.68002   0.68863   0.71711   0.71726
 Alpha virt. eigenvalues --    0.73408   0.74013   0.78269   0.80302   0.80944
 Alpha virt. eigenvalues --    0.82543   0.83534   0.84377   0.84422   0.88925
 Alpha virt. eigenvalues --    0.89620   0.91208   0.92570   0.93469   0.93934
 Alpha virt. eigenvalues --    0.96826   0.98718   1.00367   1.02076   1.02455
 Alpha virt. eigenvalues --    1.06183   1.08819   1.11926   1.12342   1.21291
 Alpha virt. eigenvalues --    1.32581   1.33147   1.34475   1.36478   1.44233
 Alpha virt. eigenvalues --    1.46175   1.49278   1.49979   1.50213   1.54697
 Alpha virt. eigenvalues --    1.54950   1.57511   1.58252   1.59607   1.61200
 Alpha virt. eigenvalues --    1.63598   1.65910   1.67128   1.69844   1.74562
 Alpha virt. eigenvalues --    1.75428   1.77947   1.80618   1.81907   1.86329
 Alpha virt. eigenvalues --    1.88850   1.91147   1.92107   1.92230   1.93471
 Alpha virt. eigenvalues --    1.97181   2.00716   2.02164   2.02987   2.06635
 Alpha virt. eigenvalues --    2.14465   2.19830   2.20426   2.29351   2.31270
 Alpha virt. eigenvalues --    2.31548   2.32899   2.36853   2.38365   2.38498
 Alpha virt. eigenvalues --    2.41180   2.42361   2.44479   2.52118   2.52442
 Alpha virt. eigenvalues --    2.56753   2.57587   2.61871   2.64432   2.64550
 Alpha virt. eigenvalues --    2.66293   2.70229   2.73564   2.74753   2.74975
 Alpha virt. eigenvalues --    2.79399   2.80118   2.81089   2.87111   2.87258
 Alpha virt. eigenvalues --    2.89624   2.91536   2.91824   2.93373   3.06566
 Alpha virt. eigenvalues --    3.12037   3.19433   3.30520   3.39047   3.47800
 Alpha virt. eigenvalues --    3.50568   3.58692   3.64844   3.78360   3.80738
 Alpha virt. eigenvalues --    3.96516   4.00987   4.11720   4.12437   4.31018
 Alpha virt. eigenvalues --    4.80636   9.71698  23.57504  23.90221  23.90627
 Alpha virt. eigenvalues --   23.96092  24.02121  24.09835  24.16827  25.89539
 Alpha virt. eigenvalues --   25.89684  26.09547 215.69639
  Beta  occ. eigenvalues -- -101.50528 -10.21787 -10.21515 -10.20412 -10.20409
  Beta  occ. eigenvalues --  -10.19727 -10.19725 -10.18995  -9.41750  -7.17675
  Beta  occ. eigenvalues --   -7.17349  -7.17344  -0.88756  -0.80105  -0.77607
  Beta  occ. eigenvalues --   -0.73346  -0.70894  -0.63246  -0.61269  -0.53960
  Beta  occ. eigenvalues --   -0.49142  -0.48018  -0.45031  -0.44479  -0.43652
  Beta  occ. eigenvalues --   -0.41082  -0.38384  -0.37306  -0.36648  -0.28974
  Beta  occ. eigenvalues --   -0.28490  -0.27227  -0.26591
  Beta virt. eigenvalues --   -0.17153  -0.03113  -0.03009  -0.00584   0.01015
  Beta virt. eigenvalues --    0.01450   0.03311   0.03839   0.04083   0.04976
  Beta virt. eigenvalues --    0.06066   0.06317   0.07007   0.07823   0.08436
  Beta virt. eigenvalues --    0.10058   0.10879   0.11357   0.12242   0.12414
  Beta virt. eigenvalues --    0.12533   0.12682   0.13529   0.14792   0.15356
  Beta virt. eigenvalues --    0.15527   0.16273   0.16739   0.17654   0.17981
  Beta virt. eigenvalues --    0.19445   0.19729   0.20034   0.20867   0.20873
  Beta virt. eigenvalues --    0.21415   0.22967   0.23094   0.23539   0.24424
  Beta virt. eigenvalues --    0.24473   0.25009   0.25310   0.28767   0.29737
  Beta virt. eigenvalues --    0.30430   0.30699   0.32335   0.32343   0.41033
  Beta virt. eigenvalues --    0.44890   0.45461   0.47494   0.47723   0.48762
  Beta virt. eigenvalues --    0.49557   0.50403   0.52177   0.52953   0.53466
  Beta virt. eigenvalues --    0.55234   0.55680   0.56705   0.58355   0.60615
  Beta virt. eigenvalues --    0.61467   0.61568   0.62568   0.63131   0.65003
  Beta virt. eigenvalues --    0.66774   0.67651   0.68066   0.69161   0.71772
  Beta virt. eigenvalues --    0.71825   0.74066   0.74138   0.78345   0.81189
  Beta virt. eigenvalues --    0.81233   0.82863   0.83676   0.84378   0.84723
  Beta virt. eigenvalues --    0.89091   0.91703   0.91802   0.93557   0.94177
  Beta virt. eigenvalues --    0.94688   0.98609   0.99277   1.01451   1.03228
  Beta virt. eigenvalues --    1.03294   1.06400   1.09344   1.12527   1.12872
  Beta virt. eigenvalues --    1.22651   1.33097   1.33211   1.34796   1.36797
  Beta virt. eigenvalues --    1.44326   1.46257   1.49350   1.50171   1.50451
  Beta virt. eigenvalues --    1.54980   1.55182   1.57672   1.58356   1.59991
  Beta virt. eigenvalues --    1.61340   1.63700   1.66322   1.67312   1.69936
  Beta virt. eigenvalues --    1.74844   1.75514   1.77916   1.80781   1.82072
  Beta virt. eigenvalues --    1.86489   1.89261   1.91473   1.92425   1.92638
  Beta virt. eigenvalues --    1.93582   1.97430   2.01051   2.02488   2.03096
  Beta virt. eigenvalues --    2.06851   2.14692   2.20273   2.20457   2.29812
  Beta virt. eigenvalues --    2.31872   2.32091   2.33581   2.37024   2.38519
  Beta virt. eigenvalues --    2.39271   2.42090   2.42970   2.44621   2.52223
  Beta virt. eigenvalues --    2.52573   2.56928   2.57634   2.62064   2.64589
  Beta virt. eigenvalues --    2.64974   2.66410   2.70252   2.73675   2.74793
  Beta virt. eigenvalues --    2.75067   2.79741   2.80298   2.81211   2.87366
  Beta virt. eigenvalues --    2.87515   2.90486   2.91883   2.92023   2.93476
  Beta virt. eigenvalues --    3.07196   3.12197   3.19549   3.30724   3.39199
  Beta virt. eigenvalues --    3.47877   3.50764   3.58842   3.64879   3.78478
  Beta virt. eigenvalues --    3.80756   3.96638   4.01308   4.11835   4.12751
  Beta virt. eigenvalues --    4.31283   4.80999   9.72577  23.57637  23.90364
  Beta virt. eigenvalues --   23.90707  23.96206  24.02273  24.09881  24.16899
  Beta virt. eigenvalues --   25.89952  25.90079  26.11487 215.70072
          Condensed to atoms (all electrons):
              1          2          3          4          5          6
     1  C    7.334122  -1.159864   1.251823  -1.498444   1.250408  -1.161589
     2  C   -1.159864   8.330705  -1.250833   1.174087  -1.137509   0.255982
     3  C    1.251823  -1.250833   7.047950  -1.730255   1.467461  -1.141506
     4  C   -1.498444   1.174087  -1.730255   8.375293  -1.727862   1.174524
     5  C    1.250408  -1.137509   1.467461  -1.727862   7.042842  -1.251033
     6  C   -1.161589   0.255982  -1.141506   1.174524  -1.251033   8.336622
     7  C   -0.669290  -0.022233  -0.026340  -0.027999  -0.024260  -0.014664
     8  H   -0.015088   0.303366   0.030732  -0.004641  -0.000069  -0.007967
     9  H    0.016357  -0.036603   0.395653  -0.020806   0.004139  -0.011753
    10  H   -0.005551   0.009096  -0.029625   0.415541  -0.029680   0.009270
    11  H    0.016630  -0.011626   0.004094  -0.021035   0.395391  -0.036430
    12  H   -0.014730  -0.008012  -0.000053  -0.004650   0.031480   0.302540
    13  H    0.080725  -0.056609   0.009873  -0.016240   0.009960  -0.055343
    14  H   -0.122001   0.129930   0.029025   0.002759  -0.004802  -0.080916
    15  H   -0.123351  -0.080758  -0.004726   0.002543   0.029224   0.129451
    16  Cl  -0.060918   0.083862   0.071637  -0.269163   0.071876   0.084379
              7          8          9         10         11         12
     1  C   -0.669290  -0.015088   0.016357  -0.005551   0.016630  -0.014730
     2  C   -0.022233   0.303366  -0.036603   0.009096  -0.011626  -0.008012
     3  C   -0.026340   0.030732   0.395653  -0.029625   0.004094  -0.000053
     4  C   -0.027999  -0.004641  -0.020806   0.415541  -0.021035  -0.004650
     5  C   -0.024260  -0.000069   0.004139  -0.029680   0.395391   0.031480
     6  C   -0.014664  -0.007967  -0.011753   0.009270  -0.036430   0.302540
     7  C    6.193706   0.038866   0.007233  -0.003112   0.007217   0.038561
     8  H    0.038866   0.534876  -0.008192  -0.000243   0.000057  -0.000230
     9  H    0.007233  -0.008192   0.517566  -0.006903  -0.000176   0.000057
    10  H   -0.003112  -0.000243  -0.006903   0.482567  -0.006903  -0.000244
    11  H    0.007217   0.000057  -0.000176  -0.006903   0.517520  -0.008189
    12  H    0.038561  -0.000230   0.000057  -0.000244  -0.008189   0.535029
    13  H    0.382233   0.000477   0.000023   0.000009   0.000023   0.000469
    14  H    0.412165   0.000870  -0.000019  -0.000005   0.000011   0.000190
    15  H    0.414101   0.000194   0.000012  -0.000005  -0.000019   0.000943
    16  Cl  -0.017922  -0.000849   0.000122  -0.024876   0.000127  -0.000852
             13         14         15         16
     1  C    0.080725  -0.122001  -0.123351  -0.060918
     2  C   -0.056609   0.129930  -0.080758   0.083862
     3  C    0.009873   0.029025  -0.004726   0.071637
     4  C   -0.016240   0.002759   0.002543  -0.269163
     5  C    0.009960  -0.004802   0.029224   0.071876
     6  C   -0.055343  -0.080916   0.129451   0.084379
     7  C    0.382233   0.412165   0.414101  -0.017922
     8  H    0.000477   0.000870   0.000194  -0.000849
     9  H    0.000023  -0.000019   0.000012   0.000122
    10  H    0.000009  -0.000005  -0.000005  -0.024876
    11  H    0.000023   0.000011  -0.000019   0.000127
    12  H    0.000469   0.000190   0.000943  -0.000852
    13  H    0.517227  -0.025389  -0.025144   0.000165
    14  H   -0.025389   0.534680  -0.026952  -0.000118
    15  H   -0.025144  -0.026952   0.534394  -0.000110
    16  Cl   0.000165  -0.000118  -0.000110  17.335573
 Mulliken atomic charges:
              1
     1  C    0.880761
     2  C   -0.522981
     3  C   -0.124910
     4  C    0.176348
     5  C   -0.127566
     6  C   -0.531568
     7  C   -0.688260
     8  H    0.127841
     9  H    0.143291
    10  H    0.190663
    11  H    0.143308
    12  H    0.127691
    13  H    0.177541
    14  H    0.150570
    15  H    0.150203
    16  Cl  -0.272932
 Sum of Mulliken charges=   0.00000
 Atomic charges with hydrogens summed into heavy atoms:
              1
     1  C    0.880761
     2  C   -0.395140
     3  C    0.018381
     4  C    0.367011
     5  C    0.015742
     6  C   -0.403877
     7  C   -0.209946
     8  H    0.000000
     9  H    0.000000
    10  H    0.000000
    11  H    0.000000
    12  H    0.000000
    13  H    0.000000
    14  H    0.000000
    15  H    0.000000
    16  Cl  -0.272932
 Sum of Mulliken charges=   0.00000
          Atomic-Atomic Spin Densities.
              1          2          3          4          5          6
     1  C    0.230909  -0.065825   0.094749  -0.085819   0.094801  -0.064856
     2  C   -0.065825   0.043630  -0.186348   0.180097  -0.124618   0.075378
     3  C    0.094749  -0.186348   0.354938  -0.121139   0.180787  -0.123998
     4  C   -0.085819   0.180097  -0.121139  -0.036187  -0.121596   0.179703
     5  C    0.094801  -0.124618   0.180787  -0.121596   0.356648  -0.186378
     6  C   -0.064856   0.075378  -0.123998   0.179703  -0.186378   0.042149
     7  C    0.029580  -0.021855   0.015441   0.010682   0.015448  -0.021826
     8  H   -0.000702   0.000374  -0.001169   0.001656  -0.000829   0.000947
     9  H   -0.002884   0.003129  -0.005346   0.008773  -0.001647  -0.000075
    10  H    0.000772  -0.004280  -0.000805   0.022134  -0.000822  -0.004285
    11  H   -0.002883  -0.000064  -0.001658   0.008780  -0.005358   0.003136
    12  H   -0.000711   0.000945  -0.000833   0.001661  -0.001158   0.000376
    13  H   -0.015373   0.008251  -0.003068   0.003706  -0.003087   0.007971
    14  H    0.001141  -0.004219   0.001382  -0.001400   0.001105  -0.003094
    15  H    0.001053  -0.003079   0.001047  -0.001334   0.001351  -0.003886
    16  Cl  -0.029948   0.036186  -0.083455   0.024090  -0.083554   0.036093
              7          8          9         10         11         12
     1  C    0.029580  -0.000702  -0.002884   0.000772  -0.002883  -0.000711
     2  C   -0.021855   0.000374   0.003129  -0.004280  -0.000064   0.000945
     3  C    0.015441  -0.001169  -0.005346  -0.000805  -0.001658  -0.000833
     4  C    0.010682   0.001656   0.008773   0.022134   0.008780   0.001661
     5  C    0.015448  -0.000829  -0.001647  -0.000822  -0.005358  -0.001158
     6  C   -0.021826   0.000947  -0.000075  -0.004285   0.003136   0.000376
     7  C   -0.047150   0.000115  -0.000384  -0.000275  -0.000382   0.000112
     8  H    0.000115   0.002285   0.000105  -0.000004  -0.000003   0.000001
     9  H   -0.000384   0.000105  -0.008660  -0.000416   0.000002  -0.000003
    10  H   -0.000275  -0.000004  -0.000416   0.004034  -0.000415  -0.000004
    11  H   -0.000382  -0.000003   0.000002  -0.000415  -0.008697   0.000106
    12  H    0.000112   0.000001  -0.000003  -0.000004   0.000106   0.002295
    13  H   -0.001142  -0.000055   0.000001  -0.000004   0.000001  -0.000053
    14  H    0.005199   0.000002  -0.000003   0.000002  -0.000001   0.000006
    15  H    0.004995   0.000006  -0.000001   0.000001  -0.000003   0.000000
    16  Cl  -0.001981  -0.000070   0.000759  -0.012304   0.000761  -0.000070
             13         14         15         16
     1  C   -0.015373   0.001141   0.001053  -0.029948
     2  C    0.008251  -0.004219  -0.003079   0.036186
     3  C   -0.003068   0.001382   0.001047  -0.083455
     4  C    0.003706  -0.001400  -0.001334   0.024090
     5  C   -0.003087   0.001105   0.001351  -0.083554
     6  C    0.007971  -0.003094  -0.003886   0.036093
     7  C   -0.001142   0.005199   0.004995  -0.001981
     8  H   -0.000055   0.000002   0.000006  -0.000070
     9  H    0.000001  -0.000003  -0.000001   0.000759
    10  H   -0.000004   0.000002   0.000001  -0.012304
    11  H    0.000001  -0.000001  -0.000003   0.000761
    12  H   -0.000053   0.000006   0.000000  -0.000070
    13  H    0.021417  -0.002606  -0.002529   0.000024
    14  H   -0.002606   0.004516   0.000982  -0.000048
    15  H   -0.002529   0.000982   0.004203  -0.000047
    16  Cl   0.000024  -0.000048  -0.000047   0.737991
 Mulliken atomic spin densities:
              1
     1  C    0.184003
     2  C   -0.062299
     3  C    0.120525
     4  C    0.073807
     5  C    0.121093
     6  C   -0.062646
     7  C   -0.013422
     8  H    0.002659
     9  H   -0.006648
    10  H    0.003328
    11  H   -0.006679
    12  H    0.002670
    13  H    0.013455
    14  H    0.002965
    15  H    0.002760
    16  Cl   0.624430
 Sum of Mulliken spin densities=   1.00000
 Electronic spatial extent (au):  <R**2>=  1329.0786
 Charge=     0.0000 electrons
 Dipole moment (field-independent basis, Debye):
    X=     4.3566    Y=     0.0036    Z=     1.7453  Tot=     4.6932
 Quadrupole moment (field-independent basis, Debye-Ang):
   XX=   -58.9655   YY=   -50.3646   ZZ=   -56.7610
   XY=    -0.0021   XZ=    -6.9488   YZ=    -0.0076
 Traceless Quadrupole moment (field-independent basis, Debye-Ang):
   XX=    -3.6018   YY=     4.9990   ZZ=    -1.3973
   XY=    -0.0021   XZ=    -6.9488   YZ=    -0.0076
 Octapole moment (field-independent basis, Debye-Ang**2):
  XXX=    31.1450  YYY=    -0.0103  ZZZ=    -3.7473  XYY=     1.5517
  XXY=     0.0236  XXZ=     2.4351  XZZ=    -4.8169  YZZ=     0.0117
  YYZ=     1.6644  XYZ=    -0.0019
 Hexadecapole moment (field-independent basis, Debye-Ang**3):
 XXXX= -1260.3547 YYYY=  -296.9964 ZZZZ=  -267.1985 XXXY=     0.0609
 XXXZ=   -15.4478 YYYX=    -0.0880 YYYZ=    -0.0155 ZZZX=    -6.8301
 ZZZY=    -0.0627 XXYY=  -257.2003 XXZZ=  -241.3384 YYZZ=   -99.0933
 XXYZ=     0.0482 YYXZ=   -10.5685 ZZXY=     0.0589
 N-N= 3.919293203018D+02 E-N=-2.507509281776D+03  KE= 7.294814653590D+02
                          Isotropic Fermi Contact Couplings
        Atom                 a.u.       MegaHertz       Gauss      10(-4) cm-1
     1  C(13)              0.01141      12.83051       4.57825       4.27980
     2  C(13)             -0.00934     -10.50538      -3.74858      -3.50422
     3  C(13)              0.00558       6.27000       2.23729       2.09145
     4  C(13)              0.02611      29.35386      10.47419       9.79139
     5  C(13)              0.00562       6.32094       2.25547       2.10844
     6  C(13)             -0.00937     -10.53534      -3.75927      -3.51421
     7  C(13)             -0.00545      -6.12910      -2.18701      -2.04445
     8  H(1)               0.00058       2.59434       0.92572       0.86538
     9  H(1)              -0.00183      -8.16714      -2.91424      -2.72426
    10  H(1)               0.00269      12.00789       4.28471       4.00540
    11  H(1)              -0.00183      -8.20204      -2.92669      -2.73590
    12  H(1)               0.00058       2.60426       0.92926       0.86869
    13  H(1)               0.00665      29.70510      10.59952       9.90855
    14  H(1)               0.00168       7.49901       2.67583       2.50140
    15  H(1)               0.00156       6.97404       2.48851       2.32629
    16  Cl(35)             0.06353      27.85470       9.93925       9.29133
 --------------------------------------------------------
       Center         ----  Spin Dipole Couplings  ----
                      3XX-RR        3YY-RR        3ZZ-RR
 --------------------------------------------------------
     1   Atom       -0.035123     -0.105434      0.140557
     2   Atom        0.012418      0.023733     -0.036150
     3   Atom       -0.026802     -0.069139      0.095941
     4   Atom        0.022679     -0.070373      0.047693
     5   Atom       -0.026880     -0.069519      0.096399
     6   Atom        0.012490      0.023818     -0.036308
     7   Atom        0.002550     -0.006172      0.003622
     8   Atom        0.001291      0.001311     -0.002602
     9   Atom       -0.006374      0.010015     -0.003641
    10   Atom       -0.001690     -0.012894      0.014584
    11   Atom       -0.006385      0.010005     -0.003620
    12   Atom        0.001305      0.001293     -0.002597
    13   Atom        0.003996     -0.002744     -0.001252
    14   Atom        0.001500     -0.000735     -0.000765
    15   Atom        0.001518     -0.000725     -0.000793
    16   Atom        1.106669     -1.988028      0.881360
 --------------------------------------------------------
                        XY            XZ            YZ
 --------------------------------------------------------
     1   Atom        0.000101      0.121128      0.000213
     2   Atom       -0.000793     -0.033404      0.000097
     3   Atom        0.005665      0.093734      0.005460
     4   Atom        0.000117      0.110536      0.000150
     5   Atom       -0.005509      0.094227     -0.005201
     6   Atom        0.000735     -0.033523     -0.000205
     7   Atom       -0.000005      0.002195      0.000007
     8   Atom       -0.000386     -0.001193      0.000945
     9   Atom       -0.004345      0.003713      0.005806
    10   Atom       -0.000021     -0.009220      0.000046
    11   Atom        0.004393      0.003709     -0.005865
    12   Atom        0.000387     -0.001201     -0.000953
    13   Atom        0.000042      0.000417      0.000024
    14   Atom        0.001713     -0.002053     -0.001145
    15   Atom       -0.001743     -0.002018      0.001119
    16   Atom        0.002576      2.991289      0.002474
 --------------------------------------------------------


 ---------------------------------------------------------------------------------
              Anisotropic Spin Dipole Couplings in Principal Axis System
 ---------------------------------------------------------------------------------

       Atom             a.u.   MegaHertz   Gauss  10(-4) cm-1        Axes

              Baa    -0.1054   -14.148    -5.048    -4.719  0.0004  1.0000 -0.0011
     1 C(13)  Bbb    -0.0969   -13.004    -4.640    -4.338  0.8908 -0.0008 -0.4544
              Bcc     0.2023    27.152     9.689     9.057  0.4544  0.0008  0.8908
 
              Baa    -0.0532    -7.134    -2.546    -2.380  0.4539  0.0036  0.8911
     2 C(13)  Bbb     0.0236     3.172     1.132     1.058  0.1129  0.9917 -0.0614
              Bcc     0.0295     3.963     1.414     1.322  0.8839 -0.1284 -0.4497
 
              Baa    -0.0781   -10.483    -3.741    -3.497  0.8527 -0.2637 -0.4509
     3 C(13)  Bbb    -0.0687    -9.225    -3.292    -3.077  0.2161  0.9640 -0.1550
              Bcc     0.1469    19.708     7.032     6.574  0.4756  0.0347  0.8790
 
              Baa    -0.0761   -10.206    -3.642    -3.404  0.7458  0.0023 -0.6662
     4 C(13)  Bbb    -0.0704    -9.443    -3.370    -3.150 -0.0023  1.0000  0.0009
              Bcc     0.1464    19.649     7.011     6.554  0.6662  0.0009  0.7458
 
              Baa    -0.0785   -10.532    -3.758    -3.513  0.8528  0.2621 -0.4517
     5 C(13)  Bbb    -0.0691    -9.274    -3.309    -3.094 -0.2154  0.9645  0.1529
              Bcc     0.1476    19.806     7.067     6.607  0.4757 -0.0331  0.8790
 
              Baa    -0.0534    -7.162    -2.556    -2.389  0.4536 -0.0020  0.8912
     6 C(13)  Bbb     0.0237     3.183     1.136     1.062 -0.1125  0.9919  0.0595
              Bcc     0.0296     3.979     1.420     1.327  0.8841  0.1273 -0.4497
 
              Baa    -0.0062    -0.828    -0.296    -0.276  0.0008  1.0000 -0.0009
     7 C(13)  Bbb     0.0008     0.111     0.040     0.037  0.7865 -0.0012 -0.6176
              Bcc     0.0053     0.717     0.256     0.239  0.6176  0.0002  0.7865
 
              Baa    -0.0031    -1.648    -0.588    -0.550  0.2433 -0.1832  0.9525
     8 H(1)   Bbb     0.0009     0.491     0.175     0.164  0.6735  0.7386 -0.0300
              Bcc     0.0022     1.157     0.413     0.386  0.6980 -0.6488 -0.3031
 
              Baa    -0.0112    -6.002    -2.142    -2.002  0.7364  0.3141 -0.5992
     9 H(1)   Bbb    -0.0013    -0.718    -0.256    -0.240  0.6581 -0.1275  0.7420
              Bcc     0.0126     6.720     2.398     2.241 -0.1567  0.9408  0.3006
 
              Baa    -0.0129    -6.880    -2.455    -2.295  0.0006  1.0000 -0.0015
    10 H(1)   Bbb    -0.0058    -3.121    -1.114    -1.041  0.9115  0.0000  0.4113
              Bcc     0.0187    10.001     3.569     3.336 -0.4113  0.0016  0.9115
 
              Baa    -0.0113    -6.023    -2.149    -2.009  0.7361 -0.3166 -0.5982
    11 H(1)   Bbb    -0.0013    -0.718    -0.256    -0.240  0.6582  0.1286  0.7418
              Bcc     0.0126     6.741     2.405     2.249  0.1580  0.9398 -0.3031
 
              Baa    -0.0031    -1.649    -0.588    -0.550  0.2437  0.1855  0.9519
    12 H(1)   Bbb     0.0009     0.488     0.174     0.163 -0.6653  0.7462  0.0249
              Bcc     0.0022     1.160     0.414     0.387  0.7057  0.6394 -0.3053
 
              Baa    -0.0027    -1.465    -0.523    -0.489 -0.0053  0.9999 -0.0149
    13 H(1)   Bbb    -0.0013    -0.685    -0.245    -0.229 -0.0788  0.0144  0.9968
              Bcc     0.0040     2.150     0.767     0.717  0.9969  0.0064  0.0788
 
              Baa    -0.0020    -1.074    -0.383    -0.358  0.3753  0.2870  0.8814
    14 H(1)   Bbb    -0.0017    -0.886    -0.316    -0.296 -0.5072  0.8594 -0.0639
              Bcc     0.0037     1.960     0.699     0.654  0.7758  0.4231 -0.4681
 
              Baa    -0.0020    -1.061    -0.378    -0.354  0.3817 -0.2593  0.8872
    15 H(1)   Bbb    -0.0017    -0.894    -0.319    -0.298  0.4976  0.8665  0.0392
              Bcc     0.0037     1.955     0.697     0.652  0.7789 -0.4265 -0.4598
 
              Baa    -1.9994  -104.644   -37.339   -34.905 -0.6937  0.0004  0.7203
    16 Cl(35) Bbb    -1.9880  -104.049   -37.127   -34.707 -0.0001  1.0000 -0.0007
              Bcc     3.9874   208.692    74.467    69.612  0.7203  0.0006  0.6937
 

 ---------------------------------------------------------------------------------

 No NMR shielding tensors so no spin-rotation constants.
 Leave Link  601 at Tue Aug 29 12:20:44 2006, MaxMem=    6291456 cpu:       2.6
 (Enter /usr/local/Gaussian/g03/l701.exe)
 Compute integral first derivatives.
 ... and contract with generalized density number  0.
 Leave Link  701 at Tue Aug 29 12:20:48 2006, MaxMem=    6291456 cpu:       1.3
 (Enter /usr/local/Gaussian/g03/l702.exe)
 L702 exits ... SP integral derivatives will be done elsewhere.
 Leave Link  702 at Tue Aug 29 12:20:49 2006, MaxMem=    6291456 cpu:       0.0
 (Enter /usr/local/Gaussian/g03/l703.exe)
 Compute integral first derivatives, UseDBF=F.
 Integral derivatives from FoFDir, PRISM(SPDF).
 Symmetry not used in FoFDir.
 MinBra= 0 MaxBra= 2 Meth= 1.
 IRaf=       0 NMat=   1 IRICut=       1 DoRegI=T DoRafI=F ISym2E= 0 JSym2E=0.
 Leave Link  703 at Tue Aug 29 12:56:09 2006, MaxMem=    6291456 cpu:     668.9
 (Enter /usr/local/Gaussian/g03/l716.exe)
 Dipole        = 1.71403314D+00 1.42514394D-03 6.86664084D-01
 ***** Axes restored to original set *****
 -------------------------------------------------------------------
 Center     Atomic                   Forces (Hartrees/Bohr)
 Number     Number              X              Y              Z
 -------------------------------------------------------------------
    1          6          -0.001403923   -0.000000698   -0.000826742
    2          6          -0.002286127    0.000068573    0.001014912
    3          6           0.000334584    0.000141316    0.002539644
    4          6           0.002115308   -0.000356743    0.001252044
    5          6           0.002386088    0.000142497   -0.000930243
    6          6          -0.000205365    0.000072549   -0.002493857
    7          6          -0.001088590   -0.000003006   -0.000639952
    8          1          -0.000189390   -0.000019027    0.000133279
    9          1          -0.000015701   -0.000050659    0.000238426
   10          1           0.000172025    0.000020628    0.000101403
   11          1           0.000201640   -0.000051206   -0.000128647
   12          1           0.000025073   -0.000019899   -0.000230748
   13          1           0.000019297    0.000157076    0.000010991
   14          1          -0.000130008   -0.000087724    0.000090336
   15          1           0.000017528   -0.000086615   -0.000159587
   16         17           0.000047561    0.000072937    0.000028741
 -------------------------------------------------------------------
 Cartesian Forces:  Max     0.002539644 RMS     0.000871718
 Leave Link  716 at Tue Aug 29 12:56:10 2006, MaxMem=    6291456 cpu:       0.0
 (Enter /usr/local/Gaussian/g03/l103.exe)

 GradGradGradGradGradGradGradGradGradGradGradGradGradGradGradGradGradGrad
 Berny optimization.
 Internal  Forces:  Max     0.003047006 RMS     0.000714204
 Search for a local minimum.
 Step number   1 out of a maximum of 100
 All quantities printed in internal units (Hartrees-Bohrs-Radians)
 Second derivative matrix not updated -- first step.
[...]
   D16       -3.13449  -0.00001   0.00000   0.00007   0.00007  -3.13442
   D17       -1.11557   0.00001   0.00000   0.00093   0.00093  -1.11463
   D18        3.12231   0.00000   0.00000   0.00010   0.00010   3.12241
   D19        0.00031  -0.00001   0.00000   0.00027   0.00027   0.00057
   D20        2.01923   0.00001   0.00000   0.00113   0.00113   2.02036
   D21        0.02587   0.00001   0.00000   0.00040   0.00040   0.02627
   D22        3.00214  -0.00004   0.00000  -0.00465  -0.00465   2.99749
   D23       -3.13510   0.00002   0.00000   0.00024   0.00024  -3.13486
   D24       -0.15882  -0.00004   0.00000  -0.00481  -0.00481  -0.16363
   D25        1.35545  -0.00004   0.00000  -0.00267  -0.00267   1.35277
   D26        2.45709  -0.00002   0.00000  -0.00248  -0.00248   2.45461
   D27       -2.68374  -0.00003   0.00000  -0.00179  -0.00179  -2.68553
   D28       -1.58210  -0.00001   0.00000  -0.00160  -0.00160  -1.58370
   D29       -0.02591  -0.00001   0.00000  -0.00034  -0.00034  -0.02625
   D30        3.13505  -0.00002   0.00000  -0.00019  -0.00019   3.13487
   D31       -3.00219   0.00004   0.00000   0.00471   0.00471  -2.99748
   D32        0.15878   0.00004   0.00000   0.00487   0.00487   0.16364
   D33        0.01257   0.00000   0.00000  -0.00002  -0.00002   0.01255
   D34       -3.12225   0.00000   0.00000  -0.00019  -0.00019  -3.12243
   D35        3.13458   0.00001   0.00000  -0.00018  -0.00018   3.13440
   D36       -0.00024   0.00001   0.00000  -0.00035  -0.00034  -0.00058
   D37        1.11654  -0.00001   0.00000  -0.00256  -0.00257   1.11397
   D38       -2.01828  -0.00001   0.00000  -0.00272  -0.00273  -2.02101
   D39       -1.35584   0.00004   0.00000   0.00336   0.00336  -1.35248
   D40       -2.45705   0.00002   0.00000   0.00243   0.00243  -2.45462
   D41        2.68379   0.00003   0.00000   0.00169   0.00170   2.68549
   D42        1.58259   0.00001   0.00000   0.00076   0.00076   1.58335
         Item               Value     Threshold  Converged?
 Maximum Force            0.000284     0.000450     YES
 RMS     Force            0.000064     0.000300     YES
 Maximum Displacement     0.029751     0.001800     NO 
 RMS     Displacement     0.006459     0.001200     NO 
 Predicted change in Energy=-2.392865D-06
 GradGradGradGradGradGradGradGradGradGradGradGradGradGradGradGradGradGrad

 Leave Link  103 at Wed Aug 30 22:59:42 2006, MaxMem=    6291456 cpu:       0.3
 (Enter /usr/local/Gaussian/g03/l9999.exe)
 1\1\GINC-PUBLIX\Freq\UB3LYP\6-311+G(d,p)\C7H8Cl1(2)\NOBODY\30-Aug-2006
 \0\\#P GEOM=ALLCHECK GUESS=READ SCRF=CHECK GENCHK UB3LYP/6-311+G(D,P) 
 FREQ\\toluene\cl basis2\\0,2\C,-1.3402551522,0.6330593074,-0.792545744
 8\C,-1.3397448306,0.633157632,0.6141791868\C,-0.1533960599,0.632754152
 8,1.32468249\C,1.0819543635,0.6169868149,0.6408158205\C,1.0868045506,0
 .633631999,-0.7711175524\C,-0.1070853298,0.6339767921,-1.4691067317\C,
 -2.6350637714,0.6538410213,-1.5582889979\H,-2.2856854947,0.6271580925,
 1.1449882868\H,-0.1616251882,0.6262041394,2.4077466471\H,2.0055760161,
 0.7466385696,1.1874216845\H,2.0321943802,0.62780128,-1.2996421871\H,-0
 .0970705687,0.6285926042,-2.5537409287\H,-2.958958932,1.6861910077,-1.
 7365620977\H,-3.4338488136,0.1530055037,-1.0072905404\H,-2.5317083147,
 0.1721378253,-2.5327609037\Cl,1.6395202526,-1.8760103141,0.968125248\\
 Version=Sun64-SVR4-Unix-G03RevB.04\State=2-A\HF=-731.8236328\S2=0.7591
 45\S2-1=0.\S2A=0.75006\RMSD=4.154e-09\RMSF=8.376e-05\Dipole=-1.0510688
 ,1.3912201,-0.6198484\DipoleDeriv=0.6270637,-0.2419468,0.2849555,-0.06
 16612,-0.0073971,-0.0367307,0.2845558,-0.1435056,0.3113928,-0.1382667,
 0.185611,-0.2796377,-0.0155799,-0.0740425,-0.0169356,-0.4988876,0.4195
 313,-0.4185571,0.3758231,-0.6046804,0.2985466,-0.0173652,-0.1201277,-0
 .0655225,0.0060122,0.0929782,0.1258315,-0.1381285,0.3292052,-0.0505415
 ,0.1580648,-0.2420769,0.0934507,-0.0521671,0.1962926,-0.0830759,0.3137
 459,-0.2096704,0.0409412,-0.0657563,-0.1195978,0.0159398,0.3356616,-0.
 5761141,0.1894026,-0.6833681,0.4560966,-0.1989682,-0.0229489,-0.073676
 9,-0.0054401,0.0189474,-0.0392927,0.1248091,-0.134467,0.0887452,-0.139
 0361,0.2064792,0.0016405,0.1220616,-0.1329104,0.0495353,0.0236678,-0.0
 676715,0.0210032,0.0595644,-0.0086135,0.1323508,0.0045722,0.0607449,-0
 .0050863,0.0463151,0.066642,0.0090488,-0.00082,0.014085,0.1062047,0.01
 96713,0.0118992,-0.0287705,-0.0396782,0.0421022,-0.0427221,-0.0199947,
 -0.0516318,0.1653382,-0.0305019,-0.0199801,-0.0252815,0.0640258,-0.010
 2759,-0.0209249,0.0540872,0.0239746,0.1060864,0.0029492,0.0414525,0.02
 18273,0.0373923,0.0705658,0.0056614,-0.0153892,-0.0001177,0.132412,-0.
 009623,-0.0164944,0.0210141,-0.0920396,-0.013568,0.0470863,-0.0624954,
 0.0260974,-0.0513148,0.0132527,-0.063642,0.0264224,0.0548363,-0.044443
 5,-0.0331423,0.009295,-0.1080734,0.0648473,0.0131846,0.0579973,0.07294
 98,-0.0125771,0.0099083,0.0464422,0.0317725,-0.0400822,0.0673392,-0.09
 86294,-0.0208467,-0.061439,-0.0695282,-0.2756617,-0.035813,-0.0122796,
 -0.036871,-0.0879857,-0.0216987,-0.0123426,-0.0210612,-0.2622171\Polar
 =129.6546398,-36.6222007,110.8685631,21.4514956,-21.6307573,105.950247
 2\PG=C01 [X(C7H8Cl1)]\NImag=0\\0.62264381,-0.00216349,0.17901275,-0.00
 071778,-0.00144067,0.62289020,-0.12793948,0.00003945,0.04708929,0.7336
 3436,-0.00110795,-0.06782807,0.00289533,0.00015710,0.13059233,-0.02806
 747,-0.00029020,-0.28450092,-0.02572731,-0.00393609,0.64081459,0.02915
 321,-0.00042913,-0.07355903,-0.29692180,0.00163511,-0.06612155,0.64929
 210,-0.00132038,0.00552006,0.00463516,-0.00164112,-0.06101156,-0.00448
 279,0.00123916,0.13605213,-0.02794916,0.00021820,-0.03425494,-0.127756
 55,0.00001736,-0.18394191,0.02330891,0.00075962,0.73672782,-0.00765187
 ,-0.00024448,0.01840850,-0.05144388,0.00035358,-0.01410990,-0.25648786
 ,-0.00013262,0.09972614,0.68545863,-0.00341623,-0.00884444,-0.00200261
 ,0.00397750,0.00816513,0.00774960,-0.01502399,-0.05628033,-0.00007574,
 0.04758204,0.11466348,0.01839401,-0.00013222,-0.02790448,0.00715977,0.
 00174980,0.04334415,0.05875806,-0.00810147,-0.16667375,0.04839945,0.02
 793510,0.63247998,-0.06240315,-0.00005594,0.02240662,-0.01530800,-0.00
 041850,-0.02439940,0.02512025,-0.00121977,0.03240906,-0.12060357,-0.00
 735200,0.02506668,0.73593303,0.00342102,0.00550642,-0.00342123,0.00108
 156,-0.00464272,0.00170277,0.00128173,0.00770514,-0.00206475,-0.007192
 09,-0.05623769,0.00394566,0.00153643,0.13605547,-0.02326076,-0.0005204
 3,0.05733257,-0.02236476,-0.00123297,-0.03952681,0.05655700,0.00213816
 ,-0.02372710,-0.01583171,-0.01299840,-0.30270954,-0.02449241,0.0004259
 6,0.64994221,-0.24048705,-0.00030534,0.03356568,0.03311576,0.00146977,
 0.07125256,-0.05363017,0.00200521,-0.00334319,0.01843897,0.00875260,-0
 .05243733,-0.29161122,-0.00480615,-0.06870365,0.64043241,0.00189065,-0
 .06776766,-0.00230157,0.00117204,0.00826011,0.00106905,-0.00130217,-0.
 00464692,0.00022188,0.00172331,0.00817326,-0.00052037,0.00079849,-0.06
 105378,0.00147043,-0.00321161,0.13055611,0.10889798,0.00027370,-0.1722
 9733,0.03249461,0.00054159,-0.02383768,-0.00132407,0.00012640,-0.00118
 387,-0.03121173,-0.00023206,-0.02655740,-0.13037022,0.00073080,-0.1888
 7569,0.02503357,0.00170711,0.73391719,-0.17888011,0.00138655,-0.052701
 23,-0.00113539,-0.00123276,-0.00844802,0.00294677,-0.00113168,0.003205
 74,-0.00107777,0.00067547,-0.00028783,-0.00002267,0.00002443,0.0040668
 5,-0.03177623,0.00116729,-0.01531670,0.50612251,-0.00504640,-0.0707311
 6,-0.00296922,0.00007525,0.00716643,0.00170312,-0.00188235,0.00610865,
 -0.00133673,0.00046602,-0.00149943,0.00026936,-0.00208364,0.00619656,-
 0.00099747,0.00151087,0.00732823,-0.00076451,0.01347069,0.52261154,-0.
 05301542,0.00083333,-0.12100357,-0.03223347,0.00201485,-0.01876227,0.0
 0247839,0.00065408,-0.00405329,-0.00028072,0.00038053,-0.00068832,0.00
 470196,-0.00128731,-0.00115453,0.00856109,-0.00204311,0.01188448,-0.04
 327791,0.00789289,0.55468660,0.00177914,-0.00009154,-0.00170040,-0.267
 15770,-0.00169812,0.11790271,-0.01919654,0.00031434,0.01523035,-0.0029
 0937,-0.00028984,-0.00412798,0.00030177,0.00001216,-0.00032091,0.00141
 707,-0.00002533,-0.00079379,0.00077849,-0.00008393,-0.00099524,0.28393
 708,-0.00063768,0.00326822,0.00003773,-0.00215007,-0.03729965,0.000888
 79,-0.00012998,0.00379366,0.00034705,0.00057909,0.00795165,0.00019510,
 -0.00011693,-0.00086120,-0.00011660,0.00037650,0.00599099,-0.00016040,
 0.00083832,-0.00291663,-0.00043784,0.00175411,0.02537948,0.02832478,0.
 00022478,-0.01134178,0.11754862,0.00058579,-0.12485589,-0.01599692,0.0
 0014580,0.01171036,-0.00323487,-0.00000524,-0.00130132,-0.00086889,0.0
 0008260,-0.00058600,-0.00114635,0.00006534,-0.00560738,0.00147333,0.00
 057679,0.00128524,-0.12598862,-0.00097407,0.12997945,-0.00463671,0.000
 07244,-0.00218920,0.00482275,0.00007063,-0.02825292,-0.05868151,0.0000
 2864,0.00189215,0.00361502,0.00004179,0.02889431,-0.00494821,0.0002402
 7,0.00224983,-0.00081636,-0.00003621,-0.00003583,0.00046010,-0.0000826
 2,-0.00107527,0.00091907,-0.00002935,0.00040406,0.05841276,-0.00000371
 ,0.00816044,-0.00074044,0.00037004,0.00571721,0.00050918,-0.00175924,-
 0.03793871,0.00293223,0.00060584,0.00249644,-0.00120127,0.00033255,0.0
 0545024,0.00023590,-0.00037833,-0.00097077,0.00002492,0.00022983,-0.00
 064626,-0.00013748,0.00010481,-0.00453823,-0.00000712,0.00009379,0.024
 87956,-0.00268970,0.00020674,0.00035584,0.00307306,0.00024878,-0.01036
 568,0.00180063,0.00136098,-0.34063756,-0.00205070,0.00010210,-0.010214
 91,0.00278643,-0.00011179,0.00057184,-0.00021069,0.00000814,0.00062183
 ,0.00044178,-0.00014414,-0.00048589,-0.00018332,-0.00012081,0.00080594
 ,-0.00245606,-0.00199524,0.35932849,-0.00035501,0.00014306,0.00090736,
 -0.00273025,-0.00066865,0.00411649,-0.01831057,-0.00253027,-0.01526768
 ,-0.26736240,-0.03320093,-0.12369314,0.00451296,0.00149588,0.00144942,
 0.00223517,-0.00075907,0.00082120,0.00012507,-0.00001469,-0.00004899,-
 0.00088990,0.00012115,-0.00076787,0.00090791,0.00058790,0.00012779,0.2
 8097619,0.00025468,-0.00058385,0.00014948,-0.00033188,0.00506806,-0.00
 086043,0.00328186,0.00320371,-0.00009352,-0.03475083,-0.03333272,-0.02
 054545,0.00151918,0.00320100,0.00293028,-0.00091742,0.00507367,0.00013
 092,0.00004150,-0.00039823,0.00002647,0.00000408,0.00003543,-0.0000547
 7,-0.00009399,-0.00279998,0.00007661,0.03217947,0.03326649,0.00090699,
 0.00008563,-0.00135432,0.00354842,-0.00049491,-0.00047464,0.01398631,0
 .00309987,0.01210019,-0.12369437,-0.01963783,-0.13155397,-0.02780054,-
 0.00371212,-0.01072972,0.00138810,-0.00034160,-0.00544102,-0.00004358,
 -0.00001056,0.00017072,0.00081824,-0.00032288,0.00041301,-0.00050422,0
 .00021076,0.00062568,0.13231775,0.01903345,0.13569787,-0.00286143,0.00
 021348,-0.00366342,0.00018487,-0.00000927,-0.00075989,0.00141862,0.000
 01589,-0.00070911,0.00431474,0.00011269,-0.00243414,-0.27377419,0.0010
 3521,0.11990861,-0.01746131,0.00023378,0.01531714,-0.00052957,-0.00016
 680,0.00097945,-0.00003577,-0.00002308,0.00007134,0.00010197,-0.000007
 73,-0.00020750,0.00053232,0.00002304,0.00033406,0.28754906,-0.00065487
 ,0.00814815,0.00036047,-0.00016058,-0.00097230,-0.00034667,0.00036712,
 0.00545225,0.00018549,-0.00077503,0.00249786,0.00111510,0.00154816,-0.
 03792998,-0.00285667,0.00063091,0.00572408,0.00008315,-0.00000946,-0.0
 0065996,0.00026524,-0.00000837,-0.00094088,-0.00002113,-0.00001616,0.0
 0061561,0.00000005,0.00047010,-0.00280282,0.00041246,-0.00151767,0.024
 87150,-0.00316806,-0.00003195,-0.00141876,-0.00058598,-0.00003648,-0.0
 0038179,-0.00124511,0.00027140,-0.00579243,0.02851104,0.00000777,-0.01
 091478,0.11999709,-0.00052444,-0.12556492,-0.01600785,-0.00007000,0.01
 192986,-0.00052820,-0.00000241,0.00050526,0.00006078,-0.00001081,0.000
 09072,0.00140312,-0.00001293,-0.00055452,-0.00029753,-0.00012235,0.001
 00167,-0.12828097,0.00092462,0.13020332,0.00289217,0.00013932,0.027666
 13,-0.00479642,0.00004010,0.00227032,-0.00088224,0.00007857,-0.0002188
 9,-0.00478055,-0.00014787,-0.00220758,0.00422541,0.00029557,-0.0288535
 4,-0.05845857,-0.00031513,0.00295761,0.00136584,0.00046740,0.00119644,
 0.00014311,0.00003761,0.00146405,0.00011687,-0.00002217,-0.00001281,0.
 00013251,-0.00004492,-0.00132935,0.00092458,0.00004599,0.00040068,0.05
 934536,-0.00026742,0.00327347,-0.00055744,0.00003482,0.00599009,0.0004
 1149,-0.00015886,-0.00086120,-0.00004676,0.00044554,0.00794170,0.00041
 672,0.00024248,0.00378249,-0.00028376,-0.00026734,-0.03728229,-0.00214
 510,0.00002419,-0.00297747,0.00094214,0.00003656,0.00028043,0.00002391
 ,-0.00002018,-0.00094048,-0.00001568,-0.00022450,0.00003749,0.00026090
 ,-0.00011794,-0.00453086,0.00002953,0.00000279,0.02538307,-0.00233642,
 -0.00018316,-0.01251136,0.00262157,-0.00005006,0.00060692,0.00033020,-
 0.00002967,0.00059753,-0.00309894,-0.00024871,0.00057161,0.00236435,0.
 00021565,-0.01170792,0.00334287,-0.00160486,-0.33356781,-0.00132508,-0
 .00035220,0.00068918,-0.00008186,0.00002099,-0.00061757,-0.00002337,0.
 00000232,-0.00006230,0.00025673,0.00003057,-0.00060868,-0.00018717,0.0
 0009219,0.00079859,-0.00265605,0.00182285,0.35461764,-0.01129671,0.026
 70823,-0.00620582,-0.00008487,-0.00056237,0.00113510,-0.00068203,-0.00
 090408,-0.00012107,-0.00005522,0.00022781,-0.00043038,0.00029522,-0.00
 139385,0.00049131,-0.00124851,-0.00141902,-0.00140000,-0.06353995,0.07
 128425,-0.01133065,0.00016770,0.00037614,-0.00010783,-0.00006466,0.000
 12025,-0.00004392,0.00000798,0.00004681,0.00000173,-0.00008618,0.00023
 424,-0.00004250,-0.00013581,0.00064816,0.00025750,0.07087517,0.0023335
 5,0.00267328,0.00141303,-0.00018014,0.00015568,-0.00116462,0.00072713,
 0.00002859,0.00036863,-0.00026275,0.00016479,-0.00015191,0.00066040,0.
 00001547,0.00045772,-0.00110659,0.00009636,0.00040348,0.06663603,-0.27
 134797,0.03643802,0.00008362,-0.00028403,0.00000437,0.00003632,0.00007
 941,0.00003226,0.00003771,-0.00009730,0.00002363,0.00004486,0.00008250
 ,0.00001591,0.00003238,-0.00027017,0.00007689,-0.07622909,0.29658866,-
 0.00648701,0.01582499,-0.00377884,-0.00197814,-0.00132341,-0.00110005,
 0.00106037,-0.00107258,0.00012322,-0.00044602,0.00014137,0.00042035,-0
 .00065270,-0.00027129,-0.00086375,0.00168894,0.00015949,0.00000046,-0.
 01140033,0.03918425,-0.04924175,0.00010080,0.00052707,-0.00024226,-0.0
 0004784,0.00020166,-0.00003470,0.00000507,0.00002315,0.00000595,-0.000
 03551,0.00000834,-0.00002042,0.00005904,0.00006012,0.00007982,0.015146
 22,-0.04182160,0.05204821,-0.02227539,-0.01199488,0.01482505,0.0014125
 3,0.00093384,0.00236258,-0.00007856,0.00060146,-0.00028625,-0.00000847
 ,-0.00011191,-0.00001889,-0.00071181,0.00067680,0.00106440,-0.00331265
 ,-0.00053971,-0.00409390,-0.18316031,-0.08930337,0.09667145,0.00052376
 ,-0.00053687,-0.00093893,0.00001381,-0.00006602,-0.00000724,0.00006271
 ,-0.00008567,-0.00006035,-0.00033074,-0.00002705,-0.00021310,0.0001718
 4,-0.00024682,-0.00011135,0.00738070,0.00385844,-0.00520052,0.20222769
 ,0.00411298,-0.00005877,-0.00084449,-0.00005655,0.00045149,0.00022050,
 0.00004130,-0.00008510,-0.00011318,0.00001642,0.00013799,-0.00027698,0
 .00086716,0.00001572,0.00058416,-0.00018221,0.00061686,-0.00000484,-0.
 09146300,-0.10118852,0.06100562,-0.00005574,0.00008400,-0.00043344,-0.
 00001868,-0.00001210,0.00000167,0.00004539,-0.00000810,-0.00000274,0.0
 0005225,-0.00008491,0.00000750,-0.00005488,-0.00002733,0.00013931,-0.0
 2268565,-0.01421171,0.01637638,0.09727733,0.10686718,-0.01254229,-0.00
 941016,0.00972234,-0.00150331,-0.00015266,0.00025456,0.00055287,-0.000
 29485,0.00046644,-0.00023900,0.00007626,0.00007398,-0.00039299,0.00038
 820,0.00053173,-0.00198703,0.00064616,-0.00177962,0.09876178,0.0618140
 0,-0.11887788,0.00016714,0.00023946,-0.00017382,0.00006288,-0.00001381
 ,0.00003233,0.00004829,0.00007051,0.00001176,-0.00014716,-0.00007335,-
 0.00008667,-0.00031294,-0.00005754,0.00024582,0.00299930,0.00172053,-0
 .00292136,-0.10503076,-0.06956377,0.12569357,0.00341716,-0.01351227,-0
 .02684732,-0.00476571,0.00030151,-0.00125949,0.00053497,0.00064773,-0.
 00109624,-0.00004428,0.00001093,-0.00019932,0.00043045,0.00002338,0.00
 024622,0.00093168,0.00029884,-0.00123452,-0.05160407,0.01127356,0.0277
 0842,0.00004799,-0.00016695,-0.00024381,-0.00029952,-0.00007541,-0.000
 16907,0.00001647,0.00002058,0.00007263,0.00005172,-0.00004137,0.000042
 16,-0.00034467,-0.00004471,0.00064308,-0.00154956,0.00333669,0.0082326
 4,-0.00198890,0.01212585,0.01959157,0.05518529,0.00124474,-0.00017930,
 0.00396811,-0.00009184,0.00069233,-0.00016859,0.00092531,0.00003738,0.
 00047493,-0.00023614,0.00014003,0.00014631,-0.00006991,-0.00009645,0.0
 0009061,0.00014985,0.00040819,-0.00014993,0.00951296,-0.09714723,-0.10
 644745,0.00009561,-0.00004107,-0.00011822,0.00003218,-0.00009383,0.000
 04153,0.00001952,-0.00000737,0.00004111,-0.00000675,-0.00001221,-0.000
 01678,-0.00039774,0.00010255,0.00015588,0.00354388,-0.01361005,-0.0280
 1892,-0.00045439,0.00750694,0.01460987,-0.01420814,0.10230389,0.000985
 31,-0.00571654,-0.01584022,-0.00335530,-0.00078921,-0.00040037,0.00041
 254,0.00038147,-0.00070068,0.00000496,-0.00012511,0.00011419,-0.000559
 60,0.00065145,-0.00003421,0.00264058,0.00087568,0.00078531,0.02541966,
 -0.10493456,-0.25493195,-0.00004013,-0.00017440,0.00036725,-0.00023429
 ,0.00001396,-0.00012162,-0.00003569,-0.00010639,0.00005744,-0.00002751
 ,-0.00004966,-0.00000582,-0.00048237,-0.00057614,0.00070090,-0.0003038
 9,0.00218853,0.00546004,0.00108947,-0.00703902,-0.01319019,-0.02551039
 ,0.11538503,0.27765083,-0.00109859,0.00009455,0.00271558,-0.00088676,0
 .00073599,-0.00189381,-0.00359464,0.00394893,0.00097578,0.00059789,-0.
 00183804,-0.00083567,-0.00143627,0.00226764,-0.00220590,0.00223103,0.0
 0032387,0.00025864,-0.00007272,0.00011576,-0.00003953,0.00017409,-0.00
 029202,0.00000789,0.00007670,-0.00013239,-0.00019868,0.00013885,-0.001
 14648,0.00005818,0.00000130,-0.00008597,-0.00004559,0.00008058,-0.0000
 8677,0.00000394,0.00001672,-0.00000857,-0.00004501,0.00007378,-0.00002
 197,-0.00002837,-0.00001902,-0.00005912,-0.00000337,0.00371707,0.00136
 052,0.00043046,0.00081837,-0.00229558,-0.00050457,-0.00300511,0.011186
 99,-0.00707772,-0.00179469,-0.00817792,0.00386225,-0.00484349,0.003811
 87,-0.00710669,0.01067307,-0.00372074,-0.00050644,-0.00056524,-0.00017
 036,0.00010144,-0.00009999,-0.00015240,0.00009782,-0.00009538,-0.00031
 885,0.00054143,0.00030879,0.00229793,-0.00985549,0.00135484,0.00011806
 ,0.00054196,-0.00042857,-0.00015701,0.00009850,-0.00008798,0.00000430,
 -0.00006352,0.00000098,0.00001883,-0.00000363,0.00000117,0.00000979,-0
 .00000379,0.00001492,-0.00381541,0.01944799,0.00272501,0.00005796,-0.0
 0409444,0.00196948,-0.00003771,0.00312778,-0.00099858,0.00040842,-0.00
 076002,-0.00085215,-0.00106703,0.00151423,-0.00019544,0.00324984,-0.00
 289816,-0.00363731,0.00065823,0.00000865,-0.00004029,0.00007141,-0.000
 02202,-0.00004777,0.00006163,0.00007405,-0.00008734,-0.00002265,0.0001
 3523,0.00006080,-0.00068853,0.00007805,-0.00015822,-0.00009963,0.00021
 069,0.00005926,-0.00028522,0.00016763,-0.00004510,-0.00000486,0.000065
 07,-0.00005168,-0.00005669,-0.00000298,0.00002342,0.00000652,0.0000891
 0,0.00127590,-0.00225170,0.00230717\\-0.00019440,0.00002837,-0.0001167
 1,-0.00011055,-0.00004282,0.00006054,0.00020432,-0.00000034,0.00012043
 ,-0.00000152,0.00022331,-0.00000131,0.00020538,-0.00000032,0.00012291,
 -0.00000194,-0.00004508,-0.00012566,0.00012267,-0.00005810,0.00006931,
 -0.00005672,-0.00001057,0.00000782,0.00001477,0.00002320,0.00005337,0.
 00002911,-0.00000835,0.00001750,0.00005392,0.00002396,-0.00001247,-0.0
 0001997,-0.00000977,-0.00005313,-0.00007411,-0.00000035,-0.00004148,-0
 .00007765,0.00001335,-0.00004579,-0.00007754,0.00001533,-0.00004522,-0
 .00001579,-0.00015182,-0.00001012\\\@


 Make no judgements where you have no compassion.
                               -- Anne McCaffrey
 Job cpu time:  0 days  9 hours 43 minutes 57.9 seconds.
 File lengths (MBytes):  RWF=    190 Int=      0 D2E=      0 Chk=     14 Scr=      1
 Normal termination of Gaussian 03 at Wed Aug 30 22:59:44 2006.
