 Entering Gaussian System, Link 0=/usr/local/gaussian/g03/g03
 Initial command:
 /usr/local/gaussian/g03/l1.exe /tmp/webmo/1/Gau-28330.inp -scrdir=/tmp/webmo/1/
 Entering Link 1 = /usr/local/gaussian/g03/l1.exe PID=     28333.
  
 Copyright (c) 1988,1990,1992,1993,1995,1998,2003, Gaussian, Inc.
                  All Rights Reserved.
  
 This is the Gaussian(R) 03 program.  It is based on the
 the Gaussian(R) 98 system (copyright 1998, Gaussian, Inc.),
 the Gaussian(R) 94 system (copyright 1995, Gaussian, Inc.),
 the Gaussian 92(TM) system (copyright 1992, Gaussian, Inc.),
 the Gaussian 90(TM) system (copyright 1990, Gaussian, Inc.),
 the Gaussian 88(TM) system (copyright 1988, Gaussian, Inc.),
 the Gaussian 86(TM) system (copyright 1986, Carnegie Mellon
 University), and the Gaussian 82(TM) system (copyright 1983,
 Carnegie Mellon University). Gaussian is a federally registered
 trademark of Gaussian, Inc.
  
 This software contains proprietary and confidential information,
 including trade secrets, belonging to Gaussian, Inc.
  
 This software is provided under written license and may be
 used, copied, transmitted, or stored only in accord with that
 written license.
  
 The following legend is applicable only to US Government
 contracts under DFARS:
  
                    RESTRICTED RIGHTS LEGEND
  
 Use, duplication or disclosure by the US Government is subject
 to restrictions as set forth in subparagraph (c)(1)(ii) of the
 Rights in Technical Data and Computer Software clause at DFARS
 252.227-7013.
  
 Gaussian, Inc.
 Carnegie Office Park, Building 6, Pittsburgh, PA 15106 USA
  
 The following legend is applicable only to US Government
 contracts under FAR:
  
                    RESTRICTED RIGHTS LEGEND
  
 Use, reproduction and disclosure by the US Government is subject
 to restrictions as set forth in subparagraph (c) of the
 Commercial Computer Software - Restricted Rights clause at FAR
 52.227-19.
  
 Gaussian, Inc.
 Carnegie Office Park, Building 6, Pittsburgh, PA 15106 USA
  
  
 ---------------------------------------------------------------
 Warning -- This program may not be used in any manner that
 competes with the business of Gaussian, Inc. or will provide
 assistance to any competitor of Gaussian, Inc.  The licensee
 of this program is prohibited from giving any competitor of
 Gaussian, Inc. access to this program.  By using this program,
 the user acknowledges that Gaussian, Inc. is engaged in the
 business of creating and licensing software in the field of
 computational chemistry and represents and warrants to the
 licensee that it is not a competitor of Gaussian, Inc. and that
 it will not use this program in any manner prohibited above.
 ---------------------------------------------------------------
  

 Cite this work as:
 Gaussian 03, Revision B.04,
 M. J. Frisch, G. W. Trucks, H. B. Schlegel, G. E. Scuseria, 
 M. A. Robb, J. R. Cheeseman, J. A. Montgomery, Jr., T. Vreven, 
 K. N. Kudin, J. C. Burant, J. M. Millam, S. S. Iyengar, J. Tomasi, 
 V. Barone, B. Mennucci, M. Cossi, G. Scalmani, N. Rega, 
 G. A. Petersson, H. Nakatsuji, M. Hada, M. Ehara, K. Toyota, 
 R. Fukuda, J. Hasegawa, M. Ishida, T. Nakajima, Y. Honda, O. Kitao, 
 H. Nakai, M. Klene, X. Li, J. E. Knox, H. P. Hratchian, J. B. Cross, 
 C. Adamo, J. Jaramillo, R. Gomperts, R. E. Stratmann, O. Yazyev, 
 A. J. Austin, R. Cammi, C. Pomelli, J. W. Ochterski, P. Y. Ayala, 
 K. Morokuma, G. A. Voth, P. Salvador, J. J. Dannenberg, 
 V. G. Zakrzewski, S. Dapprich, A. D. Daniels, M. C. Strain, 
 O. Farkas, D. K. Malick, A. D. Rabuck, K. Raghavachari, 
 J. B. Foresman, J. V. Ortiz, Q. Cui, A. G. Baboul, S. Clifford, 
 J. Cioslowski, B. B. Stefanov, G. Liu, A. Liashenko, P. Piskorz, 
 I. Komaromi, R. L. Martin, D. J. Fox, T. Keith, M. A. Al-Laham, 
 C. Y. Peng, A. Nanayakkara, M. Challacombe, P. M. W. Gill, 
 B. Johnson, W. Chen, M. W. Wong, C. Gonzalez, and J. A. Pople, 
 Gaussian, Inc., Pittsburgh PA, 2003.
 
 *********************************************
 Gaussian 03:  x86-Linux-G03RevB.04 2-Jun-2003
                  20-Nov-2006 
 *********************************************
 --------------------------
 #N B3LYP/6-31G(d) OPT FREQ
 --------------------------
 1/14=-1,18=20,26=3,38=1/1,3;
 2/9=110,17=6,18=5,40=1/2;
 3/5=1,6=6,7=1,11=2,16=1,25=1,30=1,74=-5/1,2,3;
 4//1;
 5/5=2,38=5/2;
 6/7=2,8=2,9=2,10=2,28=1/1;
 7//1,2,3,16;
 1/14=-1,18=20/3(1);
 99//99;
 2/9=110/2;
 3/5=1,6=6,7=1,11=2,16=1,25=1,30=1,74=-5/1,2,3;
 4/5=5,16=3/1;
 5/5=2,38=5/2;
 7//1,2,3,16;
 1/14=-1,18=20/3(-5);
 2/9=110/2;
 6/7=2,8=2,9=2,10=2,19=2,28=1/1;
 99/9=1/99;
 ---
 CH4
 ---
 Symbolic Z-matrix:
 Charge =  0 Multiplicity = 1
 C
 H                    1    B1
 H                    1    B2       2    A1
 H                    1    B3       2    A2       3    D1       0
 H                    1    B4       2    A3       3    D2       0
       Variables:
  B1                    1.113                    
  B2                    1.113                    
  B3                    1.113                    
  B4                    1.113                    
  A1                  109.47124                  
  A2                  109.47119                  
  D1                  120.                       
  A3                  109.47123                  
  D2                 -120.                       
 
     3 tetrahedral angles replaced.

 GradGradGradGradGradGradGradGradGradGradGradGradGradGradGradGradGradGrad
 Berny optimization.
 Initialization pass.
                           ----------------------------
                           !    Initial Parameters    !
                           ! (Angstroms and Degrees)  !
 --------------------------                            --------------------------
 ! Name  Definition              Value          Derivative Info.                !
 --------------------------------------------------------------------------------
 ! R1    R(1,2)                  1.113          estimate D2E/DX2                !
 ! R2    R(1,3)                  1.113          estimate D2E/DX2                !
 ! R3    R(1,4)                  1.113          estimate D2E/DX2                !
 ! R4    R(1,5)                  1.113          estimate D2E/DX2                !
 ! A1    A(2,1,3)              109.4712         estimate D2E/DX2                !
 ! A2    A(2,1,4)              109.4712         estimate D2E/DX2                !
 ! A3    A(2,1,5)              109.4712         estimate D2E/DX2                !
 ! A4    A(3,1,4)              109.4712         estimate D2E/DX2                !
 ! A5    A(3,1,5)              109.4712         estimate D2E/DX2                !
 ! A6    A(4,1,5)              109.4712         estimate D2E/DX2                !
 --------------------------------------------------------------------------------
 Trust Radius=3.00D-01 FncErr=1.00D-07 GrdErr=1.00D-06
 Number of steps in this run=  20 maximum allowed number of steps= 100.
 GradGradGradGradGradGradGradGradGradGradGradGradGradGradGradGradGradGrad

                          Input orientation:                          
 ---------------------------------------------------------------------
 Center     Atomic     Atomic              Coordinates (Angstroms)
 Number     Number      Type              X           Y           Z
 ---------------------------------------------------------------------
    1          6             0        0.000000    0.000000    0.000000
    2          1             0        0.000000    0.000000    1.113000
    3          1             0        1.049347    0.000000   -0.371000
    4          1             0       -0.524673   -0.908761   -0.371000
    5          1             0       -0.524673    0.908761   -0.371000
 ---------------------------------------------------------------------
                    Distance matrix (angstroms):
                    1          2          3          4          5
     1  C    0.000000
     2  H    1.113000   0.000000
     3  H    1.113000   1.817522   0.000000
     4  H    1.113000   1.817521   1.817522   0.000000
     5  H    1.113000   1.817522   1.817522   1.817522   0.000000
 Stoichiometry    CH4
 Framework group  TD[O(C),4C3(H)]
 Deg. of freedom     1
 Full point group                 TD      NOp  24
 Largest Abelian subgroup         D2      NOp   4
 Largest concise Abelian subgroup D2      NOp   4
                         Standard orientation:                         
 ---------------------------------------------------------------------
 Center     Atomic     Atomic              Coordinates (Angstroms)
 Number     Number      Type              X           Y           Z
 ---------------------------------------------------------------------
    1          6             0        0.000000    0.000000    0.000000
    2          1             0       -0.642591    0.642591    0.642591
    3          1             0        0.642591   -0.642591    0.642591
    4          1             0       -0.642591   -0.642591   -0.642591
    5          1             0        0.642591    0.642591   -0.642591
 ---------------------------------------------------------------------
 Rotational constants (GHZ):    151.8004222    151.8004222    151.8004222
 Standard basis: 6-31G(d) (6D, 7F)
 There are     8 symmetry adapted basis functions of A   symmetry.
 There are     5 symmetry adapted basis functions of B1  symmetry.
 There are     5 symmetry adapted basis functions of B2  symmetry.
 There are     5 symmetry adapted basis functions of B3  symmetry.
 Integral buffers will be    262144 words long.
 Raffenetti 2 integral format.
 Two-electron integral symmetry is turned on.
    23 basis functions,    44 primitive gaussians,    23 cartesian basis functions
     5 alpha electrons        5 beta electrons
       nuclear repulsion energy        13.1577484238 Hartrees.
 NAtoms=    5 NActive=    5 NUniq=    2 SFac= 5.66D+00 NAtFMM=   60 Big=F
 One-electron integrals computed using PRISM.
 NBasis=    23 RedAO= T  NBF=     8     5     5     5
 NBsUse=    23 1.00D-06 NBFU=     8     5     5     5
 Harris functional with IExCor=  402 diagonalized for initial guess.
 ExpMin= 1.61D-01 ExpMax= 3.05D+03 ExpMxC= 4.57D+02 IAcc=1 IRadAn=         1 AccDes= 1.00D-06
 HarFok:  IExCor= 402 AccDes= 1.00D-06 IRadAn=         1 IDoV=1
 ScaDFX=  1.000000  1.000000  1.000000  1.000000
 Initial guess orbital symmetries:
       Occupied  (A1) (A1) (T2) (T2) (T2)
       Virtual   (A1) (T2) (T2) (T2) (T2) (T2) (T2) (T2) (T2) (T2)
                 (A1) (A1) (E) (E) (T2) (T2) (T2) (A1)
 The electronic state of the initial guess is 1-A1.
 Requested convergence on RMS density matrix=1.00D-08 within 128 cycles.
 Requested convergence on MAX density matrix=1.00D-06.
 Requested convergence on             energy=1.00D-06.
 No special actions if energy rises.
 Keep R1 integrals in memory in canonical form, NReq=      533869.
 Integral accuracy reduced to 1.0D-05 until final iterations.
 Initial convergence to 1.0D-05 achieved.  Increase integral accuracy.
 SCF Done:  E(RB+HF-LYP) =  -40.5174348543     A.U. after   10 cycles
             Convg  =    0.8264D-09             -V/T =  2.0136
             S**2   =   0.0000

 **********************************************************************

            Population analysis using the SCF density.

 **********************************************************************

 Orbital symmetries:
       Occupied  (A1) (A1) (T2) (T2) (T2)
       Virtual   (A1) (T2) (T2) (T2) (T2) (T2) (T2) (T2) (T2) (T2)
                 (A1) (A1) (E) (E) (T2) (T2) (T2) (A1)
 The electronic state is 1-A1.
 Alpha  occ. eigenvalues --  -10.17514  -0.68437  -0.38581  -0.38581  -0.38581
 Alpha virt. eigenvalues --    0.11292   0.17036   0.17036   0.17036   0.53917
 Alpha virt. eigenvalues --    0.53917   0.53917   0.88316   0.88316   0.88316
 Alpha virt. eigenvalues --    0.91927   1.09380   1.66027   1.66027   2.21731
 Alpha virt. eigenvalues --    2.21731   2.21731   4.16488
          Condensed to atoms (all electrons):
              1          2          3          4          5
     1  C    5.098942   0.380069   0.380069   0.380069   0.380069
     2  H    0.380069   0.544083  -0.026319  -0.026319  -0.026319
     3  H    0.380069  -0.026319   0.544083  -0.026319  -0.026319
     4  H    0.380069  -0.026319  -0.026319   0.544083  -0.026319
     5  H    0.380069  -0.026319  -0.026319  -0.026319   0.544083
 Mulliken atomic charges:
              1
     1  C   -0.619218
     2  H    0.154804
     3  H    0.154804
     4  H    0.154804
     5  H    0.154804
 Sum of Mulliken charges=   0.00000
 Atomic charges with hydrogens summed into heavy atoms:
              1
     1  C    0.000000
     2  H    0.000000
     3  H    0.000000
     4  H    0.000000
     5  H    0.000000
 Sum of Mulliken charges=   0.00000
 Electronic spatial extent (au):  <R**2>=    36.2154
 Charge=     0.0000 electrons
 Dipole moment (field-independent basis, Debye):
    X=     0.0000    Y=     0.0000    Z=     0.0000  Tot=     0.0000
 Quadrupole moment (field-independent basis, Debye-Ang):
   XX=    -8.3036   YY=    -8.3036   ZZ=    -8.3036
   XY=     0.0000   XZ=     0.0000   YZ=     0.0000
 Traceless Quadrupole moment (field-independent basis, Debye-Ang):
   XX=     0.0000   YY=     0.0000   ZZ=     0.0000
   XY=     0.0000   XZ=     0.0000   YZ=     0.0000
 Octapole moment (field-independent basis, Debye-Ang**2):
  XXX=     0.0000  YYY=     0.0000  ZZZ=     0.0000  XYY=     0.0000
  XXY=     0.0000  XXZ=     0.0000  XZZ=     0.0000  YZZ=     0.0000
  YYZ=     0.0000  XYZ=    -0.7195
 Hexadecapole moment (field-independent basis, Debye-Ang**3):
 XXXX=   -16.2252 YYYY=   -16.2252 ZZZZ=   -16.2252 XXXY=     0.0000
 XXXZ=     0.0000 YYYX=     0.0000 YYYZ=     0.0000 ZZZX=     0.0000
 ZZZY=     0.0000 XXYY=    -4.9297 XXZZ=    -4.9297 YYZZ=    -4.9297
 XXYZ=     0.0000 YYXZ=     0.0000 ZZXY=     0.0000
 N-N= 1.315774842379D+01 E-N=-1.192852991071D+02  KE= 3.997282125544D+01
 Symmetry A    KE= 3.427560131574D+01
 Symmetry B1   KE= 1.899073313234D+00
 Symmetry B2   KE= 1.899073313234D+00
 Symmetry B3   KE= 1.899073313234D+00
 ***** Axes restored to original set *****
 -------------------------------------------------------------------
 Center     Atomic                   Forces (Hartrees/Bohr)
 Number     Number              X              Y              Z
 -------------------------------------------------------------------
    1          6           0.000000000    0.000000000    0.000000000
    2          1          -0.000000001   -0.000000002   -0.012566491
    3          1          -0.011847801   -0.000000001    0.004188832
    4          1           0.005923900    0.010260499    0.004188828
    5          1           0.005923903   -0.010260496    0.004188832
 -------------------------------------------------------------------
 Cartesian Forces:  Max     0.012566491 RMS     0.006489308

 GradGradGradGradGradGradGradGradGradGradGradGradGradGradGradGradGradGrad
 Berny optimization.
 Internal  Forces:  Max     0.012566491 RMS     0.007947747
 Search for a local minimum.
 Step number   1 out of a maximum of  20
 All quantities printed in internal units (Hartrees-Bohrs-Radians)
 Second derivative matrix not updated -- first step.
 The second derivative matrix:
                          R1        R2        R3        R4        A1
           R1           0.32284
           R2           0.00000   0.32284
           R3           0.00000   0.00000   0.32284
           R4           0.00000   0.00000   0.00000   0.32284
           A1           0.00000   0.00000   0.00000   0.00000   0.16000
           A2           0.00000   0.00000   0.00000   0.00000   0.00000
           A3           0.00000   0.00000   0.00000   0.00000   0.00000
           A4           0.00000   0.00000   0.00000   0.00000   0.00000
           A5           0.00000   0.00000   0.00000   0.00000   0.00000
           A6           0.00000   0.00000   0.00000   0.00000   0.00000
                          A2        A3        A4        A5        A6
           A2           0.16000
           A3           0.00000   0.16000
           A4           0.00000   0.00000   0.16000
           A5           0.00000   0.00000   0.00000   0.16000
           A6           0.00000   0.00000   0.00000   0.00000   0.16000
     Eigenvalues ---    0.16000   0.16000   0.16000   0.16000   0.16000
     Eigenvalues ---    0.32284   0.32284   0.32284   0.322841000.00000
 RFO step:  Lambda=-1.94485150D-03.
 Linear search not attempted -- first point.
 Iteration  1 RMS(Cart)=  0.02447047 RMS(Int)=  0.00000000
 Iteration  2 RMS(Cart)=  0.00000000 RMS(Int)=  0.00000000
 Variable       Old X    -DE/DX   Delta X   Delta X   Delta X     New X
                                 (Linear)    (Quad)   (Total)
    R1        2.10327  -0.01257   0.00000  -0.03869  -0.03869   2.06457
    R2        2.10327  -0.01257   0.00000  -0.03869  -0.03869   2.06457
    R3        2.10327  -0.01257   0.00000  -0.03869  -0.03869   2.06457
    R4        2.10327  -0.01257   0.00000  -0.03869  -0.03869   2.06457
    A1        1.91063   0.00000   0.00000   0.00000   0.00000   1.91063
    A2        1.91063   0.00000   0.00000   0.00000   0.00000   1.91063
    A3        1.91063   0.00000   0.00000   0.00000   0.00000   1.91063
    A4        1.91063   0.00000   0.00000   0.00000   0.00000   1.91063
    A5        1.91063   0.00000   0.00000   0.00000   0.00000   1.91063
    A6        1.91063   0.00000   0.00000   0.00000   0.00000   1.91063
         Item               Value     Threshold  Converged?
 Maximum Force            0.012566     0.000450     NO 
 RMS     Force            0.007948     0.000300     NO 
 Maximum Displacement     0.038691     0.001800     NO 
 RMS     Displacement     0.024470     0.001200     NO 
 Predicted change in Energy=-9.782485D-04
 GradGradGradGradGradGradGradGradGradGradGradGradGradGradGradGradGradGrad

                          Input orientation:                          
 ---------------------------------------------------------------------
 Center     Atomic     Atomic              Coordinates (Angstroms)
 Number     Number      Type              X           Y           Z
 ---------------------------------------------------------------------
    1          6             0        0.000000    0.000000    0.000000
    2          1             0        0.000000    0.000000    1.092525
    3          1             0        1.030043    0.000000   -0.364175
    4          1             0       -0.515021   -0.892043   -0.364175
    5          1             0       -0.515022    0.892043   -0.364175
 ---------------------------------------------------------------------
                    Distance matrix (angstroms):
                    1          2          3          4          5
     1  C    0.000000
     2  H    1.092526   0.000000
     3  H    1.092526   1.784087   0.000000
     4  H    1.092526   1.784087   1.784087   0.000000
     5  H    1.092526   1.784087   1.784087   1.784087   0.000000
 Stoichiometry    CH4
 Framework group  TD[O(C),4C3(H)]
 Deg. of freedom     1
 Full point group                 TD      NOp  24
 Largest Abelian subgroup         D2      NOp   4
 Largest concise Abelian subgroup D2      NOp   4
                         Standard orientation:                         
 ---------------------------------------------------------------------
 Center     Atomic     Atomic              Coordinates (Angstroms)
 Number     Number      Type              X           Y           Z
 ---------------------------------------------------------------------
    1          6             0        0.000000    0.000000    0.000000
    2          1             0        0.630770    0.630770    0.630770
    3          1             0       -0.630770   -0.630770    0.630770
    4          1             0       -0.630770    0.630770   -0.630770
    5          1             0        0.630770   -0.630770   -0.630770
 ---------------------------------------------------------------------
 Rotational constants (GHZ):    157.5433763    157.5433763    157.5433763
 Standard basis: 6-31G(d) (6D, 7F)
 There are     8 symmetry adapted basis functions of A   symmetry.
 There are     5 symmetry adapted basis functions of B1  symmetry.
 There are     5 symmetry adapted basis functions of B2  symmetry.
 There are     5 symmetry adapted basis functions of B3  symmetry.
 Integral buffers will be    262144 words long.
 Raffenetti 2 integral format.
 Two-electron integral symmetry is turned on.
    23 basis functions,    44 primitive gaussians,    23 cartesian basis functions
     5 alpha electrons        5 beta electrons
       nuclear repulsion energy        13.4043316016 Hartrees.
 NAtoms=    5 NActive=    5 NUniq=    2 SFac= 5.66D+00 NAtFMM=   60 Big=F
 One-electron integrals computed using PRISM.
 NBasis=    23 RedAO= T  NBF=     8     5     5     5
 NBsUse=    23 1.00D-06 NBFU=     8     5     5     5
 Initial guess read from the read-write file:
 Initial guess orbital symmetries:
       Occupied  (A1) (A1) (?A) (?A) (?A)
       Virtual   (A1) (?A) (?A) (?A) (?A) (?A) (?A) (?A) (?A) (?A)
                 (A1) (A1) (E) (E) (?A) (?A) (?A) (A1)
 Harris functional with IExCor=  402 diagonalized for initial guess.
 ExpMin= 1.61D-01 ExpMax= 3.05D+03 ExpMxC= 4.57D+02 IAcc=1 IRadAn=         1 AccDes= 1.00D-06
 HarFok:  IExCor= 402 AccDes= 1.00D-06 IRadAn=         1 IDoV=1
 ScaDFX=  1.000000  1.000000  1.000000  1.000000
 Requested convergence on RMS density matrix=1.00D-08 within 128 cycles.
 Requested convergence on MAX density matrix=1.00D-06.
 Requested convergence on             energy=1.00D-06.
 No special actions if energy rises.
 Keep R1 integrals in memory in canonical form, NReq=      533869.
 Integral accuracy reduced to 1.0D-05 until final iterations.
 A guess orbital has undefined symmetry, so N**3 symmetry is turned off.
 Density matrix breaks symmetry, PCut= 1.00D-04
 Density matrix has no symmetry -- integrals replicated.
 Density matrix breaks symmetry, PCut= 1.00D-04
 Density matrix has no symmetry -- integrals replicated.
 Density matrix breaks symmetry, PCut= 1.00D-04
 Density matrix has no symmetry -- integrals replicated.
 Initial convergence to 1.0D-05 achieved.  Increase integral accuracy.
 SCF Done:  E(RB+HF-LYP) =  -40.5183877742     A.U. after   11 cycles
             Convg  =    0.9106D-09             -V/T =  2.0111
             S**2   =   0.0000
 ***** Axes restored to original set *****
 -------------------------------------------------------------------
 Center     Atomic                   Forces (Hartrees/Bohr)
 Number     Number              X              Y              Z
 -------------------------------------------------------------------
    1          6           0.000000000    0.000000000    0.000000000
    2          1           0.000000000    0.000000000    0.000498465
    3          1           0.000469958    0.000000000   -0.000166155
    4          1          -0.000234979   -0.000406995   -0.000166155
    5          1          -0.000234979    0.000406995   -0.000166155
 -------------------------------------------------------------------
 Cartesian Forces:  Max     0.000498465 RMS     0.000257406

 GradGradGradGradGradGradGradGradGradGradGradGradGradGradGradGradGradGrad
 Berny optimization.
 Internal  Forces:  Max     0.000498465 RMS     0.000315257
 Search for a local minimum.
 Step number   2 out of a maximum of  20
 All quantities printed in internal units (Hartrees-Bohrs-Radians)
 Update second derivatives using D2CorX and points  1  2
 Trust test= 9.74D-01 RLast= 7.74D-02 DXMaxT set to 3.00D-01
 The second derivative matrix:
                          R1        R2        R3        R4        A1
           R1           0.32655
           R2           0.00371   0.32655
           R3           0.00371   0.00371   0.32655
           R4           0.00371   0.00371   0.00371   0.32655
           A1           0.00000   0.00000   0.00000   0.00000   0.16000
           A2           0.00000   0.00000   0.00000   0.00000   0.00000
           A3           0.00000   0.00000   0.00000   0.00000   0.00000
           A4           0.00000   0.00000   0.00000   0.00000   0.00000
           A5           0.00000   0.00000   0.00000   0.00000   0.00000
           A6           0.00000   0.00000   0.00000   0.00000   0.00000
                          A2        A3        A4        A5        A6
           A2           0.16000
           A3           0.00000   0.16000
           A4           0.00000   0.00000   0.16000
           A5           0.00000   0.00000   0.00000   0.16000
           A6           0.00000   0.00000   0.00000   0.00000   0.16000
     Eigenvalues ---    0.16000   0.16000   0.16000   0.16000   0.16000
     Eigenvalues ---    0.32284   0.32284   0.32284   0.337671000.00000
 RFO step:  Lambda= 0.00000000D+00.
 Quartic linear search produced a step of -0.03616.
 Iteration  1 RMS(Cart)=  0.00088494 RMS(Int)=  0.00000000
 Iteration  2 RMS(Cart)=  0.00000000 RMS(Int)=  0.00000000
 Variable       Old X    -DE/DX   Delta X   Delta X   Delta X     New X
                                 (Linear)    (Quad)   (Total)
    R1        2.06457   0.00050   0.00140   0.00000   0.00140   2.06597
    R2        2.06457   0.00050   0.00140   0.00000   0.00140   2.06597
    R3        2.06457   0.00050   0.00140   0.00000   0.00140   2.06597
    R4        2.06457   0.00050   0.00140   0.00000   0.00140   2.06597
    A1        1.91063   0.00000   0.00000   0.00000   0.00000   1.91063
    A2        1.91063   0.00000   0.00000   0.00000   0.00000   1.91063
    A3        1.91063   0.00000   0.00000   0.00000   0.00000   1.91063
    A4        1.91063   0.00000   0.00000   0.00000   0.00000   1.91063
    A5        1.91063   0.00000   0.00000   0.00000   0.00000   1.91063
    A6        1.91063   0.00000   0.00000   0.00000   0.00000   1.91063
         Item               Value     Threshold  Converged?
 Maximum Force            0.000498     0.000450     NO 
 RMS     Force            0.000315     0.000300     NO 
 Maximum Displacement     0.001399     0.001800     YES
 RMS     Displacement     0.000885     0.001200     YES
 Predicted change in Energy=-1.467648D-06
 GradGradGradGradGradGradGradGradGradGradGradGradGradGradGradGradGradGrad

                          Input orientation:                          
 ---------------------------------------------------------------------
 Center     Atomic     Atomic              Coordinates (Angstroms)
 Number     Number      Type              X           Y           Z
 ---------------------------------------------------------------------
    1          6             0        0.000000    0.000000    0.000000
    2          1             0        0.000000    0.000000    1.093266
    3          1             0        1.030741    0.000000   -0.364422
    4          1             0       -0.515370   -0.892648   -0.364422
    5          1             0       -0.515371    0.892648   -0.364422
 ---------------------------------------------------------------------
                    Distance matrix (angstroms):
                    1          2          3          4          5
     1  C    0.000000
     2  H    1.093266   0.000000
     3  H    1.093266   1.785296   0.000000
     4  H    1.093266   1.785296   1.785296   0.000000
     5  H    1.093266   1.785296   1.785296   1.785296   0.000000
 Stoichiometry    CH4
 Framework group  TD[O(C),4C3(H)]
 Deg. of freedom     1
 Full point group                 TD      NOp  24
 Largest Abelian subgroup         D2      NOp   4
 Largest concise Abelian subgroup D2      NOp   4
                         Standard orientation:                         
 ---------------------------------------------------------------------
 Center     Atomic     Atomic              Coordinates (Angstroms)
 Number     Number      Type              X           Y           Z
 ---------------------------------------------------------------------
    1          6             0        0.000000    0.000000    0.000000
    2          1             0        0.631197    0.631197    0.631197
    3          1             0       -0.631197   -0.631197    0.631197
    4          1             0       -0.631197    0.631197   -0.631197
    5          1             0        0.631197   -0.631197   -0.631197
 ---------------------------------------------------------------------
 Rotational constants (GHZ):    157.3300515    157.3300515    157.3300515
 Standard basis: 6-31G(d) (6D, 7F)
 There are     8 symmetry adapted basis functions of A   symmetry.
 There are     5 symmetry adapted basis functions of B1  symmetry.
 There are     5 symmetry adapted basis functions of B2  symmetry.
 There are     5 symmetry adapted basis functions of B3  symmetry.
 Integral buffers will be    262144 words long.
 Raffenetti 2 integral format.
 Two-electron integral symmetry is turned on.
    23 basis functions,    44 primitive gaussians,    23 cartesian basis functions
     5 alpha electrons        5 beta electrons
       nuclear repulsion energy        13.3952533229 Hartrees.
 NAtoms=    5 NActive=    5 NUniq=    2 SFac= 5.66D+00 NAtFMM=   60 Big=F
 One-electron integrals computed using PRISM.
 NBasis=    23 RedAO= T  NBF=     8     5     5     5
 NBsUse=    23 1.00D-06 NBFU=     8     5     5     5
 Initial guess read from the read-write file:
 Initial guess orbital symmetries:
       Occupied  (A1) (A1) (T2) (T2) (T2)
       Virtual   (A1) (T2) (T2) (T2) (T2) (T2) (T2) (T2) (T2) (T2)
                 (A1) (A1) (E) (E) (T2) (T2) (T2) (A1)
 Requested convergence on RMS density matrix=1.00D-08 within 128 cycles.
 Requested convergence on MAX density matrix=1.00D-06.
 Requested convergence on             energy=1.00D-06.
 No special actions if energy rises.
 Keep R1 integrals in memory in canonical form, NReq=      533869.
 A guess orbital has undefined symmetry, so N**3 symmetry is turned off.
 SCF Done:  E(RB+HF-LYP) =  -40.5183891676     A.U. after    5 cycles
             Convg  =    0.2782D-08             -V/T =  2.0112
             S**2   =   0.0000
 ***** Axes restored to original set *****
 -------------------------------------------------------------------
 Center     Atomic                   Forces (Hartrees/Bohr)
 Number     Number              X              Y              Z
 -------------------------------------------------------------------
    1          6           0.000000000    0.000000000    0.000000000
    2          1           0.000000000    0.000000000   -0.000000160
    3          1          -0.000000150    0.000000000    0.000000053
    4          1           0.000000075    0.000000130    0.000000053
    5          1           0.000000075   -0.000000130    0.000000053
 -------------------------------------------------------------------
 Cartesian Forces:  Max     0.000000160 RMS     0.000000082

 GradGradGradGradGradGradGradGradGradGradGradGradGradGradGradGradGradGrad
 Berny optimization.
 Internal  Forces:  Max     0.000000160 RMS     0.000000101
 Search for a local minimum.
 Step number   3 out of a maximum of  20
 All quantities printed in internal units (Hartrees-Bohrs-Radians)
 Update second derivatives using D2CorX and points  1  2  3
 Trust test= 9.49D-01 RLast= 2.80D-03 DXMaxT set to 3.00D-01
 The second derivative matrix:
                          R1        R2        R3        R4        A1
           R1           0.33122
           R2           0.00838   0.33122
           R3           0.00838   0.00838   0.33122
           R4           0.00838   0.00838   0.00838   0.33122
           A1           0.00000   0.00000   0.00000   0.00000   0.16000
           A2           0.00000   0.00000   0.00000   0.00000   0.00000
           A3           0.00000   0.00000   0.00000   0.00000   0.00000
           A4           0.00000   0.00000   0.00000   0.00000   0.00000
           A5           0.00000   0.00000   0.00000   0.00000   0.00000
           A6           0.00000   0.00000   0.00000   0.00000   0.00000
                          A2        A3        A4        A5        A6
           A2           0.16000
           A3           0.00000   0.16000
           A4           0.00000   0.00000   0.16000
           A5           0.00000   0.00000   0.00000   0.16000
           A6           0.00000   0.00000   0.00000   0.00000   0.16000
     Eigenvalues ---    0.16000   0.16000   0.16000   0.16000   0.16000
     Eigenvalues ---    0.32284   0.32284   0.32284   0.356361000.00000
 RFO step:  Lambda= 0.00000000D+00.
 Quartic linear search produced a step of -0.00032.
 Iteration  1 RMS(Cart)=  0.00000028 RMS(Int)=  0.00000000
 Variable       Old X    -DE/DX   Delta X   Delta X   Delta X     New X
                                 (Linear)    (Quad)   (Total)
    R1        2.06597   0.00000   0.00000   0.00000   0.00000   2.06597
    R2        2.06597   0.00000   0.00000   0.00000   0.00000   2.06597
    R3        2.06597   0.00000   0.00000   0.00000   0.00000   2.06597
    R4        2.06597   0.00000   0.00000   0.00000   0.00000   2.06597
    A1        1.91063   0.00000   0.00000   0.00000   0.00000   1.91063
    A2        1.91063   0.00000   0.00000   0.00000   0.00000   1.91063
    A3        1.91063   0.00000   0.00000   0.00000   0.00000   1.91063
    A4        1.91063   0.00000   0.00000   0.00000   0.00000   1.91063
    A5        1.91063   0.00000   0.00000   0.00000   0.00000   1.91063
    A6        1.91063   0.00000   0.00000   0.00000   0.00000   1.91063
         Item               Value     Threshold  Converged?
 Maximum Force            0.000000     0.000450     YES
 RMS     Force            0.000000     0.000300     YES
 Maximum Displacement     0.000000     0.001800     YES
 RMS     Displacement     0.000000     0.001200     YES
 Predicted change in Energy=-1.428447D-13
 Optimization completed.
    -- Stationary point found.
                           ----------------------------
                           !   Optimized Parameters   !
                           ! (Angstroms and Degrees)  !
 --------------------------                            --------------------------
 ! Name  Definition              Value          Derivative Info.                !
 --------------------------------------------------------------------------------
 ! R1    R(1,2)                  1.0933         -DE/DX =    0.0                 !
 ! R2    R(1,3)                  1.0933         -DE/DX =    0.0                 !
 ! R3    R(1,4)                  1.0933         -DE/DX =    0.0                 !
 ! R4    R(1,5)                  1.0933         -DE/DX =    0.0                 !
 ! A1    A(2,1,3)              109.4712         -DE/DX =    0.0                 !
 ! A2    A(2,1,4)              109.4712         -DE/DX =    0.0                 !
 ! A3    A(2,1,5)              109.4712         -DE/DX =    0.0                 !
 ! A4    A(3,1,4)              109.4712         -DE/DX =    0.0                 !
 ! A5    A(3,1,5)              109.4712         -DE/DX =    0.0                 !
 ! A6    A(4,1,5)              109.4712         -DE/DX =    0.0                 !
 --------------------------------------------------------------------------------
 GradGradGradGradGradGradGradGradGradGradGradGradGradGradGradGradGradGrad

                          Input orientation:                          
 ---------------------------------------------------------------------
 Center     Atomic     Atomic              Coordinates (Angstroms)
 Number     Number      Type              X           Y           Z
 ---------------------------------------------------------------------
    1          6             0        0.000000    0.000000    0.000000
    2          1             0        0.000000    0.000000    1.093266
    3          1             0        1.030741    0.000000   -0.364422
    4          1             0       -0.515370   -0.892648   -0.364422
    5          1             0       -0.515371    0.892648   -0.364422
 ---------------------------------------------------------------------
                    Distance matrix (angstroms):
                    1          2          3          4          5
     1  C    0.000000
     2  H    1.093266   0.000000
     3  H    1.093266   1.785296   0.000000
     4  H    1.093266   1.785296   1.785296   0.000000
     5  H    1.093266   1.785296   1.785296   1.785296   0.000000
 Stoichiometry    CH4
 Framework group  TD[O(C),4C3(H)]
 Deg. of freedom     1
 Full point group                 TD      NOp  24
 Largest Abelian subgroup         D2      NOp   4
 Largest concise Abelian subgroup D2      NOp   4
                         Standard orientation:                         
 ---------------------------------------------------------------------
 Center     Atomic     Atomic              Coordinates (Angstroms)
 Number     Number      Type              X           Y           Z
 ---------------------------------------------------------------------
    1          6             0        0.000000    0.000000    0.000000
    2          1             0        0.631197    0.631197    0.631197
    3          1             0       -0.631197   -0.631197    0.631197
    4          1             0       -0.631197    0.631197   -0.631197
    5          1             0        0.631197   -0.631197   -0.631197
 ---------------------------------------------------------------------
 Rotational constants (GHZ):    157.3300515    157.3300515    157.3300515

 **********************************************************************

            Population analysis using the SCF density.

 **********************************************************************

 Orbital symmetries:
       Occupied  (A1) (A1) (T2) (T2) (T2)
       Virtual   (A1) (T2) (T2) (T2) (T2) (T2) (T2) (T2) (T2) (T2)
                 (A1) (A1) (E) (E) (T2) (T2) (T2) (A1)
 The electronic state is 1-A1.
 Alpha  occ. eigenvalues --  -10.16695  -0.69030  -0.38907  -0.38907  -0.38907
 Alpha virt. eigenvalues --    0.11792   0.17654   0.17654   0.17654   0.53325
 Alpha virt. eigenvalues --    0.53325   0.53325   0.89773   0.89773   0.89773
 Alpha virt. eigenvalues --    0.94747   1.09984   1.65652   1.65652   2.24362
 Alpha virt. eigenvalues --    2.24362   2.24362   4.17917
          Condensed to atoms (all electrons):
              1          2          3          4          5
     1  C    5.093134   0.383778   0.383778   0.383778   0.383778
     2  H    0.383778   0.539529  -0.026790  -0.026790  -0.026790
     3  H    0.383778  -0.026790   0.539529  -0.026790  -0.026790
     4  H    0.383778  -0.026790  -0.026790   0.539529  -0.026790
     5  H    0.383778  -0.026790  -0.026790  -0.026790   0.539529
 Mulliken atomic charges:
              1
     1  C   -0.628247
     2  H    0.157062
     3  H    0.157062
     4  H    0.157062
     5  H    0.157062
 Sum of Mulliken charges=   0.00000
 Atomic charges with hydrogens summed into heavy atoms:
              1
     1  C    0.000000
     2  H    0.000000
     3  H    0.000000
     4  H    0.000000
     5  H    0.000000
 Sum of Mulliken charges=   0.00000
 Electronic spatial extent (au):  <R**2>=    35.4771
 Charge=     0.0000 electrons
 Dipole moment (field-independent basis, Debye):
    X=     0.0000    Y=     0.0000    Z=     0.0000  Tot=     0.0000
 Quadrupole moment (field-independent basis, Debye-Ang):
   XX=    -8.2514   YY=    -8.2514   ZZ=    -8.2514
   XY=     0.0000   XZ=     0.0000   YZ=     0.0000
 Traceless Quadrupole moment (field-independent basis, Debye-Ang):
   XX=     0.0000   YY=     0.0000   ZZ=     0.0000
   XY=     0.0000   XZ=     0.0000   YZ=     0.0000
 Octapole moment (field-independent basis, Debye-Ang**2):
  XXX=     0.0000  YYY=     0.0000  ZZZ=     0.0000  XYY=     0.0000
  XXY=     0.0000  XXZ=     0.0000  XZZ=     0.0000  YZZ=     0.0000
  YYZ=     0.0000  XYZ=     0.6711
 Hexadecapole moment (field-independent basis, Debye-Ang**3):
 XXXX=   -15.7513 YYYY=   -15.7513 ZZZZ=   -15.7513 XXXY=     0.0000
 XXXZ=     0.0000 YYYX=     0.0000 YYYZ=     0.0000 ZZZX=     0.0000
 ZZZY=     0.0000 XXYY=    -4.8059 XXZZ=    -4.8059 YYZZ=    -4.8059
 XXYZ=     0.0000 YYXZ=     0.0000 ZZXY=     0.0000
 N-N= 1.339525332293D+01 E-N=-1.198300348205D+02  KE= 4.007106437468D+01
 Symmetry A    KE= 3.429162328199D+01
 Symmetry B1   KE= 1.926480364229D+00
 Symmetry B2   KE= 1.926480364229D+00
 Symmetry B3   KE= 1.926480364229D+00
 Final structure in terms of initial Z-matrix:
 C
 H,1,B1
 H,1,B2,2,A1
 H,1,B3,2,A2,3,D1,0
 H,1,B4,2,A3,3,D2,0
      Variables:
 B1=1.09326594
 B2=1.09326594
 B3=1.09326594
 B4=1.09326594
 A1=109.47122063
 A2=109.47122063
 D1=120.
 A3=109.47122063
 D2=-120.
 1\1\GINC-DEEPTHOUGHT\FOpt\RB3LYP\6-31G(d)\C1H4\WWW-DATA\20-Nov-2006\0\
 \#N B3LYP/6-31G(D) OPT FREQ\\CH4\\0,1\C,0.,0.,0.\H,0.0000000995,0.0000
 001925,1.09326594\H,1.0307409799,0.0000001096,-0.3644220738\H,-0.51537
 03892,-0.8926480531,-0.3644217759\H,-0.5153706902,0.892647751,-0.36442
 20902\\Version=x86-Linux-G03RevB.04\State=1-A1\HF=-40.5183892\RMSD=2.7
 82e-09\RMSF=8.238e-08\Dipole=0.,0.,0.\PG=TD [O(C1),4C3(H1)]\\@


 THE WHOLE OF SCIENCE IS NOTHING MORE THAN A REFINEMENT OF EVEYDAY THINKING.
                                                              -- A. EINSTEIN
 Job cpu time:  0 days  0 hours  0 minutes 16.2 seconds.
 File lengths (MBytes):  RWF=     12 Int=      0 D2E=      0 Chk=      7 Scr=      1
 Normal termination of Gaussian 03 at Mon Nov 20 14:40:23 2006.
