 Entering Gaussian System, Link 0=g03
 Initial command:
 /apps/gaussian/g09_b01/g09/l1.exe /home/scan-user-1/run/29674/Gau-2422.inp -scrdir=/home/scan-user-1/run/29674/
 Entering Link 1 = /apps/gaussian/g09_b01/g09/l1.exe PID=      2423.
  
 Copyright (c) 1988,1990,1992,1993,1995,1998,2003,2009,2010,
            Gaussian, Inc.  All Rights Reserved.
  
 This is part of the Gaussian(R) 09 program.  It is based on
 the Gaussian(R) 03 system (copyright 2003, Gaussian, Inc.),
 the Gaussian(R) 98 system (copyright 1998, Gaussian, Inc.),
 the Gaussian(R) 94 system (copyright 1995, Gaussian, Inc.),
 the Gaussian 92(TM) system (copyright 1992, Gaussian, Inc.),
 the Gaussian 90(TM) system (copyright 1990, Gaussian, Inc.),
 the Gaussian 88(TM) system (copyright 1988, Gaussian, Inc.),
 the Gaussian 86(TM) system (copyright 1986, Carnegie Mellon
 University), and the Gaussian 82(TM) system (copyright 1983,
 Carnegie Mellon University). Gaussian is a federally registered
 trademark of Gaussian, Inc.
  
 This software contains proprietary and confidential information,
 including trade secrets, belonging to Gaussian, Inc.
  
 This software is provided under written license and may be
 used, copied, transmitted, or stored only in accord with that
 written license.
  
 The following legend is applicable only to US Government
 contracts under FAR:
  
                    RESTRICTED RIGHTS LEGEND
  
 Use, reproduction and disclosure by the US Government is
 subject to restrictions as set forth in subparagraphs (a)
 and (c) of the Commercial Computer Software - Restricted
 Rights clause in FAR 52.227-19.
  
 Gaussian, Inc.
 340 Quinnipiac St., Bldg. 40, Wallingford CT 06492
  
  
 ---------------------------------------------------------------
 Warning -- This program may not be used in any manner that
 competes with the business of Gaussian, Inc. or will provide
 assistance to any competitor of Gaussian, Inc.  The licensee
 of this program is prohibited from giving any competitor of
 Gaussian, Inc. access to this program.  By using this program,
 the user acknowledges that Gaussian, Inc. is engaged in the
 business of creating and licensing software in the field of
 computational chemistry and represents and warrants to the
 licensee that it is not a competitor of Gaussian, Inc. and that
 it will not use this program in any manner prohibited above.
 ---------------------------------------------------------------
  

 Cite this work as:
 Gaussian 09, Revision B.01,
 M. J. Frisch, G. W. Trucks, H. B. Schlegel, G. E. Scuseria, 
 M. A. Robb, J. R. Cheeseman, G. Scalmani, V. Barone, B. Mennucci, 
 G. A. Petersson, H. Nakatsuji, M. Caricato, X. Li, H. P. Hratchian, 
 A. F. Izmaylov, J. Bloino, G. Zheng, J. L. Sonnenberg, M. Hada, 
 M. Ehara, K. Toyota, R. Fukuda, J. Hasegawa, M. Ishida, T. Nakajima, 
 Y. Honda, O. Kitao, H. Nakai, T. Vreven, J. A. Montgomery, Jr., 
 J. E. Peralta, F. Ogliaro, M. Bearpark, J. J. Heyd, E. Brothers, 
 K. N. Kudin, V. N. Staroverov, T. Keith, R. Kobayashi, J. Normand, 
 K. Raghavachari, A. Rendell, J. C. Burant, S. S. Iyengar, J. Tomasi, 
 M. Cossi, N. Rega, J. M. Millam, M. Klene, J. E. Knox, J. B. Cross, 
 V. Bakken, C. Adamo, J. Jaramillo, R. Gomperts, R. E. Stratmann, 
 O. Yazyev, A. J. Austin, R. Cammi, C. Pomelli, J. W. Ochterski, 
 R. L. Martin, K. Morokuma, V. G. Zakrzewski, G. A. Voth, 
 P. Salvador, J. J. Dannenberg, S. Dapprich, A. D. Daniels, 
 O. Farkas, J. B. Foresman, J. V. Ortiz, J. Cioslowski, 
 and D. J. Fox, Gaussian, Inc., Wallingford CT, 2010.
 
 ******************************************
 Gaussian 09:  EM64L-G09RevB.01 12-Aug-2010
                22-Oct-2010 
 ******************************************
 %nprocshared=4
 Will use up to    4 processors via shared memory.
 %mem=7000MB
 %NoSave
 %Chk=chk.chk
 %rwf=/tmp/pbs.4649618.cx1/rwf
 ----------------------------------------------------------------------
 # cam-b3lyp/cc-pvdz polar(optrot) scrf(IEFPCM,solvent=chloroform) CPHF
 =RdFreq
 ----------------------------------------------------------------------
 1/38=1,83=21/1;
 2/12=2,17=6,18=5,40=1/2;
 3/5=16,11=2,16=1,25=1,30=1,36=2,70=2201,72=7,74=-40/1,2,3;
 4//1;
 5/5=2,38=5,53=7,96=-2,98=1/2;
 8/6=4,10=90,11=11/1;
 10/6=1,13=10,46=8,60=-2,72=3/2;
 6/7=2,8=2,9=2,10=2,28=1/1;
 99/5=1,9=1/99;
 -------------------------------------------------
 Optical Rotation for Deoxylambertellol hydroxy-up
 -------------------------------------------------
 Symbolic Z-matrix:
 Charge =  0 Multiplicity = 1
 O                     4.24481  -0.51882  -0.56661 
 C                     3.12592  -0.24707  -0.22717 
 O                     2.08115  -0.17949  -1.11159 
 C                     0.86581   0.13173  -0.41573 
 C                     1.29387   0.28198   1.01304 
 C                     2.60586   0.06271   1.12748 
 C                     3.50902   0.0862    2.30733 
 C                     0.25333   1.39134  -1.02021 
 C                    -1.10766   1.70662  -0.43554 
 C                    -1.94081   0.5486   -0.00875 
 C                    -3.22278   0.79533   0.49112 
 C                    -4.02666  -0.25588   0.90318 
 C                    -3.54965  -1.56421   0.82253 
 C                    -2.27267  -1.8147    0.3336 
 C                    -1.45681  -0.76588  -0.08542 
 C                    -0.08646  -1.05692  -0.64444 
 O                    -0.22174  -1.30832  -2.02607 
 O                    -1.50278   2.85209  -0.33832 
 H                     0.59988   0.53379   1.80556 
 H                     4.29925   0.82863   2.16679 
 H                     2.96623   0.31769   3.22408 
 H                     4.00702  -0.88016   2.42386 
 H                     0.90525   2.25744  -0.90118 
 H                     0.11447   1.20517  -2.0909 
 H                    -3.55888   1.82484   0.54163 
 H                    -5.02186  -0.0625    1.2881 
 H                    -4.1745   -2.39049   1.14419 
 H                    -1.9034   -2.8332    0.27084 
 H                     0.34006  -1.93091  -0.1305 
 H                     0.67294  -1.43322  -2.36783 
 
 Using perturbation frequencies:    0.077357
                          Input orientation:                          
 ---------------------------------------------------------------------
 Center     Atomic      Atomic             Coordinates (Angstroms)
 Number     Number       Type             X           Y           Z
 ---------------------------------------------------------------------
      1          8           0        4.244813   -0.518815   -0.566612
      2          6           0        3.125924   -0.247067   -0.227168
      3          8           0        2.081154   -0.179494   -1.111591
      4          6           0        0.865813    0.131726   -0.415729
      5          6           0        1.293871    0.281984    1.013040
      6          6           0        2.605863    0.062713    1.127476
      7          6           0        3.509017    0.086197    2.307334
      8          6           0        0.253328    1.391340   -1.020209
      9          6           0       -1.107656    1.706624   -0.435545
     10          6           0       -1.940807    0.548603   -0.008747
     11          6           0       -3.222780    0.795333    0.491124
     12          6           0       -4.026661   -0.255879    0.903179
     13          6           0       -3.549651   -1.564207    0.822530
     14          6           0       -2.272665   -1.814703    0.333597
     15          6           0       -1.456805   -0.765876   -0.085423
     16          6           0       -0.086461   -1.056923   -0.644443
     17          8           0       -0.221742   -1.308319   -2.026069
     18          8           0       -1.502780    2.852095   -0.338322
     19          1           0        0.599879    0.533791    1.805556
     20          1           0        4.299255    0.828633    2.166795
     21          1           0        2.966232    0.317692    3.224084
     22          1           0        4.007025   -0.880160    2.423864
     23          1           0        0.905248    2.257442   -0.901178
     24          1           0        0.114467    1.205169   -2.090904
     25          1           0       -3.558875    1.824839    0.541629
     26          1           0       -5.021863   -0.062499    1.288096
     27          1           0       -4.174496   -2.390488    1.144194
     28          1           0       -1.903399   -2.833201    0.270840
     29          1           0        0.340055   -1.930911   -0.130499
     30          1           0        0.672941   -1.433220   -2.367828
 ---------------------------------------------------------------------
                    Distance matrix (angstroms):
                    1          2          3          4          5
     1  O    0.000000
     2  C    1.200409   0.000000
     3  O    2.256892   1.370516   0.000000
     4  C    3.444360   2.299379   1.434620   0.000000
     5  C    3.441605   2.274738   2.312322   1.499064   0.000000
     6  C    2.427811   1.483741   2.312445   2.326805   1.335103
     7  C    3.027706   2.584865   3.714624   3.795218   2.573015
     8  C    4.448191   3.400750   2.411808   1.525504   2.539193
     9  C    5.798162   4.667283   3.766031   2.524931   3.145684
    10  C    6.301785   5.133474   4.233504   2.866450   3.402686
    11  C    7.655765   6.473684   5.625895   4.240206   4.575594
    12  C    8.405159   7.241355   6.431993   5.081934   5.348778
    13  C    7.986003   6.884768   6.112628   4.889355   5.186947
    14  C    6.705761   5.649487   4.870135   3.768304   4.192603
    15  C    5.727219   4.614180   3.730150   2.511841   3.141791
    16  C    4.365267   3.339072   2.384673   1.540137   2.538748
    17  O    4.764813   3.945778   2.722838   2.418614   3.749977
    18  O    6.667082   5.571540   4.757421   3.607857   4.031489
    19  H    4.474450   3.335057   3.348536   2.272990   1.083103
    20  H    3.047966   2.874873   4.084618   4.352429   3.265319
    21  H    4.087039   3.500799   4.452935   4.206493   2.772504
    22  H    3.021600   2.864458   4.086484   4.353667   3.271423
    23  H    4.355713   3.414419   2.713979   2.180799   2.778073
    24  H    4.728144   3.827712   2.596960   2.126738   3.446409
    25  H    8.223045   7.040624   6.209703   4.833325   5.113880
    26  H    9.461473   8.289543   7.498336   6.132330   6.331099
    27  H    8.792883   7.731172   7.007868   5.848045   6.087885
    28  H    6.622554   5.677164   4.982965   4.114693   4.525238
    29  H    4.175086   3.256645   2.657335   2.147614   2.667274
    30  H    4.103509   3.465041   2.265618   2.509371   3.841581
                    6          7          8          9         10
     6  C    0.000000
     7  C    1.486037   0.000000
     8  C    3.451408   4.834817   0.000000
     9  C    4.351517   5.609175   1.514435   0.000000
    10  C    4.711613   5.939582   2.558807   1.489064   0.000000
    11  C    5.908871   7.008466   3.837015   2.482523   1.397928
    12  C    6.643958   7.673012   4.973033   3.763534   2.414453
    13  C    6.374184   7.399546   5.156898   4.271350   2.782690
    14  C    5.287246   6.398196   4.300250   3.787951   2.410922
    15  C    4.320065   5.577697   2.907226   2.521458   1.402851
    16  C    3.412022   4.790321   2.500131   2.953586   2.533855
    17  O    4.451957   5.885713   2.919864   3.522001   3.236191
    18  O    5.177853   6.306172   2.383839   1.215598   2.367819
    19  H    2.169257   2.985834   2.973287   3.051843   3.122019
    20  H    2.129411   1.093361   5.181038   6.064464   6.614361
    21  H    2.142579   1.090245   5.150397   5.649653   5.880777
    22  H    2.129058   1.093360   5.577777   6.405282   6.582983
    23  H    3.438657   4.667812   1.090550   2.138223   3.437527
    24  H    4.227320   5.667414   1.095596   2.117843   2.998434
    25  H    6.438346   7.489706   4.142481   2.641462   2.133035
    26  H    7.630445   8.592839   5.938819   4.628364   3.398258
    27  H    7.210530   8.156178   6.212286   5.356063   3.867414
    28  H    5.427116   6.477997   4.915794   4.662854   3.393548
    29  H    3.269698   4.478177   3.440415   3.926905   3.371223
    30  H    4.265108   5.675306   3.157577   4.094247   4.040366
                   11         12         13         14         15
    11  C    0.000000
    12  C    1.386023   0.000000
    13  C    2.405016   1.394906   0.000000
    14  C    2.782053   2.414717   1.390143   0.000000
    15  C    2.426612   2.800283   2.416964   1.393285   0.000000
    16  C    3.815345   4.308361   3.795132   2.512026   1.508328
    17  O    4.446104   4.915845   4.388049   3.167133   2.363415
    18  O    2.806537   4.191754   5.004097   4.777364   3.627091
    19  H    4.050785   4.779407   4.752530   3.991691   3.081377
    20  H    7.706490   8.490805   8.314930   7.316965   6.383351
    21  H    6.782409   7.390273   7.194841   6.352013   5.629406
    22  H    7.668953   8.200141   7.754711   6.684093   6.013570
    23  H    4.595311   5.822045   6.117377   5.310948   3.922398
    24  H    4.239346   5.314897   5.439054   4.549311   3.221159
    25  H    1.084156   2.163083   3.400680   3.865732   3.394657
    26  H    2.146565   1.084429   2.153901   3.396967   3.884705
    27  H    3.388468   2.153253   1.084730   2.146056   3.396640
    28  H    3.867241   3.398629   2.150548   1.085188   2.144808
    29  H    4.529085   4.789826   4.021511   2.656162   2.141972
    30  H    5.321343   5.845671   5.293942   4.014949   3.192262
                   16         17         18         19         20
    16  C    0.000000
    17  O    1.410812   0.000000
    18  O    4.168944   4.668896   0.000000
    19  H    3.000654   4.330101   3.793669   0.000000
    20  H    5.540116   6.525801   6.635783   3.728647   0.000000
    21  H    5.116053   6.353832   6.251880   2.767407   1.776477
    22  H    5.118826   6.153673   7.205370   3.740348   1.752557
    23  H    3.469066   3.905142   2.543426   3.223450   4.793040
    24  H    2.692524   2.536703   2.898172   3.983563   5.981825
    25  H    4.665724   5.248448   2.461117   4.534265   8.086025
    26  H    5.392752   5.964639   4.850159   5.676911   9.404758
    27  H    4.657214   5.181305   6.067997   5.637683   9.122111
    28  H    2.700772   3.229400   5.731856   4.467482   7.448261
    29  H    1.099958   2.072781   5.129949   3.144928   5.344895
    30  H    1.920507   0.965845   5.216951   4.614282   6.231286
                   21         22         23         24         25
    21  H    0.000000
    22  H    1.777203   0.000000
    23  H    5.002806   5.524624   0.000000
    24  H    6.096661   6.315358   1.774278   0.000000
    25  H    7.214158   8.252435   4.711394   4.561542   0.000000
    26  H    8.228138   9.136704   6.730950   6.277461   2.501917
    27  H    7.915186   8.417597   7.182659   6.464504   4.302447
    28  H    6.508693   6.586577   5.931001   5.094904   4.950885
    29  H    4.817286   4.590808   4.296008   3.705276   5.455187
    30  H    6.292404   5.863642   3.978192   2.711028   6.081788
                   26         27         28         29         30
    26  H    0.000000
    27  H    2.481586   0.000000
    28  H    4.293765   2.473181   0.000000
    29  H    5.852653   4.713516   2.451181   0.000000
    30  H    6.904741   6.062038   3.944622   2.316063   0.000000
 Stoichiometry    C14H12O4
 Framework group  C1[X(C14H12O4)]
 Deg. of freedom    84
 Full point group                 C1      NOp   1
 Largest Abelian subgroup         C1      NOp   1
 Largest concise Abelian subgroup C1      NOp   1
                         Standard orientation:                         
 ---------------------------------------------------------------------
 Center     Atomic      Atomic             Coordinates (Angstroms)
 Number     Number       Type             X           Y           Z
 ---------------------------------------------------------------------
      1          8           0        4.244813   -0.518815   -0.566612
      2          6           0        3.125924   -0.247067   -0.227168
      3          8           0        2.081154   -0.179493   -1.111591
      4          6           0        0.865813    0.131726   -0.415729
      5          6           0        1.293871    0.281984    1.013040
      6          6           0        2.605863    0.062713    1.127476
      7          6           0        3.509017    0.086197    2.307334
      8          6           0        0.253328    1.391340   -1.020209
      9          6           0       -1.107656    1.706624   -0.435545
     10          6           0       -1.940807    0.548603   -0.008747
     11          6           0       -3.222780    0.795333    0.491124
     12          6           0       -4.026661   -0.255879    0.903179
     13          6           0       -3.549651   -1.564207    0.822530
     14          6           0       -2.272665   -1.814703    0.333597
     15          6           0       -1.456805   -0.765876   -0.085423
     16          6           0       -0.086461   -1.056923   -0.644443
     17          8           0       -0.221742   -1.308319   -2.026069
     18          8           0       -1.502780    2.852095   -0.338322
     19          1           0        0.599879    0.533791    1.805556
     20          1           0        4.299255    0.828633    2.166795
     21          1           0        2.966232    0.317692    3.224084
     22          1           0        4.007025   -0.880160    2.423864
     23          1           0        0.905248    2.257442   -0.901178
     24          1           0        0.114467    1.205169   -2.090904
     25          1           0       -3.558875    1.824839    0.541629
     26          1           0       -5.021863   -0.062499    1.288096
     27          1           0       -4.174496   -2.390488    1.144194
     28          1           0       -1.903399   -2.833201    0.270840
     29          1           0        0.340055   -1.930911   -0.130499
     30          1           0        0.672941   -1.433220   -2.367828
 ---------------------------------------------------------------------
 Rotational constants (GHZ):      0.8124822      0.2870678      0.2733351
 Standard basis: CC-pVDZ (5D, 7F)
 There are   312 symmetry adapted basis functions of A   symmetry.
 Integral buffers will be    131072 words long.
 Raffenetti 2 integral format.
 Two-electron integral symmetry is turned on.
   312 basis functions,   678 primitive gaussians,   330 cartesian basis functions
    64 alpha electrons       64 beta electrons
       nuclear repulsion energy      1312.3003184698 Hartrees.
 NAtoms=   30 NActive=   30 NUniq=   30 SFac= 1.00D+00 NAtFMM=   50 NAOKFM=F Big=F
 ------------------------------------------------------------------------------
 Polarizable Continuum Model (PCM)
 =================================
 Model                : PCM.
 Atomic radii         : UFF (Universal Force Field).
 Polarization charges : Total charges.
 Charge compensation  : None.
 Solution method      : Matrix inversion.
 Cavity type          : Scaled VdW (van der Waals Surface) (Alpha=1.100).
 Cavity algorithm     : GePol (No added spheres)
                        Default sphere list used, NSphG=   30.
                        Lebedev-Laikov grids with approx.  5.0 points / Ang**2.
                        Smoothing algorithm: Karplus/York (Gamma=1.0000).
                        Polarization charges: spherical gaussians, with
                                              point-specific exponents (IZeta= 3).
                        Self-potential: point-specific (ISelfS= 7).
                        Self-field    : sphere-specific E.n sum rule (ISelfD= 2).
 Solvent              : Chloroform, Eps=   4.711300 Eps(inf)=   2.090627
 ------------------------------------------------------------------------------
 One-electron integrals computed using PRISM.
 NBasis=   312 RedAO= T  NBF=   312
 NBsUse=   312 1.00D-06 NBFU=   312
 Harris functional with IExCor=20419 diagonalized for initial guess.
 ExpMin= 1.22D-01 ExpMax= 1.17D+04 ExpMxC= 4.01D+02 IAcc=1 IRadAn=         1 AccDes= 0.00D+00
 HarFok:  IExCor=20419 AccDes= 0.00D+00 IRadAn=         1 IDoV= 1
 ScaDFX=  1.000000  1.000000  1.000000  1.000000
 FoFCou: FMM=F IPFlag=           0 FMFlag=      100000 FMFlg1=           0
         NFxFlg=           0 DoJE=T BraDBF=F KetDBF=T FulRan=T
         Omega=  0.000000  0.000000  1.000000  0.000000  0.000000 ICntrl=     500 IOpCl=  0
         NMat0=    1 NMatS0=    1 NMatT0=    0 NMatD0=    1 NMtDS0=    0 NMtDT0=    0
         I1Cent=           4 NGrid=           0.
 Petite list used in FoFCou.
 Initial guess orbital symmetries:
       Occupied  (A) (A) (A) (A) (A) (A) (A) (A) (A) (A) (A) (A)
                 (A) (A) (A) (A) (A) (A) (A) (A) (A) (A) (A) (A)
                 (A) (A) (A) (A) (A) (A) (A) (A) (A) (A) (A) (A)
                 (A) (A) (A) (A) (A) (A) (A) (A) (A) (A) (A) (A)
                 (A) (A) (A) (A) (A) (A) (A) (A) (A) (A) (A) (A)
                 (A) (A) (A) (A)
       Virtual   (A) (A) (A) (A) (A) (A) (A) (A) (A) (A) (A) (A)
                 (A) (A) (A) (A) (A) (A) (A) (A) (A) (A) (A) (A)
                 (A) (A) (A) (A) (A) (A) (A) (A) (A) (A) (A) (A)
                 (A) (A) (A) (A) (A) (A) (A) (A) (A) (A) (A) (A)
                 (A) (A) (A) (A) (A) (A) (A) (A) (A) (A) (A) (A)
                 (A) (A) (A) (A) (A) (A) (A) (A) (A) (A) (A) (A)
                 (A) (A) (A) (A) (A) (A) (A) (A) (A) (A) (A) (A)
                 (A) (A) (A) (A) (A) (A) (A) (A) (A) (A) (A) (A)
                 (A) (A) (A) (A) (A) (A) (A) (A) (A) (A) (A) (A)
                 (A) (A) (A) (A) (A) (A) (A) (A) (A) (A) (A) (A)
                 (A) (A) (A) (A) (A) (A) (A) (A) (A) (A) (A) (A)
                 (A) (A) (A) (A) (A) (A) (A) (A) (A) (A) (A) (A)
                 (A) (A) (A) (A) (A) (A) (A) (A) (A) (A) (A) (A)
                 (A) (A) (A) (A) (A) (A) (A) (A) (A) (A) (A) (A)
                 (A) (A) (A) (A) (A) (A) (A) (A) (A) (A) (A) (A)
                 (A) (A) (A) (A) (A) (A) (A) (A) (A) (A) (A) (A)
                 (A) (A) (A) (A) (A) (A) (A) (A) (A) (A) (A) (A)
                 (A) (A) (A) (A) (A) (A) (A) (A) (A) (A) (A) (A)
                 (A) (A) (A) (A) (A) (A) (A) (A) (A) (A) (A) (A)
                 (A) (A) (A) (A) (A) (A) (A) (A) (A) (A) (A) (A)
                 (A) (A) (A) (A) (A) (A) (A) (A)
 The electronic state of the initial guess is 1-A.
 Requested convergence on RMS density matrix=1.00D-08 within 128 cycles.
 Requested convergence on MAX density matrix=1.00D-06.
 Requested convergence on             energy=1.00D-06.
 No special actions if energy rises.
 FoFJK:  IHMeth= 1 ICntrl=     0 DoSepK=T KAlg= 1 I1Cent= 0 FoldK=F
 FoFJK:  IHMeth= 1 ICntrl=     0 DoSepK=T KAlg= 1 I1Cent= 0 FoldK=F
 FoFJK:  IHMeth= 1 ICntrl=     0 DoSepK=T KAlg= 1 I1Cent= 0 FoldK=F
 FoFJK:  IHMeth= 1 ICntrl=     0 DoSepK=T KAlg= 1 I1Cent= 0 FoldK=F
 FoFJK:  IHMeth= 1 ICntrl=     0 DoSepK=T KAlg= 1 I1Cent= 0 FoldK=F
 FoFJK:  IHMeth= 1 ICntrl=     0 DoSepK=T KAlg= 1 I1Cent= 0 FoldK=F
 FoFJK:  IHMeth= 1 ICntrl=     0 DoSepK=T KAlg= 1 I1Cent= 0 FoldK=F
 FoFJK:  IHMeth= 1 ICntrl=     0 DoSepK=T KAlg= 1 I1Cent= 0 FoldK=F
 FoFJK:  IHMeth= 1 ICntrl=     0 DoSepK=T KAlg= 1 I1Cent= 0 FoldK=F
 FoFJK:  IHMeth= 1 ICntrl=     0 DoSepK=T KAlg= 1 I1Cent= 0 FoldK=F
 FoFJK:  IHMeth= 1 ICntrl=     0 DoSepK=T KAlg= 1 I1Cent= 0 FoldK=F
 FoFJK:  IHMeth= 1 ICntrl=     0 DoSepK=T KAlg= 1 I1Cent= 0 FoldK=F
 FoFJK:  IHMeth= 1 ICntrl=     0 DoSepK=T KAlg= 1 I1Cent= 0 FoldK=F
 FoFJK:  IHMeth= 1 ICntrl=     0 DoSepK=T KAlg= 1 I1Cent= 0 FoldK=F
 Error on total polarization charges =  0.00809
 SCF Done:  E(RCAM-B3LYP) =  -841.280624986     A.U. after   14 cycles
             Convg  =    0.6300D-08             -V/T =  2.0058
 Range of M.O.s used for correlation:     1   312
 NBasis=   312 NAE=    64 NBE=    64 NFC=     0 NFV=     0
 NROrb=    312 NOA=    64 NOB=    64 NVA=   248 NVB=   248

 **** Warning!!: The largest alpha MO coefficient is  0.10010601D+02

 NEqPCM:  Using non-equilibrium solvation (IEInf=1, Eps=   4.7113, EpsInf=   2.0906)
          Differentiating once with respect to magnetic field using GIAOs.
          Electric field/nuclear overlap derivatives assumed to be zero.
 FoFJK:  IHMeth= 1 ICntrl=  6127 DoSepK=T KAlg= 1 I1Cent= 0 FoldK=F
 FoFJK:  IHMeth= 1 ICntrl=     0 DoSepK=T KAlg= 1 I1Cent= 0 FoldK=F
 CalDSu exits because no D1Ps are significant.
          There are     3 degrees of freedom in the 1st order CPHF.  IDoFFX=0.
      3 vectors produced by pass  0 Test12= 1.06D-12 3.33D-08 XBig12= 6.25D+01 2.09D+00.
 AX will form     3 AO Fock derivatives at one time.
 FoFJK:  IHMeth= 1 ICntrl=     0 DoSepK=T KAlg= 1 I1Cent= 0 FoldK=F
      3 vectors produced by pass  1 Test12= 1.06D-12 3.33D-08 XBig12= 1.77D+00 5.41D-01.
 FoFJK:  IHMeth= 1 ICntrl=     0 DoSepK=T KAlg= 1 I1Cent= 0 FoldK=F
      3 vectors produced by pass  2 Test12= 1.06D-12 3.33D-08 XBig12= 1.52D+00 6.60D-01.
 FoFJK:  IHMeth= 1 ICntrl=     0 DoSepK=T KAlg= 1 I1Cent= 0 FoldK=F
      3 vectors produced by pass  3 Test12= 1.06D-12 3.33D-08 XBig12= 2.59D-01 1.75D-01.
 FoFJK:  IHMeth= 1 ICntrl=     0 DoSepK=T KAlg= 1 I1Cent= 0 FoldK=F
      3 vectors produced by pass  4 Test12= 1.06D-12 3.33D-08 XBig12= 6.05D-02 7.48D-02.
 FoFJK:  IHMeth= 1 ICntrl=     0 DoSepK=T KAlg= 1 I1Cent= 0 FoldK=F
      3 vectors produced by pass  5 Test12= 1.06D-12 3.33D-08 XBig12= 1.25D-02 2.77D-02.
 FoFJK:  IHMeth= 1 ICntrl=     0 DoSepK=T KAlg= 1 I1Cent= 0 FoldK=F
      3 vectors produced by pass  6 Test12= 1.06D-12 3.33D-08 XBig12= 2.96D-03 2.15D-02.
 FoFJK:  IHMeth= 1 ICntrl=     0 DoSepK=T KAlg= 1 I1Cent= 0 FoldK=F
      3 vectors produced by pass  7 Test12= 1.06D-12 3.33D-08 XBig12= 6.87D-04 9.35D-03.
 FoFJK:  IHMeth= 1 ICntrl=     0 DoSepK=T KAlg= 1 I1Cent= 0 FoldK=F
      3 vectors produced by pass  8 Test12= 1.06D-12 3.33D-08 XBig12= 1.59D-04 3.07D-03.
 FoFJK:  IHMeth= 1 ICntrl=     0 DoSepK=T KAlg= 1 I1Cent= 0 FoldK=F
      3 vectors produced by pass  9 Test12= 1.06D-12 3.33D-08 XBig12= 3.60D-05 1.81D-03.
 FoFJK:  IHMeth= 1 ICntrl=     0 DoSepK=T KAlg= 1 I1Cent= 0 FoldK=F
      3 vectors produced by pass 10 Test12= 1.06D-12 3.33D-08 XBig12= 4.93D-06 4.30D-04.
 FoFJK:  IHMeth= 1 ICntrl=     0 DoSepK=T KAlg= 1 I1Cent= 0 FoldK=F
      3 vectors produced by pass 11 Test12= 1.06D-12 3.33D-08 XBig12= 9.43D-07 2.03D-04.
 FoFJK:  IHMeth= 1 ICntrl=     0 DoSepK=T KAlg= 1 I1Cent= 0 FoldK=F
      3 vectors produced by pass 12 Test12= 1.06D-12 3.33D-08 XBig12= 8.99D-08 5.25D-05.
 FoFJK:  IHMeth= 1 ICntrl=     0 DoSepK=T KAlg= 1 I1Cent= 0 FoldK=F
      3 vectors produced by pass 13 Test12= 1.06D-12 3.33D-08 XBig12= 1.30D-08 3.00D-05.
 FoFJK:  IHMeth= 1 ICntrl=     0 DoSepK=T KAlg= 1 I1Cent= 0 FoldK=F
      3 vectors produced by pass 14 Test12= 1.06D-12 3.33D-08 XBig12= 2.33D-09 7.65D-06.
 FoFJK:  IHMeth= 1 ICntrl=     0 DoSepK=T KAlg= 1 I1Cent= 0 FoldK=F
      3 vectors produced by pass 15 Test12= 1.06D-12 3.33D-08 XBig12= 1.49D-10 2.12D-06.
 FoFJK:  IHMeth= 1 ICntrl=     0 DoSepK=T KAlg= 1 I1Cent= 0 FoldK=F
      3 vectors produced by pass 16 Test12= 1.06D-12 3.33D-08 XBig12= 1.83D-11 4.26D-07.
 FoFJK:  IHMeth= 1 ICntrl=     0 DoSepK=T KAlg= 1 I1Cent= 0 FoldK=F
      3 vectors produced by pass 17 Test12= 1.06D-12 3.33D-08 XBig12= 1.65D-12 1.77D-07.
 FoFJK:  IHMeth= 1 ICntrl=     0 DoSepK=T KAlg= 1 I1Cent= 0 FoldK=F
      2 vectors produced by pass 18 Test12= 1.06D-12 3.33D-08 XBig12= 1.13D-13 6.36D-08.
 FoFJK:  IHMeth= 1 ICntrl=     0 DoSepK=T KAlg= 1 I1Cent= 0 FoldK=F
 Inverted reduced A of dimension    56 with in-core refinement.
 FoFJK:  IHMeth= 1 ICntrl=     0 DoSepK=T KAlg= 1 I1Cent= 0 FoldK=F
 Dipole-magnetic dipole polarizability for W=    0.077357:
                 1             2             3 
      1  -0.139106D+02  0.342269D+02  0.258275D+01
      2   0.381206D+02  0.255976D+02  0.312180D+02
      3   0.157839D+02  0.161937D+03 -0.135731D+02
 w=    0.077357 a.u., Optical Rotation Beta=      0.6287 au.
 Molar Mass =    244.2464 grams/mole, [Alpha] ( 5890.0 A) =       99.59 deg.
 End of Minotr Frequency-dependent properties on file   721 Mask=       2 NFrqRd=     1 NDeriv=     1 LenFil=      12:
 Frequencies=    0.077357
 Property number 2 -- FD Optical Rotation Tensor frequency  1    0.077357:
                 1             2             3 
      1  -0.139106D+02  0.342269D+02  0.258275D+01
      2   0.381206D+02  0.255976D+02  0.312180D+02
      3   0.157839D+02  0.161937D+03 -0.135731D+02
 End of Minotr Frequency-dependent properties file   722 does not exist.

 **********************************************************************

            Population analysis using the SCF density.

 **********************************************************************

 Orbital symmetries:
       Occupied  (A) (A) (A) (A) (A) (A) (A) (A) (A) (A) (A) (A)
                 (A) (A) (A) (A) (A) (A) (A) (A) (A) (A) (A) (A)
                 (A) (A) (A) (A) (A) (A) (A) (A) (A) (A) (A) (A)
                 (A) (A) (A) (A) (A) (A) (A) (A) (A) (A) (A) (A)
                 (A) (A) (A) (A) (A) (A) (A) (A) (A) (A) (A) (A)
                 (A) (A) (A) (A)
       Virtual   (A) (A) (A) (A) (A) (A) (A) (A) (A) (A) (A) (A)
                 (A) (A) (A) (A) (A) (A) (A) (A) (A) (A) (A) (A)
                 (A) (A) (A) (A) (A) (A) (A) (A) (A) (A) (A) (A)
                 (A) (A) (A) (A) (A) (A) (A) (A) (A) (A) (A) (A)
                 (A) (A) (A) (A) (A) (A) (A) (A) (A) (A) (A) (A)
                 (A) (A) (A) (A) (A) (A) (A) (A) (A) (A) (A) (A)
                 (A) (A) (A) (A) (A) (A) (A) (A) (A) (A) (A) (A)
                 (A) (A) (A) (A) (A) (A) (A) (A) (A) (A) (A) (A)
                 (A) (A) (A) (A) (A) (A) (A) (A) (A) (A) (A) (A)
                 (A) (A) (A) (A) (A) (A) (A) (A) (A) (A) (A) (A)
                 (A) (A) (A) (A) (A) (A) (A) (A) (A) (A) (A) (A)
                 (A) (A) (A) (A) (A) (A) (A) (A) (A) (A) (A) (A)
                 (A) (A) (A) (A) (A) (A) (A) (A) (A) (A) (A) (A)
                 (A) (A) (A) (A) (A) (A) (A) (A) (A) (A) (A) (A)
                 (A) (A) (A) (A) (A) (A) (A) (A) (A) (A) (A) (A)
                 (A) (A) (A) (A) (A) (A) (A) (A) (A) (A) (A) (A)
                 (A) (A) (A) (A) (A) (A) (A) (A) (A) (A) (A) (A)
                 (A) (A) (A) (A) (A) (A) (A) (A) (A) (A) (A) (A)
                 (A) (A) (A) (A) (A) (A) (A) (A) (A) (A) (A) (A)
                 (A) (A) (A) (A) (A) (A) (A) (A) (A) (A) (A) (A)
                 (A) (A) (A) (A) (A) (A) (A) (A)
 The electronic state is 1-A.
 Alpha  occ. eigenvalues --  -19.26852 -19.22505 -19.21546 -19.21260 -10.39958
 Alpha  occ. eigenvalues --  -10.36324 -10.34614 -10.33151 -10.29434 -10.29211
 Alpha  occ. eigenvalues --  -10.29006 -10.28184 -10.28170 -10.27842 -10.27786
 Alpha  occ. eigenvalues --  -10.27709 -10.27700 -10.26987  -1.20396  -1.13613
 Alpha  occ. eigenvalues --   -1.12975  -1.11370  -0.96829  -0.92982  -0.90387
 Alpha  occ. eigenvalues --   -0.85769  -0.85024  -0.81252  -0.79135  -0.74169
 Alpha  occ. eigenvalues --   -0.71752  -0.69048  -0.67715  -0.63928  -0.62710
 Alpha  occ. eigenvalues --   -0.61315  -0.59124  -0.57780  -0.56157  -0.54584
 Alpha  occ. eigenvalues --   -0.54001  -0.52616  -0.52008  -0.51655  -0.50729
 Alpha  occ. eigenvalues --   -0.50176  -0.49744  -0.48374  -0.47965  -0.47347
 Alpha  occ. eigenvalues --   -0.46387  -0.45707  -0.44353  -0.43512  -0.42912
 Alpha  occ. eigenvalues --   -0.41896  -0.40404  -0.38500  -0.35886  -0.35257
 Alpha  occ. eigenvalues --   -0.33346  -0.32577  -0.32459  -0.32314
 Alpha virt. eigenvalues --   -0.02405  -0.00086   0.02084   0.08307   0.10717
 Alpha virt. eigenvalues --    0.11227   0.11643   0.12401   0.13773   0.14292
 Alpha virt. eigenvalues --    0.15049   0.16086   0.17226   0.17892   0.18159
 Alpha virt. eigenvalues --    0.19533   0.19733   0.20300   0.21213   0.24304
 Alpha virt. eigenvalues --    0.26388   0.26927   0.27700   0.28169   0.28621
 Alpha virt. eigenvalues --    0.30552   0.31913   0.33115   0.34160   0.34917
 Alpha virt. eigenvalues --    0.35562   0.36674   0.39234   0.41199   0.44140
 Alpha virt. eigenvalues --    0.46075   0.47074   0.47525   0.48145   0.49672
 Alpha virt. eigenvalues --    0.50429   0.51092   0.52119   0.52753   0.54201
 Alpha virt. eigenvalues --    0.54504   0.54656   0.55436   0.56805   0.57059
 Alpha virt. eigenvalues --    0.58065   0.58634   0.59456   0.59959   0.60268
 Alpha virt. eigenvalues --    0.61026   0.61954   0.62616   0.63384   0.63875
 Alpha virt. eigenvalues --    0.65522   0.67341   0.68099   0.68493   0.68856
 Alpha virt. eigenvalues --    0.69151   0.69426   0.69925   0.70492   0.71074
 Alpha virt. eigenvalues --    0.71211   0.72945   0.73902   0.74541   0.74907
 Alpha virt. eigenvalues --    0.76118   0.76439   0.76991   0.78108   0.79106
 Alpha virt. eigenvalues --    0.80334   0.80811   0.82904   0.84248   0.86121
 Alpha virt. eigenvalues --    0.91047   0.91966   0.93107   0.95183   0.96381
 Alpha virt. eigenvalues --    0.97461   0.98125   0.99388   0.99774   1.02036
 Alpha virt. eigenvalues --    1.03074   1.03975   1.05095   1.05404   1.05880
 Alpha virt. eigenvalues --    1.07557   1.08264   1.08908   1.10288   1.10629
 Alpha virt. eigenvalues --    1.10883   1.12337   1.12734   1.13932   1.15129
 Alpha virt. eigenvalues --    1.16394   1.17277   1.19014   1.21188   1.22397
 Alpha virt. eigenvalues --    1.25008   1.27706   1.29836   1.30760   1.32156
 Alpha virt. eigenvalues --    1.33298   1.35226   1.36934   1.38122   1.39540
 Alpha virt. eigenvalues --    1.41861   1.43361   1.44535   1.45747   1.46604
 Alpha virt. eigenvalues --    1.47529   1.48603   1.49716   1.51782   1.52420
 Alpha virt. eigenvalues --    1.53799   1.55045   1.56241   1.56614   1.57225
 Alpha virt. eigenvalues --    1.59188   1.59860   1.61340   1.61625   1.62765
 Alpha virt. eigenvalues --    1.64167   1.65716   1.67008   1.68094   1.68357
 Alpha virt. eigenvalues --    1.69562   1.70902   1.71522   1.72541   1.72786
 Alpha virt. eigenvalues --    1.73880   1.74795   1.75822   1.76444   1.77227
 Alpha virt. eigenvalues --    1.79450   1.80823   1.81190   1.81766   1.83707
 Alpha virt. eigenvalues --    1.84441   1.84860   1.86165   1.87164   1.88347
 Alpha virt. eigenvalues --    1.89580   1.90183   1.90954   1.92045   1.93435
 Alpha virt. eigenvalues --    1.94786   1.95339   1.95607   1.97774   1.99004
 Alpha virt. eigenvalues --    2.00247   2.01575   2.02510   2.02748   2.03827
 Alpha virt. eigenvalues --    2.05617   2.06411   2.08814   2.10336   2.11175
 Alpha virt. eigenvalues --    2.11731   2.14490   2.15471   2.17259   2.19916
 Alpha virt. eigenvalues --    2.20638   2.24114   2.25054   2.25760   2.28560
 Alpha virt. eigenvalues --    2.29466   2.32245   2.34919   2.36976   2.38775
 Alpha virt. eigenvalues --    2.40597   2.45103   2.46070   2.47063   2.48778
 Alpha virt. eigenvalues --    2.49552   2.49928   2.52377   2.53682   2.54609
 Alpha virt. eigenvalues --    2.55698   2.57687   2.59074   2.66734   2.69897
 Alpha virt. eigenvalues --    2.71503   2.73309   2.74440   2.76476   2.77689
 Alpha virt. eigenvalues --    2.78700   2.81283   2.85607   2.90198   2.91530
 Alpha virt. eigenvalues --    2.95125   3.03778   3.05663   3.06966   3.11497
 Alpha virt. eigenvalues --    3.16640   3.17594   3.17684   3.21909   3.33511
 Alpha virt. eigenvalues --    3.38739   3.41262   3.43134   3.54664   3.56809
 Alpha virt. eigenvalues --    3.61909   3.62954   3.78506
          Condensed to atoms (all electrons):
              1          2          3          4          5          6
     1  O    7.503692   0.851708  -0.055234  -0.002517   0.007111  -0.103767
     2  C    0.851708   4.565806   0.384724  -0.134316   0.007181   0.191495
     3  O   -0.055234   0.384724   7.817527   0.281939  -0.066276  -0.081159
     4  C   -0.002517  -0.134316   0.281939   5.248521   0.272748   0.020205
     5  C    0.007111   0.007181  -0.066276   0.272748   5.014304   0.529714
     6  C   -0.103767   0.191495  -0.081159   0.020205   0.529714   5.184458
     7  C    0.009041  -0.054607   0.004566   0.009712  -0.086634   0.438717
     8  C   -0.000074  -0.000076  -0.021632   0.309793  -0.074242  -0.001295
     9  C   -0.000001   0.000103   0.001995  -0.001374  -0.000941  -0.001294
    10  C    0.000000  -0.000001   0.000614  -0.031748  -0.005416   0.000533
    11  C    0.000000   0.000001   0.000006  -0.002995  -0.000033   0.000001
    12  C    0.000000   0.000000   0.000000   0.000112  -0.000020  -0.000001
    13  C    0.000000   0.000000   0.000000  -0.000460  -0.000023  -0.000002
    14  C    0.000000  -0.000019  -0.000113   0.010784  -0.000028  -0.000035
    15  C   -0.000004   0.000231   0.003056   0.010848  -0.000392  -0.000844
    16  C   -0.000086   0.000309  -0.028021   0.297898  -0.063998  -0.006965
    17  O    0.000000   0.000339  -0.005810  -0.044118   0.005035  -0.000116
    18  O    0.000000  -0.000002  -0.000008   0.001983   0.000276  -0.000003
    19  H   -0.000055   0.010718   0.002291  -0.044789   0.399276  -0.022523
    20  H    0.002259  -0.001667   0.000102  -0.000249   0.002052  -0.007520
    21  H    0.000175   0.006237  -0.000103   0.000100  -0.012483   0.000509
    22  H    0.002703  -0.002144   0.000117  -0.000182   0.002315  -0.007728
    23  H   -0.000105   0.000298   0.000013  -0.012412  -0.007793   0.002105
    24  H    0.000002  -0.000667  -0.003320  -0.010992   0.010199  -0.000154
    25  H    0.000000   0.000000   0.000000  -0.000133  -0.000017   0.000000
    26  H    0.000000   0.000000   0.000000   0.000000   0.000000   0.000000
    27  H    0.000000   0.000000   0.000000   0.000002   0.000000   0.000000
    28  H    0.000000  -0.000004  -0.000005   0.001115  -0.000154  -0.000007
    29  H   -0.000161   0.000578  -0.001450  -0.043455  -0.001667   0.002619
    30  H    0.000004   0.001160   0.018680  -0.006743   0.001016   0.000203
              7          8          9         10         11         12
     1  O    0.009041  -0.000074  -0.000001   0.000000   0.000000   0.000000
     2  C   -0.054607  -0.000076   0.000103  -0.000001   0.000001   0.000000
     3  O    0.004566  -0.021632   0.001995   0.000614   0.000006   0.000000
     4  C    0.009712   0.309793  -0.001374  -0.031748  -0.002995   0.000112
     5  C   -0.086634  -0.074242  -0.000941  -0.005416  -0.000033  -0.000020
     6  C    0.438717  -0.001295  -0.001294   0.000533   0.000001  -0.000001
     7  C    4.496906  -0.000125  -0.000014   0.000003   0.000000   0.000000
     8  C   -0.000125   4.841516   0.324487  -0.071112   0.019596  -0.000297
     9  C   -0.000014   0.324487   4.877405   0.128392  -0.067123   0.012727
    10  C    0.000003  -0.071112   0.128392   5.584150   0.394409   0.006279
    11  C    0.000000   0.019596  -0.067123   0.394409   4.901390   0.440040
    12  C    0.000000  -0.000297   0.012727   0.006279   0.440040   4.785481
    13  C    0.000000   0.000027  -0.001254  -0.087181   0.021209   0.465619
    14  C    0.000001  -0.002996   0.011643  -0.021745  -0.086414   0.014782
    15  C    0.000007  -0.066967  -0.029646   0.307137  -0.064027  -0.080326
    16  C    0.000064  -0.048774  -0.029572  -0.074223   0.011442  -0.000478
    17  O    0.000001  -0.006989  -0.004448   0.008538   0.000176   0.000011
    18  O    0.000000  -0.071481   0.800918  -0.125534   0.016175   0.001523
    19  H   -0.010399  -0.002822   0.002431   0.001756   0.000029   0.000000
    20  H    0.374379   0.000087  -0.000001   0.000000   0.000000   0.000000
    21  H    0.374886  -0.000001  -0.000001  -0.000002   0.000000   0.000000
    22  H    0.374236  -0.000026   0.000000   0.000000   0.000000   0.000000
    23  H   -0.000043   0.328609   0.005205   0.011617  -0.000585   0.000000
    24  H    0.000009   0.344072  -0.006916   0.000903   0.000048   0.000001
    25  H    0.000000   0.001812  -0.022807  -0.047148   0.395788  -0.050936
    26  H    0.000000   0.000002  -0.000310   0.009377  -0.043790   0.399669
    27  H    0.000000   0.000001   0.000023   0.000287   0.009343  -0.050095
    28  H    0.000000  -0.000001  -0.000096   0.014350  -0.000760   0.009884
    29  H   -0.000147   0.012442  -0.001438   0.014800  -0.000054  -0.000075
    30  H   -0.000008  -0.001372   0.000119  -0.000765   0.000016  -0.000002
             13         14         15         16         17         18
     1  O    0.000000   0.000000  -0.000004  -0.000086   0.000000   0.000000
     2  C    0.000000  -0.000019   0.000231   0.000309   0.000339  -0.000002
     3  O    0.000000  -0.000113   0.003056  -0.028021  -0.005810  -0.000008
     4  C   -0.000460   0.010784   0.010848   0.297898  -0.044118   0.001983
     5  C   -0.000023  -0.000028  -0.000392  -0.063998   0.005035   0.000276
     6  C   -0.000002  -0.000035  -0.000844  -0.006965  -0.000116  -0.000003
     7  C    0.000000   0.000001   0.000007   0.000064   0.000001   0.000000
     8  C    0.000027  -0.002996  -0.066967  -0.048774  -0.006989  -0.071481
     9  C   -0.001254   0.011643  -0.029646  -0.029572  -0.004448   0.800918
    10  C   -0.087181  -0.021745   0.307137  -0.074223   0.008538  -0.125534
    11  C    0.021209  -0.086414  -0.064027   0.011442   0.000176   0.016175
    12  C    0.465619   0.014782  -0.080326  -0.000478   0.000011   0.001523
    13  C    4.747894   0.472967   0.020120   0.007401  -0.000073  -0.000024
    14  C    0.472967   4.805296   0.502848  -0.074118   0.002033  -0.000034
    15  C    0.020120   0.502848   5.211607   0.309766  -0.068089   0.005615
    16  C    0.007401  -0.074118   0.309766   4.813717   0.386768  -0.000021
    17  O   -0.000073   0.002033  -0.068089   0.386768   7.626657   0.000003
    18  O   -0.000024  -0.000034   0.005615  -0.000021   0.000003   7.547799
    19  H   -0.000005  -0.000320   0.002052  -0.001823   0.000008  -0.000028
    20  H    0.000000   0.000000   0.000000  -0.000027   0.000000   0.000000
    21  H    0.000000   0.000000  -0.000002  -0.000008   0.000000   0.000000
    22  H    0.000000   0.000000   0.000000   0.000087   0.000000   0.000000
    23  H    0.000001   0.000048   0.000112   0.006601  -0.000064   0.005019
    24  H    0.000007  -0.000186  -0.004437  -0.010289   0.023613  -0.000135
    25  H    0.009941  -0.000903   0.013229  -0.000149   0.000003   0.022882
    26  H   -0.048790   0.008930   0.000583   0.000032   0.000000  -0.000003
    27  H    0.397577  -0.040480   0.009903  -0.000294  -0.000002   0.000000
    28  H   -0.055081   0.395513  -0.037326  -0.017230   0.001335   0.000001
    29  H    0.000231  -0.021644  -0.021928   0.353802  -0.034011   0.000007
    30  H    0.000031   0.000172   0.007653  -0.046467   0.356101   0.000000
             19         20         21         22         23         24
     1  O   -0.000055   0.002259   0.000175   0.002703  -0.000105   0.000002
     2  C    0.010718  -0.001667   0.006237  -0.002144   0.000298  -0.000667
     3  O    0.002291   0.000102  -0.000103   0.000117   0.000013  -0.003320
     4  C   -0.044789  -0.000249   0.000100  -0.000182  -0.012412  -0.010992
     5  C    0.399276   0.002052  -0.012483   0.002315  -0.007793   0.010199
     6  C   -0.022523  -0.007520   0.000509  -0.007728   0.002105  -0.000154
     7  C   -0.010399   0.374379   0.374886   0.374236  -0.000043   0.000009
     8  C   -0.002822   0.000087  -0.000001  -0.000026   0.328609   0.344072
     9  C    0.002431  -0.000001  -0.000001   0.000000   0.005205  -0.006916
    10  C    0.001756   0.000000  -0.000002   0.000000   0.011617   0.000903
    11  C    0.000029   0.000000   0.000000   0.000000  -0.000585   0.000048
    12  C    0.000000   0.000000   0.000000   0.000000   0.000000   0.000001
    13  C   -0.000005   0.000000   0.000000   0.000000   0.000001   0.000007
    14  C   -0.000320   0.000000   0.000000   0.000000   0.000048  -0.000186
    15  C    0.002052   0.000000  -0.000002   0.000000   0.000112  -0.004437
    16  C   -0.001823  -0.000027  -0.000008   0.000087   0.006601  -0.010289
    17  O    0.000008   0.000000   0.000000   0.000000  -0.000064   0.023613
    18  O   -0.000028   0.000000   0.000000   0.000000   0.005019  -0.000135
    19  H    0.656220   0.000009   0.003063  -0.000008  -0.000134  -0.000001
    20  H    0.000009   0.624913  -0.024702  -0.025267  -0.000025  -0.000002
    21  H    0.003063  -0.024702   0.640845  -0.024931   0.000002   0.000001
    22  H   -0.000008  -0.025267  -0.024931   0.626784   0.000009   0.000000
    23  H   -0.000134  -0.000025   0.000002   0.000009   0.657261  -0.023151
    24  H   -0.000001  -0.000002   0.000001   0.000000  -0.023151   0.621522
    25  H   -0.000002   0.000000   0.000000   0.000000  -0.000059  -0.000041
    26  H    0.000000   0.000000   0.000000   0.000000   0.000000   0.000000
    27  H    0.000001   0.000000   0.000000   0.000000   0.000000   0.000000
    28  H   -0.000002   0.000000   0.000000   0.000000  -0.000001  -0.000011
    29  H    0.000102   0.000016   0.000005  -0.000059  -0.000318   0.001597
    30  H   -0.000018   0.000000   0.000000   0.000000  -0.000118   0.000454
             25         26         27         28         29         30
     1  O    0.000000   0.000000   0.000000   0.000000  -0.000161   0.000004
     2  C    0.000000   0.000000   0.000000  -0.000004   0.000578   0.001160
     3  O    0.000000   0.000000   0.000000  -0.000005  -0.001450   0.018680
     4  C   -0.000133   0.000000   0.000002   0.001115  -0.043455  -0.006743
     5  C   -0.000017   0.000000   0.000000  -0.000154  -0.001667   0.001016
     6  C    0.000000   0.000000   0.000000  -0.000007   0.002619   0.000203
     7  C    0.000000   0.000000   0.000000   0.000000  -0.000147  -0.000008
     8  C    0.001812   0.000002   0.000001  -0.000001   0.012442  -0.001372
     9  C   -0.022807  -0.000310   0.000023  -0.000096  -0.001438   0.000119
    10  C   -0.047148   0.009377   0.000287   0.014350   0.014800  -0.000765
    11  C    0.395788  -0.043790   0.009343  -0.000760  -0.000054   0.000016
    12  C   -0.050936   0.399669  -0.050095   0.009884  -0.000075  -0.000002
    13  C    0.009941  -0.048790   0.397577  -0.055081   0.000231   0.000031
    14  C   -0.000903   0.008930  -0.040480   0.395513  -0.021644   0.000172
    15  C    0.013229   0.000583   0.009903  -0.037326  -0.021928   0.007653
    16  C   -0.000149   0.000032  -0.000294  -0.017230   0.353802  -0.046467
    17  O    0.000003   0.000000  -0.000002   0.001335  -0.034011   0.356101
    18  O    0.022882  -0.000003   0.000000   0.000001   0.000007   0.000000
    19  H   -0.000002   0.000000   0.000001  -0.000002   0.000102  -0.000018
    20  H    0.000000   0.000000   0.000000   0.000000   0.000016   0.000000
    21  H    0.000000   0.000000   0.000000   0.000000   0.000005   0.000000
    22  H    0.000000   0.000000   0.000000   0.000000  -0.000059   0.000000
    23  H   -0.000059   0.000000   0.000000  -0.000001  -0.000318  -0.000118
    24  H   -0.000041   0.000000   0.000000  -0.000011   0.001597   0.000454
    25  H    0.712984  -0.013420  -0.000209   0.000047   0.000008  -0.000001
    26  H   -0.013420   0.707594  -0.014264  -0.000231  -0.000001   0.000000
    27  H   -0.000209  -0.014264   0.706301  -0.014534  -0.000001  -0.000001
    28  H    0.000047  -0.000231  -0.014534   0.718903   0.003734  -0.000252
    29  H    0.000008  -0.000001  -0.000001   0.003734   0.745152  -0.006835
    30  H   -0.000001   0.000000  -0.000001  -0.000252  -0.006835   0.519859
 Mulliken atomic charges:
              1
     1  O   -0.214691
     2  C    0.172615
     3  O   -0.252502
     4  C   -0.129278
     5  C    0.068889
     6  C   -0.137148
     7  C    0.069448
     8  C    0.187837
     9  C    0.001789
    10  C   -0.018270
    11  C    0.056110
    12  C    0.046102
    13  C    0.049867
    14  C    0.024017
    15  C   -0.030782
    16  C    0.214655
    17  O   -0.246901
    18  O   -0.204928
    19  H    0.004974
    20  H    0.055641
    21  H    0.036410
    22  H    0.054096
    23  H    0.027907
    24  H    0.057876
    25  H   -0.020870
    26  H   -0.005377
    27  H   -0.003560
    28  H   -0.019190
    29  H   -0.001850
    30  H    0.157112
 Sum of Mulliken atomic charges =   0.00000
 Mulliken charges with hydrogens summed into heavy atoms:
              1
     1  O   -0.214691
     2  C    0.172615
     3  O   -0.252502
     4  C   -0.129278
     5  C    0.073863
     6  C   -0.137148
     7  C    0.215596
     8  C    0.273621
     9  C    0.001789
    10  C   -0.018270
    11  C    0.035240
    12  C    0.040725
    13  C    0.046308
    14  C    0.004827
    15  C   -0.030782
    16  C    0.212805
    17  O   -0.089789
    18  O   -0.204928
 Sum of Mulliken charges with hydrogens summed into heavy atoms =   0.00000
 Electronic spatial extent (au):  <R**2>=           4321.9089
 Charge=              0.0000 electrons
 Dipole moment (field-independent basis, Debye):
    X=             -2.2101    Y=             -2.3884    Z=              3.7749  Tot=              4.9839
 Quadrupole moment (field-independent basis, Debye-Ang):
   XX=           -110.3599   YY=           -106.8012   ZZ=            -99.9615
   XY=              9.0814   XZ=              2.7241   YZ=             -1.3783
 Traceless Quadrupole moment (field-independent basis, Debye-Ang):
   XX=             -4.6523   YY=             -1.0937   ZZ=              5.7460
   XY=              9.0814   XZ=              2.7241   YZ=             -1.3783
 Octapole moment (field-independent basis, Debye-Ang**2):
  XXX=           -109.2030  YYY=            -46.7132  ZZZ=            -11.6774  XYY=             17.7148
  XXY=              2.4409  XXZ=             52.0640  XZZ=             21.9253  YZZ=              5.3985
  YYZ=              0.1649  XYZ=              4.4369
 Hexadecapole moment (field-independent basis, Debye-Ang**3):
 XXXX=          -4039.0155 YYYY=          -1050.7181 ZZZZ=           -758.9233 XXXY=             89.5854
 XXXZ=             34.9999 YYYX=             56.7304 YYYZ=             12.8783 ZZZX=              3.1951
 ZZZY=             16.1137 XXYY=           -785.4208 XXZZ=           -760.2678 YYZZ=           -290.6882
 XXYZ=            -20.7268 YYXZ=            -30.8981 ZZXY=            -19.0648
 N-N= 1.312300318470D+03 E-N=-4.587475340442D+03  KE= 8.364019136890D+02
 AllDun Frequency-dependent properties on file 20721 Mask=       2 NFrqRd=     1 NDeriv=     1 LenFil=      12:
 Frequencies=    0.077357
 Property number 2 -- FD Optical Rotation Tensor frequency  1    0.077357:
                 1             2             3 
      1  -0.139106D+02  0.342269D+02  0.258275D+01
      2   0.381206D+02  0.255976D+02  0.312180D+02
      3   0.157839D+02  0.161937D+03 -0.135731D+02
 1\1\GINC-CX1-7-36-1\SP\RCAM-B3LYP\CC-pVDZ\C14H12O4\SCAN-USER-1\22-Oct-
 2010\0\\# cam-b3lyp/cc-pvdz polar(optrot) scrf(IEFPCM,solvent=chlorofo
 rm) CPHF=RdFreq\\Optical Rotation for Deoxylambertellol hydroxy-up\\0,
 1\O,0,4.24481332,-0.51881514,-0.56661246\C,0,3.12592389,-0.24706723,-0
 .22716819\O,0,2.08115388,-0.1794935,-1.11159064\C,0,0.86581256,0.13172
 555,-0.4157293\C,0,1.29387069,0.28198409,1.01304028\C,0,2.60586299,0.0
 6271337,1.12747574\C,0,3.50901719,0.08619663,2.30733442\C,0,0.25332804
 ,1.39134039,-1.02020907\C,0,-1.10765598,1.70662426,-0.43554478\C,0,-1.
 94080701,0.54860255,-0.0087468\C,0,-3.22278015,0.79533252,0.4911242\C,
 0,-4.02666072,-0.25587937,0.90317893\C,0,-3.54965122,-1.56420717,0.822
 53038\C,0,-2.27266502,-1.81470339,0.33359656\C,0,-1.4568053,-0.7658760
 4,-0.08542299\C,0,-0.08646147,-1.05692336,-0.64444254\O,0,-0.22174177,
 -1.30831913,-2.02606851\O,0,-1.50278021,2.85209498,-0.33832197\H,0,0.5
 9987937,0.53379065,1.80555569\H,0,4.29925491,0.82863254,2.16679472\H,0
 ,2.96623178,0.31769166,3.22408362\H,0,4.00702485,-0.88016027,2.4238641
 8\H,0,0.90524788,2.25744193,-0.90117781\H,0,0.11446664,1.20516852,-2.0
 9090449\H,0,-3.55887533,1.82483881,0.54162876\H,0,-5.02186331,-0.06249
 887,1.28809632\H,0,-4.17449636,-2.39048778,1.14419352\H,0,-1.90339912,
 -2.83320135,0.27083983\H,0,0.34005531,-1.93091072,-0.13049909\H,0,0.67
 294072,-1.43321954,-2.36782766\\Version=EM64L-G09RevB.01\State=1-A\HF=
 -841.280625\RMSD=6.300e-09\Dipole=-0.8695338,-0.9396763,1.4851697\Quad
 rupole=-3.4588995,-0.8131382,4.2720377,6.7518344,2.0252931,-1.0247414\
 PG=C01 [X(C14H12O4)]\\@


 ONLY THE DAY DAWNS TO WHICH YOU ARE AWAKE.

                                 -- THOREAU
 Job cpu time:  0 days  1 hours 53 minutes  7.4 seconds.
 File lengths (MBytes):  RWF=    419 Int=      0 D2E=      0 Chk=      6 Scr=      1
 Normal termination of Gaussian 09 at Fri Oct 22 15:18:55 2010.
