 Entering Gaussian System, Link 0=g03
 Input=./C2H5.gau
 Output=./C2H5.log
 Initial command:
 /opt//g03/l1.exe /scratch/Gau-23125.inp -scrdir=/scratch/
 Entering Link 1 = /opt//g03/l1.exe PID=     23142.
  
 Copyright (c) 1988,1990,1992,1993,1995,1998,2003,2004,2007, Gaussian, Inc.
                  All Rights Reserved.
  
 This is the Gaussian(R) 03 program.  It is based on the
 99/9=1/99;
 Leave Link    1 at Mon Mar 30 15:34:57 2009, MaxMem=          0 cpu:       0.2
 (Enter /opt//g03/l101.exe)
 ---------------------------
 #NewComb uB971/6-311+G(d,p)
 NMagM=    0.0000000   2.7928460   2.7928460   2.7928460   0.0000000   2.7928460   2.7928460
 Leave Link  101 at Mon Mar 30 15:34:57 2009, MaxMem=    6291456 cpu:       0.1
 (Enter /opt//g03/l103.exe)

 GradGradGradGradGradGradGradGradGradGradGradGradGradGradGradGradGradGrad
 Berny optimization.
 Initialization pass.
 GradGradGradGradGradGradGradGradGradGradGradGradGradGradGradGradGradGrad

 Leave Link  103 at Mon Mar 30 15:34:58 2009, MaxMem=    6291456 cpu:       0.0
 (Enter /opt//g03/l202.exe)
                          Input orientation:                          
 ---------------------------------------------------------------------
 Rotational constants (GHZ):    103.7552229     22.7268037     21.0625787
 Leave Link  202 at Mon Mar 30 15:34:58 2009, MaxMem=    6291456 cpu:       0.1
 (Enter /opt//g03/l301.exe)
 Standard basis: 6-311+G(d,p) (5D, 7F)
 AO basis set in the form of general basis input:
 NAtoms=    7 NActive=    7 NUniq=    7 SFac= 7.50D-01 NAtFMM=   80 NAOKFM=F Big=F
 Leave Link  301 at Mon Mar 30 15:34:58 2009, MaxMem=    6291456 cpu:       0.0
 (Enter /opt//g03/l302.exe)
 NPDir=0 NMtPBC=     1 NCelOv=     1 NCel=       1 NClECP=     1 NCelD=      1
         NCelK=      1 NCelE2=     1 NClLst=     1 CellRange=     0.0.
 NSgBfM=    76    76    76    76.
 Leave Link  302 at Mon Mar 30 15:34:58 2009, MaxMem=    6291456 cpu:       0.3
 (Enter /opt//g03/l303.exe)
 DipDrv:  MaxL=1.
 Leave Link  303 at Mon Mar 30 15:34:58 2009, MaxMem=    6291456 cpu:       0.0
 (Enter /opt//g03/l401.exe)
 SCF N**3 symmetry information disabled.
 Harris functional with IExCor= 1614 diagonalized for initial guess.
 <S**2> of initial guess= 1.0000
 Leave Link  401 at Mon Mar 30 15:34:59 2009, MaxMem=    6291456 cpu:       2.2
 (Enter /opt//g03/l502.exe)
 UHF open shell SCF:
  Annihilation of the first spin contaminant:
 S**2 before annihilation     0.7541,   after     0.7500
 Leave Link  502 at Mon Mar 30 15:35:25 2009, MaxMem=    6291456 cpu:      51.7
 (Enter /opt//g03/l601.exe)
 Copying SCF densities to generalized density rwf, ISCF=1 IROHF=0.

 **********************************************************************

            Population analysis using the SCF density.
 ---------------------------------------------------------------------------------

 No NMR shielding tensors so no spin-rotation constants.
 Leave Link  601 at Mon Mar 30 15:35:25 2009, MaxMem=    6291456 cpu:       0.5
 (Enter /opt//g03/l701.exe)
 Compute integral first derivatives.
 ... and contract with generalized density number  0.
 Leave Link  701 at Mon Mar 30 15:35:26 2009, MaxMem=    6291456 cpu:       0.2
 (Enter /opt//g03/l702.exe)
 L702 exits ... SP integral derivatives will be done elsewhere.
 Leave Link  702 at Mon Mar 30 15:35:26 2009, MaxMem=    6291456 cpu:       0.0
 (Enter /opt//g03/l703.exe)
 Compute integral first derivatives, UseDBF=F.
 Integral derivatives from FoFDir, PRISM(SPDF).
 Symmetry not used in FoFDir.
 MinBra= 0 MaxBra= 2 Meth= 1.
 IRaf=       0 NMat=   1 IRICut=       1 DoRegI=T DoRafI=F ISym2E= 0 JSym2E=0.
 Leave Link  703 at Mon Mar 30 15:35:30 2009, MaxMem=    6291456 cpu:       8.3
 (Enter /opt//g03/l716.exe)
 Dipole        = 1.34124869D-01 7.46584487D-03-2.37460700D-02
 -------------------------------------------------------------------
 Center     Atomic                   Forces (Hartrees/Bohr)
 Number     Number              X              Y              Z
               21
     21  0.171581D-01
 Leave Link  716 at Mon Mar 30 15:35:30 2009, MaxMem=    6291456 cpu:       0.0
 (Enter /opt//g03/l103.exe)

 GradGradGradGradGradGradGradGradGradGradGradGradGradGradGradGradGradGrad
 Berny optimization.
 GradGradGradGradGradGradGradGradGradGradGradGradGradGradGradGradGradGrad

 Leave Link  103 at Mon Mar 30 15:35:30 2009, MaxMem=    6291456 cpu:       0.0
 (Enter /opt//g03/l202.exe)
                          Input orientation:                          
 ---------------------------------------------------------------------
 Center     Atomic     Atomic              Coordinates (Angstroms)
 Rotational constants (GHZ):    103.3521869     22.6582679     20.9967870
 Leave Link  202 at Mon Mar 30 15:35:30 2009, MaxMem=    6291456 cpu:       0.1
 (Enter /opt//g03/l301.exe)
 Standard basis: 6-311+G(d,p) (5D, 7F)
 Integral buffers will be    131072 words long.
 NAtoms=    7 NActive=    7 NUniq=    7 SFac= 7.50D-01 NAtFMM=   80 NAOKFM=F Big=F
 Leave Link  301 at Mon Mar 30 15:35:30 2009, MaxMem=    6291456 cpu:       0.0
 (Enter /opt//g03/l302.exe)
 NPDir=0 NMtPBC=     1 NCelOv=     1 NCel=       1 NClECP=     1 NCelD=      1
         NCelK=      1 NCelE2=     1 NClLst=     1 CellRange=     0.0.
 NSgBfM=    76    76    76    76.
 Leave Link  302 at Mon Mar 30 15:35:30 2009, MaxMem=    6291456 cpu:       0.3
 (Enter /opt//g03/l303.exe)
 DipDrv:  MaxL=1.
 Leave Link  303 at Mon Mar 30 15:35:31 2009, MaxMem=    6291456 cpu:       0.0
 (Enter /opt//g03/l401.exe)
 SCF N**3 symmetry information disabled.
 Initial guess read from the read-write file:
 Guess basis will be translated and rotated to current coordinates.
 <S**2> of initial guess= 0.7542
 Leave Link  401 at Mon Mar 30 15:35:31 2009, MaxMem=    6291456 cpu:       0.1
 (Enter /opt//g03/l502.exe)
 UHF open shell SCF:
 Requested convergence on RMS density matrix=1.00D-08 within 128 cycles.
 S**2 before annihilation     0.7542,   after     0.7500
 Leave Link  502 at Mon Mar 30 15:35:47 2009, MaxMem=    6291456 cpu:      31.5
 (Enter /opt//g03/l701.exe)
 Compute integral first derivatives.
 ... and contract with generalized density number  0.
 Leave Link  701 at Mon Mar 30 15:35:47 2009, MaxMem=    6291456 cpu:       0.2
 (Enter /opt//g03/l702.exe)
 L702 exits ... SP integral derivatives will be done elsewhere.
 Leave Link  702 at Mon Mar 30 15:35:47 2009, MaxMem=    6291456 cpu:       0.0
 (Enter /opt//g03/l703.exe)
 Compute integral first derivatives, UseDBF=F.
 Integral derivatives from FoFDir, PRISM(SPDF).
 Symmetry not used in FoFDir.
 MinBra= 0 MaxBra= 2 Meth= 1.
 IRaf=       0 NMat=   1 IRICut=       1 DoRegI=T DoRafI=F ISym2E= 0 JSym2E=0.
 Leave Link  703 at Mon Mar 30 15:35:51 2009, MaxMem=    6291456 cpu:       8.3
 (Enter /opt//g03/l716.exe)
 Dipole        = 1.34687965D-01 6.73629117D-03-2.22871091D-02
 -------------------------------------------------------------------
 Center     Atomic                   Forces (Hartrees/Bohr)
 Cartesian Forces:  Max     0.000153484 RMS     0.000063029
 Leave Link  716 at Mon Mar 30 15:35:51 2009, MaxMem=    6291456 cpu:       0.0
 (Enter /opt//g03/l103.exe)

 GradGradGradGradGradGradGradGradGradGradGradGradGradGradGradGradGradGrad
 Berny optimization.
 GradGradGradGradGradGradGradGradGradGradGradGradGradGradGradGradGradGrad

 Leave Link  103 at Mon Mar 30 15:35:51 2009, MaxMem=    6291456 cpu:       0.0
 (Enter /opt//g03/l202.exe)
                          Input orientation:                          
 ---------------------------------------------------------------------
 Center     Atomic     Atomic              Coordinates (Angstroms)
 Rotational constants (GHZ):    103.3229695     22.6606081     20.9987667
 Leave Link  202 at Mon Mar 30 15:35:51 2009, MaxMem=    6291456 cpu:       0.1
 (Enter /opt//g03/l301.exe)
 Standard basis: 6-311+G(d,p) (5D, 7F)
 Integral buffers will be    131072 words long.
 Raffenetti 2 integral format.
 Two-electron integral symmetry is turned off.
    74 basis functions,   112 primitive gaussians,    76 cartesian basis functions
 NAtoms=    7 NActive=    7 NUniq=    7 SFac= 7.50D-01 NAtFMM=   80 NAOKFM=F Big=F
 Leave Link  301 at Mon Mar 30 15:35:51 2009, MaxMem=    6291456 cpu:       0.0
 (Enter /opt//g03/l302.exe)
 NPDir=0 NMtPBC=     1 NCelOv=     1 NCel=       1 NClECP=     1 NCelD=      1
         NCelK=      1 NCelE2=     1 NClLst=     1 CellRange=     0.0.
 One-electron integrals computed using PRISM.
 NBasis=    74 RedAO= T  NBF=    74
 NBsUse=    74 1.00D-06 NBFU=    74
 Precomputing XC quadrature grid using
 IXCGrd= 2 IRadAn=           5 IRanWt=          -1 IRanGd=           0.
 NRdTot=     591 NPtTot=      157216 NUsed=      161382 NTot=      161414
 NSgBfM=    76    76    76    76.
 Leave Link  302 at Mon Mar 30 15:35:52 2009, MaxMem=    6291456 cpu:       0.3
 (Enter /opt//g03/l303.exe)
 DipDrv:  MaxL=1.
 Leave Link  303 at Mon Mar 30 15:35:52 2009, MaxMem=    6291456 cpu:       0.0
 (Enter /opt//g03/l401.exe)
 SCF N**3 symmetry information disabled.
 Initial guess read from the read-write file:
 Guess basis will be translated and rotated to current coordinates.
 <S**2> of initial guess= 0.7542
 Leave Link  401 at Mon Mar 30 15:35:52 2009, MaxMem=    6291456 cpu:       0.1
 (Enter /opt//g03/l502.exe)
 UHF open shell SCF:
 Requested convergence on RMS density matrix=1.00D-08 within 128 cycles.
 Requested convergence on MAX density matrix=1.00D-06.
 KE= 7.878732042666D+01 PE=-2.566827205676D+02 EE= 6.187583962986D+01
 Annihilation of the first spin contaminant:
 S**2 before annihilation     0.7542,   after     0.7500
 Leave Link  502 at Mon Mar 30 15:36:04 2009, MaxMem=    6291456 cpu:      23.6
 (Enter /opt//g03/l701.exe)
 Compute integral first derivatives.
 ... and contract with generalized density number  0.
 Leave Link  701 at Mon Mar 30 15:36:04 2009, MaxMem=    6291456 cpu:       0.2
 (Enter /opt//g03/l702.exe)
 L702 exits ... SP integral derivatives will be done elsewhere.
 Leave Link  702 at Mon Mar 30 15:36:04 2009, MaxMem=    6291456 cpu:       0.0
 (Enter /opt//g03/l703.exe)
 Compute integral first derivatives, UseDBF=F.
 Integral derivatives from FoFDir, PRISM(SPDF).
 Symmetry not used in FoFDir.
 MinBra= 0 MaxBra= 2 Meth= 1.
 IRaf=       0 NMat=   1 IRICut=       1 DoRegI=T DoRafI=F ISym2E= 0 JSym2E=0.
 Leave Link  703 at Mon Mar 30 15:36:08 2009, MaxMem=    6291456 cpu:       8.3
 (Enter /opt//g03/l716.exe)
 Dipole        = 1.35186958D-01 6.40489877D-03-2.16408706D-02
 -------------------------------------------------------------------
    7          1           0.000019207    0.000003243   -0.000005984
 -------------------------------------------------------------------
 Cartesian Forces:  Max     0.000077009 RMS     0.000029229
 Leave Link  716 at Mon Mar 30 15:36:08 2009, MaxMem=    6291456 cpu:       0.0
 (Enter /opt//g03/l103.exe)

 GradGradGradGradGradGradGradGradGradGradGradGradGradGradGradGradGradGrad
 GradGradGradGradGradGradGradGradGradGradGradGradGradGradGradGradGradGrad

 Leave Link  103 at Mon Mar 30 15:36:08 2009, MaxMem=    6291456 cpu:       0.0
 (Enter /opt//g03/l202.exe)
                          Input orientation:                          
 ---------------------------------------------------------------------
 Center     Atomic     Atomic              Coordinates (Angstroms)
 Number     Number      Type              X           Y           Z
 Rotational constants (GHZ):    103.3154504     22.6599129     20.9981773
 Leave Link  202 at Mon Mar 30 15:36:08 2009, MaxMem=    6291456 cpu:       0.1
 (Enter /opt//g03/l301.exe)
 Standard basis: 6-311+G(d,p) (5D, 7F)
 Integral buffers will be    131072 words long.
 Raffenetti 2 integral format.
 Two-electron integral symmetry is turned off.
    74 basis functions,   112 primitive gaussians,    76 cartesian basis functions
     9 alpha electrons        8 beta electrons
       nuclear repulsion energy        36.8709284686 Hartrees.
 IExCor=1614 DFT=T Ex=B97-1+HF Corr=B97-1 ExCW=0 ScaHFX=  0.210000
 ScaDFX=  1.000000  1.000000  1.000000  1.000000
 IRadAn=      5 IRanWt=     -1 IRanGd=            0 ICorTp=0
 NAtoms=    7 NActive=    7 NUniq=    7 SFac= 7.50D-01 NAtFMM=   80 NAOKFM=F Big=F
 Leave Link  301 at Mon Mar 30 15:36:08 2009, MaxMem=    6291456 cpu:       0.0
 (Enter /opt//g03/l302.exe)
 NPDir=0 NMtPBC=     1 NCelOv=     1 NCel=       1 NClECP=     1 NCelD=      1
         NCelK=      1 NCelE2=     1 NClLst=     1 CellRange=     0.0.
 One-electron integrals computed using PRISM.
 NBasis=    74 RedAO= T  NBF=    74
 NBsUse=    74 1.00D-06 NBFU=    74
 Precomputing XC quadrature grid using
 IXCGrd= 2 IRadAn=           5 IRanWt=          -1 IRanGd=           0.
 NRdTot=     591 NPtTot=      157216 NUsed=      161382 NTot=      161414
 NSgBfM=    76    76    76    76.
 Leave Link  302 at Mon Mar 30 15:36:09 2009, MaxMem=    6291456 cpu:       0.4
 (Enter /opt//g03/l303.exe)
 DipDrv:  MaxL=1.
 Leave Link  303 at Mon Mar 30 15:36:09 2009, MaxMem=    6291456 cpu:       0.0
 (Enter /opt//g03/l401.exe)
 SCF N**3 symmetry information disabled.
 Initial guess read from the read-write file:
 Guess basis will be translated and rotated to current coordinates.
 <S**2> of initial guess= 0.7542
 Leave Link  401 at Mon Mar 30 15:36:09 2009, MaxMem=    6291456 cpu:       0.1
 (Enter /opt//g03/l502.exe)
 UHF open shell SCF:
 Requested convergence on RMS density matrix=1.00D-08 within 128 cycles.
 Requested convergence on MAX density matrix=1.00D-06.
 Annihilation of the first spin contaminant:
 S**2 before annihilation     0.7542,   after     0.7500
 Leave Link  502 at Mon Mar 30 15:36:21 2009, MaxMem=    6291456 cpu:      23.6
 (Enter /opt//g03/l701.exe)
 Compute integral first derivatives.
 ... and contract with generalized density number  0.
 Leave Link  701 at Mon Mar 30 15:36:21 2009, MaxMem=    6291456 cpu:       0.2
 (Enter /opt//g03/l702.exe)
 L702 exits ... SP integral derivatives will be done elsewhere.
 Leave Link  702 at Mon Mar 30 15:36:21 2009, MaxMem=    6291456 cpu:       0.0
 (Enter /opt//g03/l703.exe)
 Compute integral first derivatives, UseDBF=F.
 Integral derivatives from FoFDir, PRISM(SPDF).
 Symmetry not used in FoFDir.
 MinBra= 0 MaxBra= 2 Meth= 1.
 IRaf=       0 NMat=   1 IRICut=       1 DoRegI=T DoRafI=F ISym2E= 0 JSym2E=0.
 Leave Link  703 at Mon Mar 30 15:36:25 2009, MaxMem=    6291456 cpu:       8.3
 (Enter /opt//g03/l716.exe)
 Dipole        = 1.35411494D-01 6.26670652D-03-2.13725483D-02
 -------------------------------------------------------------------
 Center     Atomic                   Forces (Hartrees/Bohr)
 Number     Number              X              Y              Z
 -------------------------------------------------------------------
    1          6           0.000007919    0.000000094   -0.000000802
 -------------------------------------------------------------------
 Cartesian Forces:  Max     0.000007919 RMS     0.000002774
 Leave Link  716 at Mon Mar 30 15:36:25 2009, MaxMem=    6291456 cpu:       0.0
 (Enter /opt//g03/l103.exe)

 GradGradGradGradGradGradGradGradGradGradGradGradGradGradGradGradGradGrad
 Berny optimization.
 Internal  Forces:  Max     0.000003727 RMS     0.000001541
 GradGradGradGradGradGradGradGradGradGradGradGradGradGradGradGradGradGrad

 Largest change from initial coordinates is atom    7       0.003 Angstoms.
 Leave Link  103 at Mon Mar 30 15:36:25 2009, MaxMem=    6291456 cpu:       0.0
 (Enter /opt//g03/l202.exe)
                          Input orientation:                          
 ---------------------------------------------------------------------
 Rotational constants (GHZ):    103.3154504     22.6599129     20.9981773
 Leave Link  202 at Mon Mar 30 15:36:25 2009, MaxMem=    6291456 cpu:       0.1
 (Enter /opt//g03/l601.exe)
 Copying SCF densities to generalized density rwf, ISCF=1 IROHF=0.

 **********************************************************************

            Population analysis using the SCF density.

 No NMR shielding tensors so no spin-rotation constants.
 Leave Link  601 at Mon Mar 30 15:36:26 2009, MaxMem=    6291456 cpu:       0.5
 (Enter /opt//g03/l9999.exe)
 1\1\GINC-BOTTICELLI\FOpt\UB971\6-311+G(d,p)\C2H5(2)\SS663\30-Mar-2009\
 0\\#p uB971/6-311+G(d,p) opt=(Tight, NewEstmFC, MaxCyc = 200) freq #GF
 Input Population=Regular #Integral(Grid=UltraFine) Guess=Mix NoSymmetr
 y\\#NewComb uB971/6-311+G(d,p)\\0,2\C,0.9166762042,0.0730268241,4.9909
 F=2.774e-06\Thermal=0.\Dipole=0.1354115,0.0062667,-0.0213725\PG=C01 [X
 (C2H5)]\\@


 THERE IS NO SUBJECT, HOWEVER COMPLEX,
 WHICH, IF STUDIED WITH PATIENCE AND INTELLIGIENCE
 WILL NOT BECOME
 MORE COMPLEX
                        QUOTED BY D. GORDON ROHMAN
 Leave Link 9999 at Mon Mar 30 15:36:26 2009, MaxMem=    6291456 cpu:       0.0
 Job cpu time:  0 days  0 hours  2 minutes 52.7 seconds.
 File lengths (MBytes):  RWF=     17 Int=      0 D2E=      0 Chk=      6 Scr=      1
 Normal termination of Gaussian 03 at Mon Mar 30 15:36:26 2009.
 (Enter /opt//g03/l1.exe)
 Link1:  Proceeding to internal job step number  2.
 ---------------------------------------------------------------------
 #P Geom=AllCheck Guess=Read SCRF=Check GenChk UB971/6-311+G(d,p) Freq
 ---------------------------------------------------------------------
 1/6=200,7=10,10=4,29=7,30=1,38=1,40=1,46=1/1,3;
 2/15=1,40=1/2;
 1/6=200,10=4,30=1,46=1/3;
 99//99;
 Leave Link    1 at Mon Mar 30 15:36:26 2009, MaxMem=          0 cpu:       0.1
 (Enter /opt//g03/l101.exe)
 ---------------------------
 #NewComb uB971/6-311+G(d,p)
 ---------------------------
 NMagM=    0.0000000   2.7928460   2.7928460   2.7928460   0.0000000   2.7928460   2.7928460
 Leave Link  101 at Mon Mar 30 15:36:26 2009, MaxMem=    6291456 cpu:       0.1
 (Enter /opt//g03/l103.exe)

 GradGradGradGradGradGradGradGradGradGradGradGradGradGradGradGradGradGrad
 Berny optimization.
 Number of steps in this run=   2 maximum allowed number of steps=   2.
 GradGradGradGradGradGradGradGradGradGradGradGradGradGradGradGradGradGrad

 Leave Link  103 at Mon Mar 30 15:36:26 2009, MaxMem=    6291456 cpu:       0.0
 (Enter /opt//g03/l202.exe)
                          Input orientation:                          
 ---------------------------------------------------------------------
 Rotational constants (GHZ):    103.3154504     22.6599129     20.9981773
 Leave Link  202 at Mon Mar 30 15:36:26 2009, MaxMem=    6291456 cpu:       0.1
 (Enter /opt//g03/l301.exe)
 Standard basis: 6-311+G(d,p) (5D, 7F)
 AO basis set in the form of general basis input:
 NAtoms=    7 NActive=    7 NUniq=    7 SFac= 7.50D-01 NAtFMM=   80 NAOKFM=F Big=F
 Leave Link  301 at Mon Mar 30 15:36:26 2009, MaxMem=    6291456 cpu:       0.0
 (Enter /opt//g03/l302.exe)
 NPDir=0 NMtPBC=     1 NCelOv=     1 NCel=       1 NClECP=     1 NCelD=      1
         NCelK=      1 NCelE2=     1 NClLst=     1 CellRange=     0.0.
 One-electron integrals computed using PRISM.
 NBasis=    74 RedAO= T  NBF=    74
 NBsUse=    74 1.00D-06 NBFU=    74
 Precomputing XC quadrature grid using
 IXCGrd= 2 IRadAn=           5 IRanWt=          -1 IRanGd=           0.
 NRdTot=     591 NPtTot=      157216 NUsed=      161382 NTot=      161414
 NSgBfM=    76    76    76    76.
 Leave Link  302 at Mon Mar 30 15:36:26 2009, MaxMem=    6291456 cpu:       0.3
 (Enter /opt//g03/l303.exe)
 DipDrv:  MaxL=1.
 Leave Link  303 at Mon Mar 30 15:36:26 2009, MaxMem=    6291456 cpu:       0.0
 (Enter /opt//g03/l401.exe)
 Initial guess read from the checkpoint file:
 /scratch/Gau-23142.chk
 Guess basis will be translated and rotated to current coordinates.
 <S**2> of initial guess= 0.7542
 Leave Link  401 at Mon Mar 30 15:36:27 2009, MaxMem=    6291456 cpu:       0.1
 (Enter /opt//g03/l502.exe)
 UHF open shell SCF:
 Requested convergence on RMS density matrix=1.00D-08 within 128 cycles.
 Requested convergence on MAX density matrix=1.00D-06.
 Annihilation of the first spin contaminant:
 S**2 before annihilation     0.7542,   after     0.7500
 Leave Link  502 at Mon Mar 30 15:36:29 2009, MaxMem=    6291456 cpu:       4.0
 (Enter /opt//g03/l801.exe)
 Range of M.O.s used for correlation:     1    74
 NBasis=    74 NAE=     9 NBE=     8 NFC=     0 NFV=     0
 NROrb=     74 NOA=     9 NOB=     8 NVA=    65 NVB=    66

 **** Warning!!: The largest alpha MO coefficient is  0.32466885D+02


 **** Warning!!: The largest beta MO coefficient is  0.23390206D+02

 Leave Link  801 at Mon Mar 30 15:36:29 2009, MaxMem=    6291456 cpu:       0.0
 (Enter /opt//g03/l1101.exe)
 Using compressed storage, NAtomX=     7.
 Will process   8 centers per pass.
 Leave Link 1101 at Mon Mar 30 15:36:29 2009, MaxMem=    6291456 cpu:       0.2
 (Enter /opt//g03/l1102.exe)
 Use density number 0.
 Symmetrizing basis deriv contribution to polar:
 IMax=3 JMax=2 DiffMx= 0.00D+00
 Leave Link 1102 at Mon Mar 30 15:36:29 2009, MaxMem=    6291456 cpu:       0.0
 (Enter /opt//g03/l1110.exe)
 Forming Gx(P) for the SCF density, NAtomX=     7.
 Integral derivatives from FoFDir, PRISM(SPDF).
 Do as many integral derivatives as possible in FoFDir.
 G2DrvN: MDV=       6291398.
 G2DrvN: will do    8 centers at a time, making    1 passes doing MaxLOS=2.
 Symmetry not used in FoFDir.
 MinBra= 0 MaxBra= 2 Meth= 1.
 IRaf=       0 NMat=   1 IRICut=       1 DoRegI=T DoRafI=F ISym2E= 0 JSym2E=0.
 FoFDir/FoFCou used for L=0 through L=2.
 Leave Link 1110 at Mon Mar 30 15:37:22 2009, MaxMem=    6291456 cpu:     105.2
 (Enter /opt//g03/l1002.exe)
 Minotr:  UHF wavefunction.
 End of Minotr Frequency-dependent properties file   721 does not exist.
 Leave Link 1002 at Mon Mar 30 15:38:14 2009, MaxMem=    6291456 cpu:     103.8
 (Enter /opt//g03/l601.exe)
 Copying SCF densities to generalized density rwf, ISCF=1 IROHF=0.

 **********************************************************************

            Population analysis using the SCF density.

 ---------------------------------------------------------------------------------

 No NMR shielding tensors so no spin-rotation constants.
 Leave Link  601 at Mon Mar 30 15:38:14 2009, MaxMem=    6291456 cpu:       0.5
 (Enter /opt//g03/l701.exe)
 Compute integral second derivatives.
 ... and contract with generalized density number  0.
 Leave Link  701 at Mon Mar 30 15:38:14 2009, MaxMem=    6291456 cpu:       0.3
 (Enter /opt//g03/l702.exe)
 L702 exits ... SP integral derivatives will be done elsewhere.
 Leave Link  702 at Mon Mar 30 15:38:14 2009, MaxMem=    6291456 cpu:       0.0
 (Enter /opt//g03/l703.exe)
 Compute integral second derivatives, UseDBF=F.
 Integral derivatives from FoFDir, PRISM(SPDF).
 Symmetry not used in FoFDir.
 MinBra= 0 MaxBra= 2 Meth= 1.
 IRaf=       0 NMat=   1 IRICut=       1 DoRegI=T DoRafI=F ISym2E= 0 JSym2E=0.
 Leave Link  703 at Mon Mar 30 15:39:24 2009, MaxMem=    6291456 cpu:     140.2
 (Enter /opt//g03/l716.exe)
 Dipole        = 1.35411745D-01 6.26666521D-03-2.13724802D-02
 Polarizability= 2.77504591D+01 9.64637882D-01 2.39751586D+01
                -2.21786468D+00-2.40497738D-01 2.45195801D+01
 Full mass-weighted force constant matrix:
               21
     21  0.126779D-01
 Leave Link  716 at Mon Mar 30 15:39:24 2009, MaxMem=    6291456 cpu:       0.0
 (Enter /opt//g03/l103.exe)

 GradGradGradGradGradGradGradGradGradGradGradGradGradGradGradGradGradGrad
 Berny optimization.
 Predicted change in Energy=-2.296150D-10
 GradGradGradGradGradGradGradGradGradGradGradGradGradGradGradGradGradGrad

 Leave Link  103 at Mon Mar 30 15:39:25 2009, MaxMem=    6291456 cpu:       0.0
 (Enter /opt//g03/l9999.exe)
 1\1\GINC-BOTTICELLI\Freq\UB971\6-311+G(d,p)\C2H5(2)\SS663\30-Mar-2009\
 0\\#P Geom=AllCheck Guess=Read SCRF=Check GenChk UB971/6-311+G(d,p) Fr
 eq\\#NewComb uB971/6-311+G(d,p)\\0,2\C,0.9166762042,0.0730268241,4.990
 0130,-0.00000030,0.00000160\\\@


 I do not feel obliged to believe that the same God who
 has endowed us with sense, reason, and intellect has
 intended us to forgo their use.
                   --Galileo Galilei
 Job cpu time:  0 days  0 hours  5 minutes 56.0 seconds.
 File lengths (MBytes):  RWF=     19 Int=      0 D2E=      0 Chk=      6 Scr=      1
 Normal termination of Gaussian 03 at Mon Mar 30 15:39:25 2009.
