 Entering Gaussian System, Link 0=g03
 Input=./C2H5.gau
 Output=./C2H5.log
 Initial command:
 /opt//g03/l1.exe /scratch/Gau-23125.inp -scrdir=/scratch/
 Entering Link 1 = /opt//g03/l1.exe PID=     23142.
  
 Copyright (c) 1988,1990,1992,1993,1995,1998,2003,2004,2007, Gaussian, Inc.
                  All Rights Reserved.
  
 This is the Gaussian(R) 03 program.  It is based on the
 the Gaussian(R) 98 system (copyright 1998, Gaussian, Inc.),
 the Gaussian(R) 94 system (copyright 1995, Gaussian, Inc.),
 the Gaussian 92(TM) system (copyright 1992, Gaussian, Inc.),
 the Gaussian 90(TM) system (copyright 1990, Gaussian, Inc.),
 the Gaussian 88(TM) system (copyright 1988, Gaussian, Inc.),
 the Gaussian 86(TM) system (copyright 1986, Carnegie Mellon
 University), and the Gaussian 82(TM) system (copyright 1983,
 Carnegie Mellon University). Gaussian is a federally registered
 trademark of Gaussian, Inc.
  
 This software contains proprietary and confidential information,
 including trade secrets, belonging to Gaussian, Inc.
  
 This software is provided under written license and may be
 used, copied, transmitted, or stored only in accord with that
 written license.
  
 The following legend is applicable only to US Government
 contracts under FAR:
  
                    RESTRICTED RIGHTS LEGEND
  
 Use, reproduction and disclosure by the US Government is
 subject to restrictions as set forth in subparagraphs (a)
 and (c) of the Commercial Computer Software - Restricted
 Rights clause in FAR 52.227-19.
  
 Gaussian, Inc.
 340 Quinnipiac St., Bldg. 40, Wallingford CT 06492
  
  
 ---------------------------------------------------------------
 Warning -- This program may not be used in any manner that
 competes with the business of Gaussian, Inc. or will provide
 assistance to any competitor of Gaussian, Inc.  The licensee
 of this program is prohibited from giving any competitor of
 Gaussian, Inc. access to this program.  By using this program,
 the user acknowledges that Gaussian, Inc. is engaged in the
 business of creating and licensing software in the field of
 computational chemistry and represents and warrants to the
 licensee that it is not a competitor of Gaussian, Inc. and that
 it will not use this program in any manner prohibited above.
 ---------------------------------------------------------------
  

 Cite this work as:
 Gaussian 03, Revision E.01,
 M. J. Frisch, G. W. Trucks, H. B. Schlegel, G. E. Scuseria, 
 M. A. Robb, J. R. Cheeseman, J. A. Montgomery, Jr., T. Vreven, 
 K. N. Kudin, J. C. Burant, J. M. Millam, S. S. Iyengar, J. Tomasi, 
 V. Barone, B. Mennucci, M. Cossi, G. Scalmani, N. Rega, 
 G. A. Petersson, H. Nakatsuji, M. Hada, M. Ehara, K. Toyota, 
 R. Fukuda, J. Hasegawa, M. Ishida, T. Nakajima, Y. Honda, O. Kitao, 
 H. Nakai, M. Klene, X. Li, J. E. Knox, H. P. Hratchian, J. B. Cross, 
 V. Bakken, C. Adamo, J. Jaramillo, R. Gomperts, R. E. Stratmann, 
 O. Yazyev, A. J. Austin, R. Cammi, C. Pomelli, J. W. Ochterski, 
 P. Y. Ayala, K. Morokuma, G. A. Voth, P. Salvador, J. J. Dannenberg, 
 V. G. Zakrzewski, S. Dapprich, A. D. Daniels, M. C. Strain, 
 O. Farkas, D. K. Malick, A. D. Rabuck, K. Raghavachari, 
 J. B. Foresman, J. V. Ortiz, Q. Cui, A. G. Baboul, S. Clifford, 
 J. Cioslowski, B. B. Stefanov, G. Liu, A. Liashenko, P. Piskorz, 
 I. Komaromi, R. L. Martin, D. J. Fox, T. Keith, M. A. Al-Laham, 
 C. Y. Peng, A. Nanayakkara, M. Challacombe, P. M. W. Gill, 
 B. Johnson, W. Chen, M. W. Wong, C. Gonzalez, and J. A. Pople, 
 Gaussian, Inc., Wallingford CT, 2004.
 
 ******************************************
 Gaussian 03:  AM64L-G03RevE.01 11-Sep-2007
                30-Mar-2009 
 ******************************************
 %NProcShared=2
 Will use up to    2 processors via shared memory.
 ----------------------------------------------------------------------
 #p uB971/6-311+G(d,p) opt=(Tight, NewEstmFC, MaxCyc = 200) freq #GFInp
 ut Population=Regular #Integral(Grid=UltraFine) Guess=Mix NoSymmetry
 ----------------------------------------------------------------------
 1/6=200,7=10,10=7,14=-1,18=20,26=3,38=1/1,3;
 2/9=110,15=1,17=6,18=5,40=1/2;
 3/5=4,6=6,7=111,11=2,16=1,24=10,25=1,30=1,74=-20,75=5/1,2,3;
 4/7=2,9=2,13=1/1;
 5/5=2,38=5/2;
 6/28=1/1;
 7/29=1,30=1/1,2,3,16;
 1/6=200,10=7,14=-1,18=20/3(3);
 2/9=110,15=1/2;
 6/19=2,28=1/1;
 99//99;
 2/9=110,15=1/2;
 3/5=4,6=6,7=111,11=2,16=1,25=1,30=1,74=-20,75=5/1,2,3;
 4/5=5,7=2,9=2,16=3/1;
 5/5=2,38=5/2;
 7/30=1/1,2,3,16;
 1/6=200,14=-1,18=20/3(-5);
 2/9=110,15=1/2;
 6/19=2,28=1/1;
 99/9=1/99;
 Leave Link    1 at Mon Mar 30 15:34:57 2009, MaxMem=          0 cpu:       0.2
 (Enter /opt//g03/l101.exe)
 ---------------------------
 #NewComb uB971/6-311+G(d,p)
 ---------------------------
 Symbolic Z-matrix:
 Charge =  0 Multiplicity = 2
 C                     0.91615   0.07243   4.99221 
 H                     1.82641  -0.22339   5.53974 
 H                     1.00333   1.14742   4.80723 
 H                     0.95414  -0.44492   4.02871 
 C                    -0.31877  -0.26078   5.75176 
 H                    -0.7203    0.42201   6.49042 
 H                    -0.77165  -1.24177   5.67704 
 
                    Isotopes and Nuclear Properties:
 (Nuclear quadrupole moments (NQMom) in fm**2, nuclear magnetic moments (NMagM)
  in nuclear magnetons)

  Atom         1           2           3           4           5           6           7
 IAtWgt=          12           1           1           1          12           1           1
 AtmWgt=  12.0000000   1.0078250   1.0078250   1.0078250  12.0000000   1.0078250   1.0078250
 NucSpn=           0           1           1           1           0           1           1
 AtZEff=   0.0000000   0.0000000   0.0000000   0.0000000   0.0000000   0.0000000   0.0000000
 NQMom=    0.0000000   0.0000000   0.0000000   0.0000000   0.0000000   0.0000000   0.0000000
 NMagM=    0.0000000   2.7928460   2.7928460   2.7928460   0.0000000   2.7928460   2.7928460
 Leave Link  101 at Mon Mar 30 15:34:57 2009, MaxMem=    6291456 cpu:       0.1
 (Enter /opt//g03/l103.exe)

 GradGradGradGradGradGradGradGradGradGradGradGradGradGradGradGradGradGrad
 Berny optimization.
 Initialization pass.
                           ----------------------------
                           !    Initial Parameters    !
                           ! (Angstroms and Degrees)  !
 --------------------------                            --------------------------
 ! Name  Definition              Value          Derivative Info.                !
 --------------------------------------------------------------------------------
 ! R1    R(1,2)                  1.1027         estimate D2E/DX2                !
 ! R2    R(1,3)                  1.0943         estimate D2E/DX2                !
 ! R3    R(1,4)                  1.0943         estimate D2E/DX2                !
 ! R4    R(1,5)                  1.4876         estimate D2E/DX2                !
 ! R5    R(5,6)                  1.0831         estimate D2E/DX2                !
 ! R6    R(5,7)                  1.0831         estimate D2E/DX2                !
 ! A1    A(2,1,3)              106.363          estimate D2E/DX2                !
 ! A2    A(2,1,4)              106.3626         estimate D2E/DX2                !
 ! A3    A(2,1,5)              111.8182         estimate D2E/DX2                !
 ! A4    A(3,1,4)              108.2307         estimate D2E/DX2                !
 ! A5    A(3,1,5)              111.8695         estimate D2E/DX2                !
 ! A6    A(4,1,5)              111.8693         estimate D2E/DX2                !
 ! A7    A(1,5,6)              120.9822         estimate D2E/DX2                !
 ! A8    A(1,5,7)              120.9825         estimate D2E/DX2                !
 ! A9    A(6,5,7)              117.5832         estimate D2E/DX2                !
 ! D1    D(2,1,5,6)             86.0518         estimate D2E/DX2                !
 ! D2    D(2,1,5,7)            -86.0465         estimate D2E/DX2                !
 ! D3    D(3,1,5,6)            -33.1364         estimate D2E/DX2                !
 ! D4    D(3,1,5,7)            154.7653         estimate D2E/DX2                !
 ! D5    D(4,1,5,6)           -154.7606         estimate D2E/DX2                !
 ! D6    D(4,1,5,7)             33.1411         estimate D2E/DX2                !
 --------------------------------------------------------------------------------
 Trust Radius=3.00D-01 FncErr=1.00D-07 GrdErr=1.00D-06
 Number of steps in this run= 100 maximum allowed number of steps= 100.
 GradGradGradGradGradGradGradGradGradGradGradGradGradGradGradGradGradGrad

 Leave Link  103 at Mon Mar 30 15:34:58 2009, MaxMem=    6291456 cpu:       0.0
 (Enter /opt//g03/l202.exe)
                          Input orientation:                          
 ---------------------------------------------------------------------
 Center     Atomic     Atomic              Coordinates (Angstroms)
 Number     Number      Type              X           Y           Z
 ---------------------------------------------------------------------
    1          6             0        0.916150    0.072430    4.992210
    2          1             0        1.826410   -0.223390    5.539740
    3          1             0        1.003330    1.147420    4.807230
    4          1             0        0.954140   -0.444920    4.028710
    5          6             0       -0.318770   -0.260780    5.751760
    6          1             0       -0.720300    0.422010    6.490420
    7          1             0       -0.771650   -1.241770    5.677040
 ---------------------------------------------------------------------
                    Distance matrix (angstroms):
                    1          2          3          4          5
     1  C    0.000000
     2  H    1.102666   0.000000
     3  H    1.094268   1.758736   0.000000
     4  H    1.094270   1.758733   1.773150   0.000000
     5  C    1.487606   2.155956   2.150142   2.150142   0.000000
     6  H    2.246065   2.793934   2.515999   3.100860   1.083073
     7  H    2.246059   2.793898   3.100863   2.516011   1.083063
                    6          7
     6  H    0.000000
     7  H    1.852670   0.000000
 Symmetry turned off by external request.
 Stoichiometry    C2H5(2)
 Framework group  C1[X(C2H5)]
 Deg. of freedom    15
 Full point group                 C1
 Rotational constants (GHZ):    103.7552229     22.7268037     21.0625787
 Leave Link  202 at Mon Mar 30 15:34:58 2009, MaxMem=    6291456 cpu:       0.1
 (Enter /opt//g03/l301.exe)
 Standard basis: 6-311+G(d,p) (5D, 7F)
 AO basis set in the form of general basis input:
      1 0
 S   6 1.00       0.000000000000
      0.4563240000D+04  0.1966650249D-02
      0.6820240000D+03  0.1523060193D-01
      0.1549730000D+03  0.7612690966D-01
      0.4445530000D+02  0.2608010331D+00
      0.1302900000D+02  0.6164620782D+00
      0.1827730000D+01  0.2210060280D+00
 SP   3 1.00       0.000000000000
      0.2096420000D+02  0.1146600807D+00  0.4024869267D-01
      0.4803310000D+01  0.9199996477D+00  0.2375939567D+00
      0.1459330000D+01 -0.3030682134D-02  0.8158538515D+00
 SP   1 1.00       0.000000000000
      0.4834560000D+00  0.1000000000D+01  0.1000000000D+01
 SP   1 1.00       0.000000000000
      0.1455850000D+00  0.1000000000D+01  0.1000000000D+01
 SP   1 1.00       0.000000000000
      0.4380000000D-01  0.1000000000D+01  0.1000000000D+01
 D   1 1.00       0.000000000000
      0.6260000000D+00  0.1000000000D+01
 ****
      2 0
 S   3 1.00       0.000000000000
      0.3386500000D+02  0.2549381454D-01
      0.5094790000D+01  0.1903731086D+00
      0.1158790000D+01  0.8521614860D+00
 S   1 1.00       0.000000000000
      0.3258400000D+00  0.1000000000D+01
 S   1 1.00       0.000000000000
      0.1027410000D+00  0.1000000000D+01
 P   1 1.00       0.000000000000
      0.7500000000D+00  0.1000000000D+01
 ****
      3 0
 S   3 1.00       0.000000000000
      0.3386500000D+02  0.2549381454D-01
      0.5094790000D+01  0.1903731086D+00
      0.1158790000D+01  0.8521614860D+00
 S   1 1.00       0.000000000000
      0.3258400000D+00  0.1000000000D+01
 S   1 1.00       0.000000000000
      0.1027410000D+00  0.1000000000D+01
 P   1 1.00       0.000000000000
      0.7500000000D+00  0.1000000000D+01
 ****
      4 0
 S   3 1.00       0.000000000000
      0.3386500000D+02  0.2549381454D-01
      0.5094790000D+01  0.1903731086D+00
      0.1158790000D+01  0.8521614860D+00
 S   1 1.00       0.000000000000
      0.3258400000D+00  0.1000000000D+01
 S   1 1.00       0.000000000000
      0.1027410000D+00  0.1000000000D+01
 P   1 1.00       0.000000000000
      0.7500000000D+00  0.1000000000D+01
 ****
      5 0
 S   6 1.00       0.000000000000
      0.4563240000D+04  0.1966650249D-02
      0.6820240000D+03  0.1523060193D-01
      0.1549730000D+03  0.7612690966D-01
      0.4445530000D+02  0.2608010331D+00
      0.1302900000D+02  0.6164620782D+00
      0.1827730000D+01  0.2210060280D+00
 SP   3 1.00       0.000000000000
      0.2096420000D+02  0.1146600807D+00  0.4024869267D-01
      0.4803310000D+01  0.9199996477D+00  0.2375939567D+00
      0.1459330000D+01 -0.3030682134D-02  0.8158538515D+00
 SP   1 1.00       0.000000000000
      0.4834560000D+00  0.1000000000D+01  0.1000000000D+01
 SP   1 1.00       0.000000000000
      0.1455850000D+00  0.1000000000D+01  0.1000000000D+01
 SP   1 1.00       0.000000000000
      0.4380000000D-01  0.1000000000D+01  0.1000000000D+01
 D   1 1.00       0.000000000000
      0.6260000000D+00  0.1000000000D+01
 ****
      6 0
 S   3 1.00       0.000000000000
      0.3386500000D+02  0.2549381454D-01
      0.5094790000D+01  0.1903731086D+00
      0.1158790000D+01  0.8521614860D+00
 S   1 1.00       0.000000000000
      0.3258400000D+00  0.1000000000D+01
 S   1 1.00       0.000000000000
      0.1027410000D+00  0.1000000000D+01
 P   1 1.00       0.000000000000
      0.7500000000D+00  0.1000000000D+01
 ****
      7 0
 S   3 1.00       0.000000000000
      0.3386500000D+02  0.2549381454D-01
      0.5094790000D+01  0.1903731086D+00
      0.1158790000D+01  0.8521614860D+00
 S   1 1.00       0.000000000000
      0.3258400000D+00  0.1000000000D+01
 S   1 1.00       0.000000000000
      0.1027410000D+00  0.1000000000D+01
 P   1 1.00       0.000000000000
      0.7500000000D+00  0.1000000000D+01
 ****

 Integral buffers will be    131072 words long.
 Raffenetti 2 integral format.
 Two-electron integral symmetry is turned off.
    74 basis functions,   112 primitive gaussians,    76 cartesian basis functions
     9 alpha electrons        8 beta electrons
       nuclear repulsion energy        36.9315523615 Hartrees.
 IExCor=1614 DFT=T Ex=B97-1+HF Corr=B97-1 ExCW=0 ScaHFX=  0.210000
 ScaDFX=  1.000000  1.000000  1.000000  1.000000
 IRadAn=      5 IRanWt=     -1 IRanGd=            0 ICorTp=0
 NAtoms=    7 NActive=    7 NUniq=    7 SFac= 7.50D-01 NAtFMM=   80 NAOKFM=F Big=F
 Leave Link  301 at Mon Mar 30 15:34:58 2009, MaxMem=    6291456 cpu:       0.0
 (Enter /opt//g03/l302.exe)
 NPDir=0 NMtPBC=     1 NCelOv=     1 NCel=       1 NClECP=     1 NCelD=      1
         NCelK=      1 NCelE2=     1 NClLst=     1 CellRange=     0.0.
 One-electron integrals computed using PRISM.
 NBasis=    74 RedAO= T  NBF=    74
 NBsUse=    74 1.00D-06 NBFU=    74
 Precomputing XC quadrature grid using
 IXCGrd= 2 IRadAn=           5 IRanWt=          -1 IRanGd=           0.
 NRdTot=     591 NPtTot=      157216 NUsed=      161382 NTot=      161414
 NSgBfM=    76    76    76    76.
 Leave Link  302 at Mon Mar 30 15:34:58 2009, MaxMem=    6291456 cpu:       0.3
 (Enter /opt//g03/l303.exe)
 DipDrv:  MaxL=1.
 Leave Link  303 at Mon Mar 30 15:34:58 2009, MaxMem=    6291456 cpu:       0.0
 (Enter /opt//g03/l401.exe)
 SCF N**3 symmetry information disabled.
 Harris functional with IExCor= 1614 diagonalized for initial guess.
 ExpMin= 4.38D-02 ExpMax= 4.56D+03 ExpMxC= 6.82D+02 IAcc=3 IRadAn=         5 AccDes= 0.00D+00
 HarFok:  IExCor=1614 AccDes= 0.00D+00 IRadAn=         5 IDoV=1
 ScaDFX=  1.000000  1.000000  1.000000  1.000000
 Harris En= -76.6781276489755    
 <S**2> of initial guess= 1.0000
 Leave Link  401 at Mon Mar 30 15:34:59 2009, MaxMem=    6291456 cpu:       2.2
 (Enter /opt//g03/l502.exe)
 UHF open shell SCF:
 Requested convergence on RMS density matrix=1.00D-08 within 128 cycles.
 Requested convergence on MAX density matrix=1.00D-06.
 Requested convergence on             energy=1.00D-06.
 No special actions if energy rises.
 Using DIIS extrapolation, IDIIS=  1040.
 Two-electron integral symmetry not used.
       161381 words used for storage of precomputed grid.
 IEnd=    199517 IEndB=    199517 NGot=   6291456 MDV=   6114432
 LenX=   6114432
 Fock matrices will be formed incrementally for  20 cycles.

 Cycle   1  Pass 1  IDiag  1:
 Symmetry not used in FoFDir.
 MinBra= 0 MaxBra= 2 Meth= 1.
 IRaf=       0 NMat=   1 IRICut=       1 DoRegI=T DoRafI=F ISym2E= 0 JSym2E=0.
 E= -78.9326259035358    
 DIIS: error= 8.79D-02 at cycle   1 NSaved=   1.
 NSaved= 1 IEnMin= 1 EnMin= -78.9326259035358     IErMin= 1 ErrMin= 8.79D-02
 ErrMax= 8.79D-02 EMaxC= 1.00D-01 BMatC= 5.51D-01 BMatP= 5.51D-01
 IDIUse=3 WtCom= 1.21D-01 WtEn= 8.79D-01
 Coeff-Com:  0.100D+01
 Coeff-En:   0.100D+01
 Coeff:      0.100D+01
 Gap=     0.042 Goal=   None    Shift=    0.000
 Gap=     0.071 Goal=   None    Shift=    0.000
 GapD=    0.042 DampG=0.250 DampE=0.500 DampFc=0.2500 IDamp=-1.
 Damping current iteration by 2.50D-01
 RMSDP=6.09D-02 MaxDP=4.93D+00              OVMax= 6.06D-01

 Cycle   2  Pass 1  IDiag  1:
 RMSU=  4.07D-03    CP:  7.77D-01
 E= -78.9748040423346     Delta-E=       -0.042178138799 Rises=F Damp=T
 DIIS: error= 6.52D-02 at cycle   2 NSaved=   2.
 NSaved= 2 IEnMin= 2 EnMin= -78.9748040423346     IErMin= 2 ErrMin= 6.52D-02
 ErrMax= 6.52D-02 EMaxC= 1.00D-01 BMatC= 3.00D-01 BMatP= 5.51D-01
 IDIUse=3 WtCom= 3.48D-01 WtEn= 6.52D-01
 Coeff-Com: -0.253D+01 0.353D+01
 Coeff-En:   0.000D+00 0.100D+01
 Coeff:     -0.881D+00 0.188D+01
 Gap=     0.182 Goal=   None    Shift=    0.000
 Gap=     0.245 Goal=   None    Shift=    0.000
 RMSDP=4.72D-02 MaxDP=3.79D+00 DE=-4.22D-02 OVMax= 6.95D-02

 Cycle   3  Pass 1  IDiag  1:
 RMSU=  4.48D-03    CP:  8.47D-02  3.00D+00
 E= -79.1426366433720     Delta-E=       -0.167832601037 Rises=F Damp=F
 DIIS: error= 8.95D-03 at cycle   3 NSaved=   3.
 NSaved= 3 IEnMin= 3 EnMin= -79.1426366433720     IErMin= 3 ErrMin= 8.95D-03
 ErrMax= 8.95D-03 EMaxC= 1.00D-01 BMatC= 5.60D-03 BMatP= 3.00D-01
 IDIUse=3 WtCom= 9.11D-01 WtEn= 8.95D-02
 Coeff-Com:  0.260D+00-0.320D+00 0.106D+01
 Coeff-En:   0.000D+00 0.000D+00 0.100D+01
 Coeff:      0.237D+00-0.292D+00 0.105D+01
 Gap=     0.216 Goal=   None    Shift=    0.000
 Gap=     0.285 Goal=   None    Shift=    0.000
 RMSDP=2.28D-03 MaxDP=5.38D-02 DE=-1.68D-01 OVMax= 7.14D-02

 Cycle   4  Pass 1  IDiag  1:
 RMSU=  1.93D-03    CP:  6.78D-02  3.00D+00  1.10D+00
 E= -79.1476762083706     Delta-E=       -0.005039564999 Rises=F Damp=F
 DIIS: error= 2.74D-03 at cycle   4 NSaved=   4.
 NSaved= 4 IEnMin= 4 EnMin= -79.1476762083706     IErMin= 4 ErrMin= 2.74D-03
 ErrMax= 2.74D-03 EMaxC= 1.00D-01 BMatC= 9.25D-04 BMatP= 5.60D-03
 IDIUse=3 WtCom= 9.73D-01 WtEn= 2.74D-02
 Coeff-Com:  0.361D+00-0.486D+00 0.666D-01 0.106D+01
 Coeff-En:   0.000D+00 0.000D+00 0.000D+00 0.100D+01
 Coeff:      0.351D+00-0.472D+00 0.647D-01 0.106D+01
 Gap=     0.224 Goal=   None    Shift=    0.000
 Gap=     0.296 Goal=   None    Shift=    0.000
 RMSDP=4.53D-04 MaxDP=8.48D-03 DE=-5.04D-03 OVMax= 2.46D-02

 Cycle   5  Pass 1  IDiag  1:
 RMSU=  2.69D-04    CP:  6.60D-02  3.00D+00  1.12D+00  1.17D+00
 E= -79.1482526682866     Delta-E=       -0.000576459916 Rises=F Damp=F
 DIIS: error= 6.65D-04 at cycle   5 NSaved=   5.
 NSaved= 5 IEnMin= 5 EnMin= -79.1482526682866     IErMin= 5 ErrMin= 6.65D-04
 ErrMax= 6.65D-04 EMaxC= 1.00D-01 BMatC= 8.51D-05 BMatP= 9.25D-04
 IDIUse=3 WtCom= 9.93D-01 WtEn= 6.65D-03
 Coeff-Com: -0.182D-02 0.184D-03-0.833D-01 0.183D+00 0.902D+00
 Coeff-En:   0.000D+00 0.000D+00 0.000D+00 0.000D+00 0.100D+01
 Coeff:     -0.181D-02 0.182D-03-0.828D-01 0.182D+00 0.902D+00
 Gap=     0.225 Goal=   None    Shift=    0.000
 Gap=     0.296 Goal=   None    Shift=    0.000
 RMSDP=1.24D-04 MaxDP=1.64D-03 DE=-5.76D-04 OVMax= 4.62D-03

 Cycle   6  Pass 1  IDiag  1:
 RMSU=  1.16D-04    CP:  6.62D-02  3.00D+00  1.12D+00  1.16D+00  1.14D+00
 E= -79.1482909693888     Delta-E=       -0.000038301102 Rises=F Damp=F
 DIIS: error= 1.64D-04 at cycle   6 NSaved=   6.
 NSaved= 6 IEnMin= 6 EnMin= -79.1482909693888     IErMin= 6 ErrMin= 1.64D-04
 ErrMax= 1.64D-04 EMaxC= 1.00D-01 BMatC= 6.98D-06 BMatP= 8.51D-05
 IDIUse=3 WtCom= 9.98D-01 WtEn= 1.64D-03
 Coeff-Com: -0.334D-01 0.446D-01-0.150D-01-0.568D-01 0.147D+00 0.914D+00
 Coeff-En:   0.000D+00 0.000D+00 0.000D+00 0.000D+00 0.000D+00 0.100D+01
 Coeff:     -0.333D-01 0.445D-01-0.150D-01-0.567D-01 0.146D+00 0.914D+00
 Gap=     0.225 Goal=   None    Shift=    0.000
 Gap=     0.295 Goal=   None    Shift=    0.000
 RMSDP=5.74D-05 MaxDP=1.27D-03 DE=-3.83D-05 OVMax= 9.04D-04

 Cycle   7  Pass 1  IDiag  1:
 RMSU=  2.69D-05    CP:  6.64D-02  3.00D+00  1.12D+00  1.14D+00  1.23D+00
                    CP:  1.12D+00
 E= -79.1482936697761     Delta-E=       -0.000002700387 Rises=F Damp=F
 DIIS: error= 8.58D-05 at cycle   7 NSaved=   7.
 NSaved= 7 IEnMin= 7 EnMin= -79.1482936697761     IErMin= 7 ErrMin= 8.58D-05
 ErrMax= 8.58D-05 EMaxC= 1.00D-01 BMatC= 8.74D-07 BMatP= 6.98D-06
 IDIUse=1 WtCom= 1.00D+00 WtEn= 0.00D+00
 Coeff-Com: -0.537D-02 0.732D-02 0.264D-02-0.271D-01-0.261D-01 0.242D+00
 Coeff-Com:  0.807D+00
 Coeff:     -0.537D-02 0.732D-02 0.264D-02-0.271D-01-0.261D-01 0.242D+00
 Coeff:      0.807D+00
 Gap=     0.225 Goal=   None    Shift=    0.000
 Gap=     0.295 Goal=   None    Shift=    0.000
 RMSDP=1.56D-05 MaxDP=3.31D-04 DE=-2.70D-06 OVMax= 3.45D-04

 Cycle   8  Pass 1  IDiag  1:
 RMSU=  9.07D-06    CP:  6.63D-02  3.00D+00  1.12D+00  1.15D+00  1.23D+00
                    CP:  1.10D+00  7.42D-01
 E= -79.1482939437849     Delta-E=       -0.000000274009 Rises=F Damp=F
 DIIS: error= 3.59D-05 at cycle   8 NSaved=   8.
 NSaved= 8 IEnMin= 8 EnMin= -79.1482939437849     IErMin= 8 ErrMin= 3.59D-05
 ErrMax= 3.59D-05 EMaxC= 1.00D-01 BMatC= 1.83D-07 BMatP= 8.74D-07
 IDIUse=1 WtCom= 1.00D+00 WtEn= 0.00D+00
 Coeff-Com:  0.736D-03-0.892D-03 0.260D-02-0.766D-02-0.251D-01 0.195D-01
 Coeff-Com:  0.342D+00 0.669D+00
 Coeff:      0.736D-03-0.892D-03 0.260D-02-0.766D-02-0.251D-01 0.195D-01
 Coeff:      0.342D+00 0.669D+00
 Gap=     0.225 Goal=   None    Shift=    0.000
 Gap=     0.295 Goal=   None    Shift=    0.000
 RMSDP=5.61D-06 MaxDP=1.14D-04 DE=-2.74D-07 OVMax= 1.10D-04

 Cycle   9  Pass 1  IDiag  1:
 RMSU=  3.43D-06    CP:  6.63D-02  3.00D+00  1.12D+00  1.15D+00  1.22D+00
                    CP:  1.09D+00  7.20D-01  1.15D+00
 E= -79.1482939988744     Delta-E=       -0.000000055089 Rises=F Damp=F
 DIIS: error= 7.38D-06 at cycle   9 NSaved=   9.
 NSaved= 9 IEnMin= 9 EnMin= -79.1482939988744     IErMin= 9 ErrMin= 7.38D-06
 ErrMax= 7.38D-06 EMaxC= 1.00D-01 BMatC= 9.09D-09 BMatP= 1.83D-07
 IDIUse=1 WtCom= 1.00D+00 WtEn= 0.00D+00
 Coeff-Com:  0.498D-03-0.666D-03-0.287D-04 0.154D-02-0.925D-03-0.220D-01
 Coeff-Com: -0.430D-01 0.124D+00 0.940D+00
 Coeff:      0.498D-03-0.666D-03-0.287D-04 0.154D-02-0.925D-03-0.220D-01
 Coeff:     -0.430D-01 0.124D+00 0.940D+00
 Gap=     0.225 Goal=   None    Shift=    0.000
 Gap=     0.295 Goal=   None    Shift=    0.000
 RMSDP=1.02D-06 MaxDP=1.98D-05 DE=-5.51D-08 OVMax= 2.83D-05

 Cycle  10  Pass 1  IDiag  1:
 RMSU=  7.01D-07    CP:  6.63D-02  3.00D+00  1.12D+00  1.15D+00  1.22D+00
                    CP:  1.09D+00  7.18D-01  1.21D+00  1.01D+00
 E= -79.1482940025967     Delta-E=       -0.000000003722 Rises=F Damp=F
 DIIS: error= 1.66D-06 at cycle  10 NSaved=  10.
 NSaved=10 IEnMin=10 EnMin= -79.1482940025967     IErMin=10 ErrMin= 1.66D-06
 ErrMax= 1.66D-06 EMaxC= 1.00D-01 BMatC= 4.08D-10 BMatP= 9.09D-09
 IDIUse=1 WtCom= 1.00D+00 WtEn= 0.00D+00
 Coeff-Com: -0.120D-03 0.155D-03-0.179D-03 0.538D-03 0.125D-02-0.237D-02
 Coeff-Com: -0.232D-01-0.324D-01 0.427D-01 0.101D+01
 Coeff:     -0.120D-03 0.155D-03-0.179D-03 0.538D-03 0.125D-02-0.237D-02
 Coeff:     -0.232D-01-0.324D-01 0.427D-01 0.101D+01
 Gap=     0.225 Goal=   None    Shift=    0.000
 Gap=     0.295 Goal=   None    Shift=    0.000
 RMSDP=2.67D-07 MaxDP=3.32D-06 DE=-3.72D-09 OVMax= 9.30D-06

 Cycle  11  Pass 1  IDiag  1:
 RMSU=  2.08D-07    CP:  6.63D-02  3.00D+00  1.12D+00  1.15D+00  1.22D+00
                    CP:  1.09D+00  7.17D-01  1.22D+00  1.03D+00  1.08D+00
 E= -79.1482940028369     Delta-E=       -0.000000000240 Rises=F Damp=F
 DIIS: error= 4.03D-07 at cycle  11 NSaved=  11.
 NSaved=11 IEnMin=11 EnMin= -79.1482940028369     IErMin=11 ErrMin= 4.03D-07
 ErrMax= 4.03D-07 EMaxC= 1.00D-01 BMatC= 2.72D-11 BMatP= 4.08D-10
 IDIUse=1 WtCom= 1.00D+00 WtEn= 0.00D+00
 Coeff-Com: -0.477D-05 0.644D-05 0.124D-04-0.112D-03 0.954D-04 0.147D-02
 Coeff-Com:  0.385D-02-0.101D-01-0.667D-01-0.191D-01 0.109D+01
 Coeff:     -0.477D-05 0.644D-05 0.124D-04-0.112D-03 0.954D-04 0.147D-02
 Coeff:      0.385D-02-0.101D-01-0.667D-01-0.191D-01 0.109D+01
 Gap=     0.225 Goal=   None    Shift=    0.000
 Gap=     0.295 Goal=   None    Shift=    0.000
 RMSDP=8.91D-08 MaxDP=1.47D-06 DE=-2.40D-10 OVMax= 2.71D-06

 Cycle  12  Pass 1  IDiag  1:
 RMSU=  5.75D-08    CP:  6.63D-02  3.00D+00  1.12D+00  1.15D+00  1.22D+00
                    CP:  1.09D+00  7.18D-01  1.22D+00  1.03D+00  1.14D+00
                    CP:  1.05D+00
 E= -79.1482940028544     Delta-E=       -0.000000000018 Rises=F Damp=F
 DIIS: error= 1.16D-07 at cycle  12 NSaved=  12.
 NSaved=12 IEnMin=12 EnMin= -79.1482940028544     IErMin=12 ErrMin= 1.16D-07
 ErrMax= 1.16D-07 EMaxC= 1.00D-01 BMatC= 2.08D-12 BMatP= 2.72D-11
 IDIUse=1 WtCom= 1.00D+00 WtEn= 0.00D+00
 Coeff-Com:  0.180D-05-0.222D-05 0.876D-05-0.464D-04-0.975D-05 0.455D-03
 Coeff-Com:  0.175D-02-0.137D-02-0.171D-01-0.456D-01 0.254D+00 0.808D+00
 Coeff:      0.180D-05-0.222D-05 0.876D-05-0.464D-04-0.975D-05 0.455D-03
 Coeff:      0.175D-02-0.137D-02-0.171D-01-0.456D-01 0.254D+00 0.808D+00
 Gap=     0.225 Goal=   None    Shift=    0.000
 Gap=     0.295 Goal=   None    Shift=    0.000
 RMSDP=1.43D-08 MaxDP=1.94D-07 DE=-1.76D-11 OVMax= 4.18D-07

 Cycle  13  Pass 1  IDiag  1:
 RMSU=  1.32D-08    CP:  6.63D-02  3.00D+00  1.12D+00  1.15D+00  1.22D+00
                    CP:  1.09D+00  7.18D-01  1.22D+00  1.03D+00  1.14D+00
                    CP:  1.07D+00  1.03D+00
 E= -79.1482940028536     Delta-E=        0.000000000001 Rises=F Damp=F
 DIIS: error= 2.69D-08 at cycle  13 NSaved=  13.
 NSaved=13 IEnMin=12 EnMin= -79.1482940028544     IErMin=13 ErrMin= 2.69D-08
 ErrMax= 2.69D-08 EMaxC= 1.00D-01 BMatC= 1.34D-13 BMatP= 2.08D-12
 IDIUse=1 WtCom= 1.00D+00 WtEn= 0.00D+00
 Coeff-Com: -0.159D-05 0.215D-05-0.160D-05 0.660D-05-0.109D-04-0.100D-03
 Coeff-Com: -0.247D-03 0.101D-02 0.556D-02-0.160D-02-0.985D-01 0.501D-01
 Coeff-Com:  0.104D+01
 Coeff:     -0.159D-05 0.215D-05-0.160D-05 0.660D-05-0.109D-04-0.100D-03
 Coeff:     -0.247D-03 0.101D-02 0.556D-02-0.160D-02-0.985D-01 0.501D-01
 Coeff:      0.104D+01
 Gap=     0.225 Goal=   None    Shift=    0.000
 Gap=     0.295 Goal=   None    Shift=    0.000
 RMSDP=8.64D-09 MaxDP=1.84D-07 DE= 8.81D-13 OVMax= 1.54D-07

 SCF Done:  E(UB97-1+HF-B97-1) =  -79.1482940029     A.U. after   13 cycles
             Convg  =    0.8637D-08             -V/T =  2.0044
             S**2   =   0.7541
 KE= 7.880393691241D+01 PE=-2.568152680345D+02 EE= 6.193148475772D+01
 Annihilation of the first spin contaminant:
 S**2 before annihilation     0.7541,   after     0.7500
 Leave Link  502 at Mon Mar 30 15:35:25 2009, MaxMem=    6291456 cpu:      51.7
 (Enter /opt//g03/l601.exe)
 Copying SCF densities to generalized density rwf, ISCF=1 IROHF=0.

 **********************************************************************

            Population analysis using the SCF density.

 **********************************************************************

 Alpha  occ. eigenvalues --  -10.18477 -10.17791  -0.76374  -0.61443  -0.45487
 Alpha  occ. eigenvalues --   -0.41657  -0.39621  -0.36057  -0.20305
 Alpha virt. eigenvalues --    0.02188   0.03895   0.05611   0.06251   0.09001
 Alpha virt. eigenvalues --    0.09252   0.10148   0.14335   0.15180   0.15482
 Alpha virt. eigenvalues --    0.19557   0.22622   0.23828   0.26536   0.40474
 Alpha virt. eigenvalues --    0.43472   0.44210   0.50057   0.51071   0.56023
 Alpha virt. eigenvalues --    0.59680   0.60502   0.62575   0.65790   0.67949
 Alpha virt. eigenvalues --    0.76928   0.88273   0.96745   1.05257   1.17233
 Alpha virt. eigenvalues --    1.37523   1.42519   1.46098   1.47772   1.52346
 Alpha virt. eigenvalues --    1.55567   1.58486   1.63930   1.70070   1.79516
 Alpha virt. eigenvalues --    1.83984   1.93445   1.98971   2.09202   2.16708
 Alpha virt. eigenvalues --    2.24964   2.27812   2.40514   2.44553   2.48354
 Alpha virt. eigenvalues --    2.51660   2.53894   2.57024   2.63726   2.67060
 Alpha virt. eigenvalues --    2.80272   2.83236   2.83554   3.20682   3.74240
 Alpha virt. eigenvalues --    3.78390   3.83169   4.16594  23.91027  23.99551
  Beta  occ. eigenvalues --  -10.17856 -10.17402  -0.74630  -0.58939  -0.44742
  Beta  occ. eigenvalues --   -0.40186  -0.38667  -0.35523
  Beta virt. eigenvalues --   -0.05979   0.02708   0.04992   0.06146   0.07528
  Beta virt. eigenvalues --    0.09497   0.09954   0.13238   0.15653   0.15749
  Beta virt. eigenvalues --    0.16668   0.21351   0.23359   0.24357   0.27468
  Beta virt. eigenvalues --    0.40618   0.44053   0.44661   0.49986   0.52765
  Beta virt. eigenvalues --    0.59688   0.60316   0.60495   0.63585   0.66804
  Beta virt. eigenvalues --    0.68818   0.78092   0.88343   0.98284   1.08835
  Beta virt. eigenvalues --    1.17239   1.39758   1.42734   1.46573   1.49080
  Beta virt. eigenvalues --    1.52434   1.56247   1.61771   1.64169   1.70971
  Beta virt. eigenvalues --    1.81235   1.85321   1.95812   2.01330   2.09572
  Beta virt. eigenvalues --    2.17387   2.25350   2.29093   2.40941   2.44649
  Beta virt. eigenvalues --    2.49422   2.52294   2.54186   2.57558   2.64687
  Beta virt. eigenvalues --    2.67456   2.81826   2.84052   2.88716   3.21385
  Beta virt. eigenvalues --    3.76572   3.78876   3.83275   4.18167  23.91765
  Beta virt. eigenvalues --   23.99515
     Alpha Molecular Orbital Coefficients
                           4         5         6         7         8
                           O         O         O         O         O
     EIGENVALUES --    -0.61443  -0.45487  -0.41657  -0.39621  -0.36057
   1 1   C  1S          0.06258   0.00000   0.00181  -0.00717   0.00000
   2        2S          0.09806   0.00000   0.00288  -0.01145   0.00000
   3        2PX        -0.05529   0.00367   0.12290  -0.13667   0.00426
   4        2PY        -0.01462   0.11904  -0.06786  -0.04938   0.13795
   5        2PZ         0.03339   0.05819   0.13104   0.10963   0.06744
   6        3S         -0.25885   0.00000  -0.00898   0.03867   0.00000
   7        3PX        -0.08186   0.00548   0.18238  -0.20115   0.00618
   8        3PY        -0.02171   0.17752  -0.10062  -0.07278   0.20018
   9        3PZ         0.04957   0.08679   0.19431   0.16155   0.09786
  10        4S         -0.20591   0.00000  -0.00178   0.00461   0.00000
  11        4PX        -0.03216   0.00331   0.11777  -0.12731   0.00475
  12        4PY        -0.00896   0.10721  -0.06615  -0.04648   0.15386
  13        4PZ         0.02035   0.05241   0.12788   0.10311   0.07522
  14        5S         -0.05280   0.00000  -0.01277  -0.06128   0.00000
  15        5PX         0.00762   0.00008   0.01084   0.00758   0.00054
  16        5PY         0.00201   0.00266  -0.00397   0.00163   0.01751
  17        5PZ        -0.00460   0.00130   0.00743  -0.00380   0.00856
  18        6D 0       -0.00108  -0.00432   0.00104  -0.00179  -0.01806
  19        6D+1       -0.00919  -0.00406   0.01124  -0.01186   0.00410
  20        6D-1       -0.00266  -0.00376  -0.00884  -0.00517  -0.01638
  21        6D+2        0.00672  -0.00299   0.01105   0.01205  -0.00983
  22        6D-2        0.00404  -0.00791  -0.00632   0.00498   0.01005
  23 2   H  1S         -0.07176  -0.00001   0.16247  -0.03271  -0.00001
  24        2S         -0.09050  -0.00001   0.23132  -0.04802  -0.00001
  25        3S         -0.00662   0.00000   0.08709  -0.01348   0.00000
  26        4PX         0.00723   0.00023  -0.01214  -0.00466   0.00029
  27        4PY        -0.00418   0.00736   0.00240  -0.00455   0.00927
  28        4PZ         0.00810   0.00360  -0.00414   0.00960   0.00453
  29 3   H  1S         -0.07030   0.08726  -0.07113  -0.06181   0.12064
  30        2S         -0.08674   0.11812  -0.10076  -0.08983   0.17689
  31        3S         -0.00370   0.03554  -0.03851  -0.03359   0.08873
  32        4PX        -0.00210  -0.00113   0.00878  -0.00752  -0.00045
  33        4PY         0.01110  -0.00692   0.00647   0.00610  -0.00704
  34        4PZ        -0.00015   0.00634   0.00653   0.00508   0.00692
  35 4   H  1S         -0.07030  -0.08725  -0.07114  -0.06180  -0.12063
  36        2S         -0.08674  -0.11811  -0.10077  -0.08982  -0.17688
  37        3S         -0.00370  -0.03554  -0.03852  -0.03359  -0.08873
  38        4PX        -0.00264   0.00093   0.00828  -0.00794   0.00027
  39        4PY        -0.00658   0.00070  -0.00956  -0.00737   0.00112
  40        4PZ        -0.00879  -0.00938  -0.00131  -0.00151  -0.00982
  41 5   C  1S         -0.07947   0.00000   0.00195  -0.00907   0.00000
  42        2S         -0.12543   0.00000   0.00319  -0.01472   0.00000
  43        2PX        -0.04738   0.00444   0.02503   0.16046  -0.00371
  44        2PY        -0.01497   0.14388  -0.03395   0.04192  -0.12029
  45        2PZ         0.03361   0.07034   0.06786  -0.09588  -0.05881
  46        3S          0.33834   0.00000  -0.01066   0.04909   0.00000
  47        3PX        -0.07091   0.00649   0.04610   0.23800  -0.00536
  48        3PY        -0.02177   0.21025  -0.05559   0.06104  -0.17386
  49        3PZ         0.04899   0.10278   0.11080  -0.13987  -0.08500
  50        4S          0.26696   0.00000  -0.00177   0.01097   0.00000
  51        4PX        -0.02547   0.00403   0.02708   0.13969  -0.00405
  52        4PY        -0.00827   0.13054  -0.03444   0.03577  -0.13137
  53        4PZ         0.01852   0.06382   0.06873  -0.08198  -0.06422
  54        5S          0.04966   0.00000   0.02000   0.03960   0.00000
  55        5PX         0.00494   0.00034   0.00290   0.01450  -0.00052
  56        5PY         0.00098   0.01113   0.00074   0.00403  -0.01687
  57        5PZ        -0.00231   0.00544  -0.00169  -0.00916  -0.00824
  58        6D 0        0.00038   0.00170  -0.01021  -0.00084  -0.01408
  59        6D+1        0.00593  -0.00059   0.00664  -0.00646   0.00981
  60        6D-1        0.00392   0.00155   0.00612  -0.00813  -0.01297
  61        6D+2       -0.00720   0.00090   0.00763   0.01459  -0.00682
  62        6D-2       -0.00240  -0.00137  -0.00363   0.00213   0.02135
  63 6   H  1S          0.08968   0.10491   0.01003  -0.07326  -0.10717
  64        2S          0.10839   0.14018   0.01298  -0.10485  -0.15451
  65        3S          0.00527   0.03272  -0.00082  -0.04246  -0.07148
  66        4PX         0.00334   0.00728   0.00226   0.00491  -0.00520
  67        4PY        -0.01053  -0.00343  -0.00343   0.00957   0.00106
  68        4PZ        -0.00847  -0.00834   0.00337   0.00218   0.00491
  69 7   H  1S          0.08968  -0.10491   0.01003  -0.07326   0.10717
  70        2S          0.10839  -0.14018   0.01298  -0.10486   0.15451
  71        3S          0.00527  -0.03272  -0.00082  -0.04246   0.07147
  72        4PX         0.00407  -0.00764   0.00234   0.00438   0.00537
  73        4PY         0.01297  -0.00831  -0.00067  -0.00783   0.00427
  74        4PZ         0.00301   0.00260   0.00472  -0.00632  -0.00231
                           9        10        11        12        13
                           O         V         V         V         V
     EIGENVALUES --    -0.20305   0.02188   0.03895   0.05611   0.06251
   1 1   C  1S         -0.00166   0.03216  -0.02454   0.00000  -0.00091
   2        2S         -0.00267   0.05340  -0.04049   0.00000  -0.00153
   3        2PX        -0.03371  -0.03970  -0.00082  -0.00188  -0.04128
   4        2PY         0.01954  -0.00900  -0.00091  -0.06091   0.02940
   5        2PZ        -0.03783   0.02091   0.00191  -0.02978  -0.05753
   6        3S          0.00759  -0.16670   0.12691   0.00000   0.00435
   7        3PX        -0.04769  -0.07529  -0.00139  -0.00313  -0.06719
   8        3PY         0.02738  -0.01588  -0.00030  -0.10126   0.04868
   9        3PZ        -0.05300   0.03724   0.00070  -0.04951  -0.09534
  10        4S          0.01146  -0.40090   0.26422   0.00000   0.02198
  11        4PX        -0.04513  -0.07449   0.01323  -0.00595  -0.13937
  12        4PY         0.02744  -0.02335  -0.00383  -0.19264   0.09426
  13        4PZ        -0.05328   0.05247   0.00698  -0.09418  -0.18401
  14        5S          0.02416   3.40418   4.52508  -0.00009  -0.36446
  15        5PX        -0.03356  -0.15997  -1.68583   0.01694   0.64034
  16        5PY         0.01626  -0.07658  -0.44872   0.54775  -0.38422
  17        5PZ        -0.03114   0.16673   1.02431   0.26778   0.74549
  18        6D 0        0.01964   0.00007   0.00138   0.00467  -0.00374
  19        6D+1       -0.01688  -0.00011   0.01131   0.00311  -0.00493
  20        6D-1       -0.00443   0.00002   0.00363   0.00411   0.00862
  21        6D+2       -0.02575  -0.00014  -0.00891   0.00307  -0.00654
  22        6D-2        0.00979   0.00006  -0.00493   0.00592   0.00295
  23 2   H  1S         -0.08440  -0.01054   0.00541   0.00000  -0.01877
  24        2S         -0.14933   0.08975  -0.01827   0.00000   0.08122
  25        3S         -0.15194  -0.43537   0.00825   0.00001  -0.28336
  26        4PX        -0.00090   0.00804  -0.01017   0.00012   0.00621
  27        4PY        -0.00137  -0.00402  -0.00084   0.00376  -0.00175
  28        4PZ         0.00287   0.00772   0.00236   0.00184   0.00319
  29 3   H  1S          0.04048  -0.00938   0.00511  -0.01223   0.01034
  30        2S          0.07023   0.08208  -0.02248   0.06342  -0.04610
  31        3S          0.06791  -0.36012   0.04816  -0.18459   0.16194
  32        4PX        -0.00115  -0.00176  -0.00726   0.00140   0.00203
  33        4PY        -0.00108   0.01061  -0.00512   0.00571  -0.00278
  34        4PZ        -0.00346  -0.00063   0.00475   0.00087   0.00462
  35 4   H  1S          0.04049  -0.00938   0.00511   0.01223   0.01034
  36        2S          0.07024   0.08208  -0.02249  -0.06341  -0.04610
  37        3S          0.06792  -0.36012   0.04815   0.18459   0.16195
  38        4PX        -0.00101  -0.00227  -0.00711  -0.00109   0.00205
  39        4PY         0.00345  -0.00591  -0.00025   0.00425  -0.00203
  40        4PZ        -0.00125  -0.00871   0.00713   0.00400   0.00498
  41 5   C  1S          0.00437   0.01924   0.03314   0.00000  -0.00065
  42        2S          0.00723   0.03180   0.05505   0.00000  -0.00105
  43        2PX         0.15092   0.03259   0.01016  -0.00202  -0.03589
  44        2PY        -0.09472   0.00979   0.00472  -0.06531   0.02296
  45        2PZ         0.18423  -0.02209  -0.01029  -0.03193  -0.04470
  46        3S         -0.02155  -0.09012  -0.17130   0.00000   0.00325
  47        3PX         0.24227   0.05507   0.01622  -0.00345  -0.03683
  48        3PY        -0.15228   0.01768   0.00851  -0.11172   0.02456
  49        3PZ         0.29620  -0.03965  -0.01843  -0.05462  -0.04790
  50        4S         -0.04459  -0.36844  -0.43733   0.00000   0.00709
  51        4PX         0.27103   0.08454   0.05743  -0.00641  -0.14084
  52        4PY        -0.16841   0.02497   0.02207  -0.20775   0.08539
  53        4PZ         0.32737  -0.05643  -0.04879  -0.10157  -0.16576
  54        5S         -0.03034  -0.98973  -4.22193   0.00008   0.28607
  55        5PX         0.06536  -0.60426  -1.74991   0.02351   0.28669
  56        5PY        -0.04491  -0.17000  -0.49425   0.76086  -0.09542
  57        5PZ         0.08774   0.38587   1.12148   0.37195   0.17706
  58        6D 0        0.00293   0.00383  -0.00019  -0.00230   0.00592
  59        6D+1       -0.00327   0.01042  -0.00833   0.00085  -0.00350
  60        6D-1       -0.00051  -0.00499  -0.00643  -0.00209  -0.00294
  61        6D+2       -0.00400   0.00032   0.01098  -0.00121  -0.00540
  62        6D-2        0.00184  -0.00520   0.00330   0.00196   0.00200
  63 6   H  1S          0.00600  -0.01446  -0.00454  -0.01300   0.00065
  64        2S          0.01151   0.06223   0.07963   0.08914   0.00724
  65        3S          0.01235  -0.21729  -0.11564  -0.24501  -0.01325
  66        4PX         0.01336   0.00162  -0.00791  -0.00128   0.00230
  67        4PY        -0.00835   0.00463   0.00076   0.00444  -0.00095
  68        4PZ         0.01517   0.00176   0.00661   0.00386   0.00277
  69 7   H  1S          0.00600  -0.01446  -0.00454   0.01300   0.00065
  70        2S          0.01151   0.06223   0.07963  -0.08914   0.00725
  71        3S          0.01235  -0.21730  -0.11565   0.24502  -0.01325
  72        4PX         0.01339   0.00134  -0.00809   0.00159   0.00228
  73        4PY        -0.00751  -0.00431  -0.00528   0.00570  -0.00172
  74        4PZ         0.01559  -0.00261   0.00365   0.00110   0.00239
                          14
                           V
     EIGENVALUES --     0.09001
   1 1   C  1S         -0.01469
   2        2S         -0.02351
   3        2PX        -0.01945
   4        2PY        -0.00251
   5        2PZ         0.00637
   6        3S          0.05577
   7        3PX        -0.00890
   8        3PY        -0.00191
   9        3PZ         0.00446
  10        4S          0.40066
  11        4PX        -0.04562
  12        4PY         0.02324
  13        4PZ        -0.04465
  14        5S         -2.81975
  15        5PX         1.72463
  16        5PY         0.54949
  17        5PZ        -1.23283
  18        6D 0       -0.00168
  19        6D+1       -0.01415
  20        6D-1       -0.00587
  21        6D+2        0.01313
  22        6D-2        0.00602
  23 2   H  1S         -0.00987
  24        2S         -0.05796
  25        3S          0.20902
  26        4PX         0.00521
  27        4PY         0.00372
  28        4PZ        -0.00793
  29 3   H  1S         -0.01473
  30        2S         -0.06945
  31        3S          0.00759
  32        4PX         0.00948
  33        4PY        -0.00345
  34        4PZ        -0.00614
  35 4   H  1S         -0.01473
  36        2S         -0.06944
  37        3S          0.00760
  38        4PX         0.00979
  39        4PY         0.00649
  40        4PZ        -0.00128
  41 5   C  1S         -0.01229
  42        2S         -0.01913
  43        2PX         0.02841
  44        2PY         0.00868
  45        2PZ        -0.01955
  46        3S          0.03321
  47        3PX         0.03275
  48        3PY         0.00898
  49        3PZ        -0.02043
  50        4S          0.50619
  51        4PX         0.05925
  52        4PY         0.01486
  53        4PZ        -0.03413
  54        5S          2.95280
  55        5PX        -0.42480
  56        5PY        -0.19343
  57        5PZ         0.42246
  58        6D 0       -0.00115
  59        6D+1       -0.01371
  60        6D-1       -0.00525
  61        6D+2        0.01120
  62        6D-2        0.00594
  63 6   H  1S         -0.01268
  64        2S         -0.02903
  65        3S         -0.18935
  66        4PX        -0.00926
  67        4PY        -0.00481
  68        4PZ         0.00540
  69 7   H  1S         -0.01268
  70        2S         -0.02903
  71        3S         -0.18935
  72        4PX        -0.00914
  73        4PY        -0.00085
  74        4PZ         0.00734
     Beta Molecular Orbital Coefficients.
                           4         5         6         7         8
                           O         O         O         O         O
     EIGENVALUES --    -0.58939  -0.44742  -0.40186  -0.38667  -0.35523
   1 1   C  1S          0.05145   0.00000   0.00022   0.00882   0.00000
   2        2S          0.08088   0.00000   0.00033   0.01437   0.00000
   3        2PX        -0.06029   0.00392   0.11886   0.14820   0.00407
   4        2PY        -0.01691   0.12706  -0.07359   0.04537   0.13206
   5        2PZ         0.03840   0.06212   0.14303  -0.10214   0.06456
   6        3S         -0.21482   0.00000  -0.00159  -0.04969   0.00000
   7        3PX        -0.08677   0.00587   0.17744   0.22677   0.00589
   8        3PY        -0.02468   0.19017  -0.10928   0.06851   0.19108
   9        3PZ         0.05596   0.09297   0.21232  -0.15444   0.09342
  10        4S         -0.16901   0.00000   0.00705  -0.00659   0.00000
  11        4PX        -0.04113   0.00375   0.12018   0.13958   0.00446
  12        4PY        -0.01234   0.12145  -0.07575   0.04286   0.14473
  13        4PZ         0.02784   0.05937   0.14737  -0.09648   0.07076
  14        5S         -0.02795   0.00000  -0.03156   0.04350   0.00000
  15        5PX         0.00344   0.00008   0.01451  -0.00303   0.00051
  16        5PY         0.00063   0.00275  -0.00299  -0.00006   0.01646
  17        5PZ        -0.00151   0.00134   0.00519   0.00031   0.00804
  18        6D 0       -0.00075  -0.00504   0.00085   0.00238  -0.01742
  19        6D+1       -0.00812  -0.00414   0.01093   0.01502   0.00438
  20        6D-1       -0.00279  -0.00441  -0.00937   0.00492  -0.01581
  21        6D+2        0.00628  -0.00341   0.01223  -0.01293  -0.00942
  22        6D-2        0.00354  -0.00798  -0.00625  -0.00648   0.01057
  23 2   H  1S         -0.06109  -0.00001   0.16274   0.04205  -0.00001
  24        2S         -0.07853  -0.00001   0.22703   0.05578  -0.00001
  25        3S         -0.00801   0.00000   0.09625   0.02508   0.00000
  26        4PX         0.00671   0.00023  -0.01379   0.00498   0.00027
  27        4PY        -0.00382   0.00743   0.00194   0.00421   0.00877
  28        4PZ         0.00739   0.00364  -0.00310  -0.00893   0.00429
  29 3   H  1S         -0.06399   0.09311  -0.07691   0.05637   0.11449
  30        2S         -0.08029   0.12416  -0.10912   0.07844   0.16949
  31        3S         -0.00514   0.03997  -0.04458   0.03374   0.08773
  32        4PX        -0.00259  -0.00116   0.00869   0.00858  -0.00039
  33        4PY         0.01004  -0.00719   0.00696  -0.00448  -0.00691
  34        4PZ         0.00018   0.00668   0.00691  -0.00467   0.00686
  35 4   H  1S         -0.06399  -0.09310  -0.07692   0.05637  -0.11449
  36        2S         -0.08029  -0.12415  -0.10914   0.07843  -0.16949
  37        3S         -0.00514  -0.03997  -0.04459   0.03373  -0.08773
  38        4PX        -0.00310   0.00097   0.00816   0.00891   0.00021
  39        4PY        -0.00617   0.00080  -0.01015   0.00600   0.00115
  40        4PZ        -0.00774  -0.00980  -0.00146   0.00045  -0.00967
  41 5   C  1S         -0.08437   0.00000   0.00171   0.00907   0.00000
  42        2S         -0.13170   0.00000   0.00271   0.01458   0.00000
  43        2PX        -0.04150   0.00412   0.01889  -0.15247  -0.00382
  44        2PY        -0.01471   0.13359  -0.01928  -0.04363  -0.12388
  45        2PZ         0.03270   0.06531   0.03824   0.09886  -0.06056
  46        3S          0.34654   0.00000  -0.00822  -0.04779   0.00000
  47        3PX        -0.05573   0.00567   0.02954  -0.21514  -0.00522
  48        3PY        -0.02036   0.18370  -0.02864  -0.06119  -0.16941
  49        3PZ         0.04515   0.08981   0.05673   0.13874  -0.08282
  50        4S          0.25554   0.00000  -0.00199  -0.01839   0.00000
  51        4PX        -0.02556   0.00353   0.01624  -0.13203  -0.00391
  52        4PY        -0.00877   0.11427  -0.01941  -0.03769  -0.12684
  53        4PZ         0.01956   0.05586   0.03869   0.08543  -0.06201
  54        5S          0.02216   0.00000   0.03802  -0.02614   0.00000
  55        5PX        -0.00024   0.00034   0.00715  -0.01181  -0.00051
  56        5PY        -0.00036   0.01102   0.00174  -0.00393  -0.01643
  57        5PZ         0.00075   0.00539  -0.00401   0.00878  -0.00803
  58        6D 0       -0.00489   0.00020  -0.00948   0.00137  -0.01321
  59        6D+1       -0.00972   0.00108   0.00665   0.00706   0.00856
  60        6D-1        0.01208   0.00015   0.00460   0.00649  -0.01215
  61        6D+2       -0.00955   0.00025   0.00873  -0.01300  -0.00649
  62        6D-2        0.00553   0.00218  -0.00372  -0.00255   0.01872
  63 6   H  1S          0.10076   0.10311   0.00327   0.07648  -0.11705
  64        2S          0.12611   0.14402   0.00360   0.11207  -0.17453
  65        3S          0.01947   0.03721  -0.00582   0.04880  -0.08510
  66        4PX         0.00367   0.00820   0.00175  -0.00464  -0.00656
  67        4PY        -0.01113  -0.00475  -0.00223  -0.01116   0.00244
  68        4PZ        -0.00927  -0.01062   0.00246  -0.00306   0.00755
  69 7   H  1S          0.10076  -0.10311   0.00326   0.07649   0.11705
  70        2S          0.12611  -0.14402   0.00359   0.11207   0.17452
  71        3S          0.01948  -0.03721  -0.00582   0.04880   0.08510
  72        4PX         0.00445  -0.00868   0.00180  -0.00400   0.00686
  73        4PY         0.01396  -0.01087  -0.00066   0.00949   0.00712
  74        4PZ         0.00299   0.00298   0.00323   0.00703  -0.00288
                           9        10        11        12        13
                           V         V         V         V         V
     EIGENVALUES --    -0.05979   0.02708   0.04992   0.06146   0.07528
   1 1   C  1S         -0.00128   0.03730  -0.01646   0.00000   0.00013
   2        2S         -0.00209   0.06174  -0.02726   0.00000   0.00020
   3        2PX        -0.01967  -0.04048  -0.00766  -0.00208  -0.04723
   4        2PY         0.01059  -0.00940  -0.00033  -0.06728   0.03572
   5        2PZ        -0.02041   0.02178   0.00117  -0.03289  -0.07008
   6        3S          0.00552  -0.18777   0.08869   0.00000  -0.00076
   7        3PX        -0.02770  -0.07679  -0.01671  -0.00347  -0.07971
   8        3PY         0.01336  -0.01629  -0.00112  -0.11233   0.05885
   9        3PZ        -0.02559   0.03818   0.00335  -0.05492  -0.11534
  10        4S          0.01259  -0.52599   0.15149   0.00000   0.00661
  11        4PX        -0.01846  -0.08018  -0.01219  -0.00654  -0.16536
  12        4PY         0.01184  -0.02389   0.00088  -0.21166   0.12546
  13        4PZ        -0.02305   0.05393  -0.00102  -0.10348  -0.24617
  14        5S         -0.03272   3.35687   6.61439   0.00005  -0.92609
  15        5PX        -0.05064  -0.10772  -2.09779   0.02331   1.01475
  16        5PY         0.03849  -0.05149  -0.58062   0.75486  -0.53479
  17        5PZ        -0.07552   0.11212   1.32011   0.36907   1.02978
  18        6D 0        0.02173  -0.00015   0.00110   0.00456  -0.00593
  19        6D+1       -0.01794  -0.00201   0.01122   0.00349  -0.00389
  20        6D-1       -0.00581  -0.00039   0.00377   0.00399   0.00976
  21        6D+2       -0.02713   0.00103  -0.00863   0.00305  -0.00460
  22        6D-2        0.01037   0.00091  -0.00490   0.00671   0.00234
  23 2   H  1S         -0.07088  -0.01036   0.00375   0.00000  -0.01810
  24        2S         -0.13915   0.09722   0.01540   0.00000   0.08987
  25        3S         -0.22568  -0.40129  -0.10115   0.00000  -0.24607
  26        4PX        -0.00384   0.00799  -0.00881   0.00012   0.00927
  27        4PY        -0.00159  -0.00364  -0.00177   0.00403  -0.00180
  28        4PZ         0.00349   0.00694   0.00418   0.00197   0.00310
  29 3   H  1S          0.03477  -0.00944   0.00435  -0.01324   0.01030
  30        2S          0.06787   0.08826   0.00469   0.06468  -0.04800
  31        3S          0.09810  -0.34313  -0.07331  -0.19055   0.14104
  32        4PX         0.00110  -0.00089  -0.00779   0.00189   0.00137
  33        4PY         0.00011   0.01131  -0.00343   0.00664  -0.00400
  34        4PZ        -0.00263  -0.00098   0.00531   0.00061   0.00568
  35 4   H  1S          0.03477  -0.00944   0.00435   0.01324   0.01030
  36        2S          0.06788   0.08826   0.00469  -0.06468  -0.04800
  37        3S          0.09812  -0.34313  -0.07332   0.19055   0.14105
  38        4PX         0.00116  -0.00143  -0.00773  -0.00155   0.00143
  39        4PY         0.00196  -0.00612  -0.00169   0.00464  -0.00209
  40        4PZ        -0.00173  -0.00950   0.00616   0.00491   0.00662
  41 5   C  1S          0.00432   0.01378   0.03811   0.00000  -0.00264
  42        2S          0.00676   0.02233   0.06208   0.00000  -0.00427
  43        2PX         0.12960   0.02894   0.01399  -0.00193  -0.03093
  44        2PY        -0.08077   0.00969   0.00830  -0.06266   0.01711
  45        2PZ         0.15704  -0.02165  -0.01786  -0.03063  -0.03304
  46        3S         -0.01576  -0.06004  -0.18237   0.00000   0.01290
  47        3PX         0.17891   0.04358   0.01946  -0.00302  -0.03779
  48        3PY        -0.11098   0.01433   0.01159  -0.09791   0.02274
  49        3PZ         0.21571  -0.03206  -0.02493  -0.04787  -0.04414
  50        4S         -0.04978  -0.30310  -0.57299  -0.00001   0.04261
  51        4PX         0.31250   0.08226   0.06336  -0.00645  -0.09350
  52        4PY        -0.19193   0.02986   0.03393  -0.20913   0.04571
  53        4PZ         0.37287  -0.06628  -0.07341  -0.10225  -0.08758
  54        5S          0.03346  -1.18612  -5.97647  -0.00005   0.84839
  55        5PX         0.19000  -0.41500  -2.06525   0.01558   0.14914
  56        5PY        -0.11154  -0.12975  -0.59304   0.50536   0.18728
  57        5PZ         0.21615   0.29158   1.34344   0.24707  -0.39248
  58        6D 0        0.00154   0.00275   0.00220  -0.00066   0.00483
  59        6D+1        0.00164   0.01087  -0.00007  -0.00060  -0.00240
  60        6D-1       -0.00152  -0.00154  -0.00784  -0.00057  -0.00198
  61        6D+2       -0.00043  -0.00320   0.00839  -0.00045  -0.00509
  62        6D-2       -0.00080  -0.00515  -0.00060  -0.00116   0.00146
  63 6   H  1S          0.00452  -0.01228  -0.00732  -0.01277   0.00053
  64        2S          0.01335   0.01670   0.03883   0.05991   0.00732
  65        3S          0.00348  -0.07409   0.02783  -0.12755  -0.04677
  66        4PX         0.01638   0.00205  -0.00853  -0.00211   0.00067
  67        4PY        -0.01060   0.00671   0.00455   0.00599   0.00034
  68        4PZ         0.01753   0.00266   0.00940   0.00559  -0.00134
  69 7   H  1S          0.00452  -0.01228  -0.00732   0.01277   0.00053
  70        2S          0.01335   0.01670   0.03883  -0.05991   0.00732
  71        3S          0.00348  -0.07411   0.02782   0.12757  -0.04675
  72        4PX         0.01646   0.00164  -0.00897   0.00254   0.00068
  73        4PY        -0.00814  -0.00631  -0.00977   0.00798   0.00082
  74        4PZ         0.01873  -0.00371   0.00240   0.00124  -0.00111
                          14
                           V
     EIGENVALUES --     0.09497
   1 1   C  1S         -0.01615
   2        2S         -0.02592
   3        2PX        -0.02676
   4        2PY        -0.00189
   5        2PZ         0.00555
   6        3S          0.06073
   7        3PX        -0.02873
   8        3PY        -0.00234
   9        3PZ         0.00661
  10        4S          0.48686
  11        4PX        -0.05995
  12        4PY         0.02433
  13        4PZ        -0.04598
  14        5S         -2.20718
  15        5PX         1.65202
  16        5PY         0.47113
  17        5PZ        -1.06817
  18        6D 0       -0.00230
  19        6D+1       -0.01445
  20        6D-1       -0.00510
  21        6D+2        0.01303
  22        6D-2        0.00619
  23 2   H  1S         -0.01196
  24        2S         -0.05420
  25        3S          0.12588
  26        4PX         0.00556
  27        4PY         0.00319
  28        4PZ        -0.00688
  29 3   H  1S         -0.01485
  30        2S         -0.06871
  31        3S         -0.04108
  32        4PX         0.00865
  33        4PY        -0.00355
  34        4PZ        -0.00517
  35 4   H  1S         -0.01485
  36        2S         -0.06871
  37        3S         -0.04110
  38        4PX         0.00894
  39        4PY         0.00582
  40        4PZ        -0.00059
  41 5   C  1S         -0.00753
  42        2S         -0.01149
  43        2PX         0.02987
  44        2PY         0.01008
  45        2PZ        -0.02250
  46        3S          0.01724
  47        3PX         0.03759
  48        3PY         0.01254
  49        3PZ        -0.02803
  50        4S          0.35700
  51        4PX         0.04357
  52        4PY         0.01239
  53        4PZ        -0.02808
  54        5S          2.44248
  55        5PX        -0.57602
  56        5PY        -0.20657
  57        5PZ         0.45907
  58        6D 0       -0.00101
  59        6D+1       -0.01316
  60        6D-1       -0.00481
  61        6D+2        0.01023
  62        6D-2        0.00574
  63 6   H  1S         -0.01135
  64        2S         -0.02682
  65        3S         -0.11489
  66        4PX        -0.00966
  67        4PY        -0.00423
  68        4PZ         0.00585
  69 7   H  1S         -0.01135
  70        2S         -0.02683
  71        3S         -0.11485
  72        4PX        -0.00957
  73        4PY        -0.00155
  74        4PZ         0.00716
     ALPHA DENSITY MATRIX.
                           1         2         3         4         5
   1 1   C  1S          0.32986
   2        2S          0.27906   0.24223
   3        2PX        -0.00043  -0.00059   0.03846
   4        2PY        -0.00021  -0.00031  -0.00029   0.04087
   5        2PZ         0.00046   0.00066   0.00076   0.00061   0.03987
   6        3S         -0.03781  -0.06620   0.00012   0.00045  -0.00094
   7        3PX         0.00068   0.00061   0.05689  -0.00044   0.00113
   8        3PY         0.00007  -0.00002  -0.00041   0.06009   0.00075
   9        3PZ        -0.00020   0.00001   0.00106   0.00076   0.05883
  10        4S         -0.03454  -0.05032   0.00608   0.00195  -0.00438
  11        4PX        -0.00060  -0.00114   0.03518  -0.00108   0.00264
  12        4PY        -0.00022  -0.00041  -0.00114   0.04144   0.00150
  13        4PZ         0.00048   0.00091   0.00277   0.00150   0.03890
  14        5S         -0.01756  -0.02354   0.00662   0.00447  -0.00957
  15        5PX         0.00229   0.00322   0.00133  -0.00170   0.00361
  16        5PY         0.00063   0.00088  -0.00118   0.00324   0.00038
  17        5PZ        -0.00142  -0.00199   0.00255   0.00041   0.00238
  18        6D 0        0.00000  -0.00001  -0.00031  -0.00258  -0.00232
  19        6D+1        0.00021   0.00023   0.00421  -0.00025   0.00046
  20        6D-1        0.00006   0.00005  -0.00013  -0.00189  -0.00299
  21        6D+2       -0.00011  -0.00007   0.00007  -0.00368   0.00319
  22        6D-2       -0.00010  -0.00011  -0.00205   0.00074  -0.00026
  23 2   H  1S         -0.00886  -0.01390   0.03000  -0.01037   0.01932
  24        2S         -0.01253  -0.01838   0.04349  -0.01537   0.02868
  25        3S          0.00343   0.00388   0.01836  -0.00802   0.01525
  26        4PX         0.00219   0.00284  -0.00099   0.00106  -0.00195
  27        4PY        -0.00079  -0.00101   0.00119   0.00223   0.00082
  28        4PZ         0.00148   0.00189  -0.00221   0.00083   0.00111
  29 3   H  1S         -0.00913  -0.01433   0.00182   0.03637  -0.00595
  30        2S         -0.01297  -0.01903   0.00199   0.05194  -0.00881
  31        3S          0.00288   0.00299  -0.00147   0.02220  -0.00353
  32        4PX         0.00013   0.00020   0.00230  -0.00040   0.00017
  33        4PY         0.00276   0.00355  -0.00041  -0.00264   0.00088
  34        4PZ        -0.00041  -0.00054   0.00023   0.00093   0.00241
  35 4   H  1S         -0.00913  -0.01433   0.00015  -0.01769  -0.03238
  36        2S         -0.01297  -0.01903  -0.00039  -0.02498  -0.04642
  37        3S          0.00288   0.00299  -0.00249  -0.01074  -0.01964
  38        4PX         0.00001   0.00004   0.00232   0.00001   0.00022
  39        4PY        -0.00138  -0.00177  -0.00003   0.00138  -0.00222
  40        4PZ        -0.00243  -0.00314   0.00025  -0.00227  -0.00163
  41 5   C  1S          0.00197   0.00303   0.00708   0.00197  -0.00448
  42        2S          0.00306   0.00468   0.01146   0.00318  -0.00723
  43        2PX        -0.00667  -0.01064  -0.02195  -0.00615   0.01400
  44        2PY        -0.00169  -0.00269  -0.00601  -0.00091   0.00359
  45        2PZ         0.00387   0.00618   0.01373   0.00360  -0.00756
  46        3S         -0.00766  -0.01182  -0.03297  -0.00908   0.02065
  47        3PX        -0.01147  -0.01748  -0.03216  -0.00938   0.02130
  48        3PY        -0.00293  -0.00443  -0.00907  -0.00093   0.00512
  49        3PZ         0.00671   0.01017   0.02066   0.00514  -0.01053
  50        4S         -0.00070  -0.00155  -0.01941  -0.00648   0.01447
  51        4PX        -0.00395  -0.00664  -0.02386  -0.00325   0.00796
  52        4PY        -0.00078  -0.00133  -0.00315  -0.00521   0.00430
  53        4PZ         0.00185   0.00313   0.00776   0.00430  -0.01250
  54        5S          0.01353   0.01865  -0.00290  -0.00412   0.00861
  55        5PX         0.00314   0.00431  -0.00356   0.00042  -0.00071
  56        5PY         0.00093   0.00129   0.00112  -0.00210   0.00168
  57        5PZ        -0.00210  -0.00292  -0.00214   0.00173  -0.00464
  58        6D 0        0.00005   0.00007  -0.00130  -0.00095  -0.00239
  59        6D+1        0.00116   0.00162   0.00163   0.00103   0.00104
  60        6D-1        0.00078   0.00105   0.00167  -0.00167  -0.00076
  61        6D+2       -0.00138  -0.00189  -0.00067  -0.00208   0.00218
  62        6D-2       -0.00047  -0.00066  -0.00063   0.00298   0.00100
  63 6   H  1S          0.00179   0.00292   0.00497  -0.00085  -0.00439
  64        2S          0.00238   0.00407   0.00824  -0.00203  -0.00811
  65        3S          0.00129   0.00187   0.00492  -0.00362  -0.00804
  66        4PX        -0.00037  -0.00049  -0.00112  -0.00006   0.00058
  67        4PY        -0.00010  -0.00024  -0.00075  -0.00047   0.00035
  68        4PZ         0.00021   0.00021   0.00022  -0.00019  -0.00043
  69 7   H  1S          0.00179   0.00292   0.00511   0.00374  -0.00215
  70        2S          0.00238   0.00407   0.00852   0.00723  -0.00359
  71        3S          0.00129   0.00187   0.00529   0.00831  -0.00221
  72        4PX        -0.00037  -0.00048  -0.00110  -0.00037   0.00041
  73        4PY        -0.00008   0.00000   0.00032  -0.00036  -0.00030
  74        4PZ         0.00022   0.00033   0.00075   0.00024  -0.00056
                           6         7         8         9        10
   6        3S          0.19478
   7        3PX        -0.00202   0.08421
   8        3PY         0.00006  -0.00062   0.08835
   9        3PZ         0.00001   0.00156   0.00089   0.08684
  10        4S          0.12136   0.00779   0.00254  -0.00568   0.07930
  11        4PX         0.00242   0.05188  -0.00160   0.00390   0.00552
  12        4PY         0.00101  -0.00172   0.06083   0.00208   0.00189
  13        4PZ        -0.00222   0.00414   0.00207   0.05729  -0.00421
  14        5S          0.04979   0.00904   0.00637  -0.01360   0.03165
  15        5PX        -0.00738   0.00201  -0.00244   0.00517  -0.00484
  16        5PY        -0.00197  -0.00169   0.00471   0.00056  -0.00112
  17        5PZ         0.00450   0.00364   0.00060   0.00347   0.00260
  18        6D 0        0.00006  -0.00040  -0.00379  -0.00334   0.00028
  19        6D+1       -0.00038   0.00622  -0.00037   0.00061   0.00050
  20        6D-1       -0.00001  -0.00021  -0.00273  -0.00442   0.00019
  21        6D+2       -0.00006   0.00003  -0.00539   0.00468  -0.00083
  22        6D-2        0.00019  -0.00303   0.00103  -0.00038  -0.00019
  23 2   H  1S          0.03613   0.04388  -0.01537   0.02866   0.02466
  24        2S          0.04396   0.06363  -0.02270   0.04241   0.03016
  25        3S         -0.00611   0.02697  -0.01163   0.02209  -0.00356
  26        4PX        -0.00580  -0.00141   0.00160  -0.00293  -0.00360
  27        4PY         0.00198   0.00174   0.00327   0.00122   0.00142
  28        4PZ        -0.00368  -0.00322   0.00123   0.00161  -0.00269
  29 3   H  1S          0.03740   0.00230   0.05329  -0.00862   0.02592
  30        2S          0.04571   0.00247   0.07608  -0.01278   0.03214
  31        3S         -0.00360  -0.00201   0.03246  -0.00522  -0.00083
  32        4PX        -0.00056   0.00341  -0.00059   0.00025  -0.00002
  33        4PY        -0.00705  -0.00051  -0.00387   0.00126  -0.00466
  34        4PZ         0.00113   0.00032   0.00136   0.00356   0.00054
  35 4   H  1S          0.03740  -0.00015  -0.02598  -0.04738   0.02592
  36        2S          0.04571  -0.00101  -0.03667  -0.06791   0.03214
  37        3S         -0.00360  -0.00350  -0.01568  -0.02876  -0.00083
  38        4PX        -0.00024   0.00344   0.00001   0.00032   0.00020
  39        4PY         0.00346  -0.00008   0.00202  -0.00325   0.00243
  40        4PZ         0.00627   0.00029  -0.00336  -0.00236   0.00400
  41 5   C  1S         -0.00750   0.01248   0.00338  -0.00771   0.00244
  42        2S         -0.01172   0.01898   0.00519  -0.01182   0.00313
  43        2PX         0.02987  -0.03215  -0.00931   0.02119   0.01783
  44        2PY         0.00757  -0.00910  -0.00052   0.00534   0.00359
  45        2PZ        -0.01737   0.02076   0.00536  -0.01045  -0.00847
  46        3S          0.03041  -0.05087  -0.01399   0.03184  -0.00694
  47        3PX         0.04650  -0.04709  -0.01425   0.03231   0.02787
  48        3PY         0.01171  -0.01376  -0.00016   0.00759   0.00548
  49        3PZ        -0.02690   0.03132   0.00762  -0.01444  -0.01298
  50        4S          0.00509  -0.03018  -0.00991   0.02218  -0.01547
  51        4PX         0.01992  -0.03465  -0.00520   0.01258   0.01223
  52        4PY         0.00405  -0.00502  -0.00674   0.00618   0.00080
  53        4PZ        -0.00954   0.01222   0.00619  -0.01731  -0.00241
  54        5S         -0.04131  -0.00375  -0.00589   0.01228  -0.02648
  55        5PX        -0.00936  -0.00493   0.00057  -0.00097  -0.00515
  56        5PY        -0.00290   0.00161  -0.00294   0.00237  -0.00203
  57        5PZ         0.00652  -0.00308   0.00243  -0.00652   0.00448
  58        6D 0       -0.00019  -0.00192  -0.00135  -0.00350  -0.00013
  59        6D+1       -0.00376   0.00244   0.00150   0.00149  -0.00233
  60        6D-1       -0.00236   0.00249  -0.00241  -0.00111  -0.00139
  61        6D+2        0.00430  -0.00101  -0.00305   0.00324   0.00256
  62        6D-2        0.00154  -0.00094   0.00432   0.00145   0.00096
  63 6   H  1S         -0.00871   0.00699  -0.00082  -0.00593  -0.00937
  64        2S         -0.01269   0.01176  -0.00236  -0.01125  -0.01219
  65        3S         -0.00479   0.00732  -0.00504  -0.01170  -0.00216
  66        4PX         0.00108  -0.00166  -0.00009   0.00093   0.00039
  67        4PY         0.00093  -0.00107  -0.00068   0.00046   0.00097
  68        4PZ        -0.00019   0.00041  -0.00032  -0.00064   0.00054
  69 7   H  1S         -0.00871   0.00717   0.00484  -0.00317  -0.00937
  70        2S         -0.01269   0.01214   0.00973  -0.00534  -0.01219
  71        3S         -0.00479   0.00784   0.01195  -0.00339  -0.00216
  72        4PX         0.00104  -0.00163  -0.00062   0.00065   0.00033
  73        4PY        -0.00047   0.00038  -0.00057  -0.00043  -0.00104
  74        4PZ        -0.00087   0.00113   0.00034  -0.00078  -0.00044
                          11        12        13        14        15
  11        4PX         0.03319
  12        4PY        -0.00174   0.04254
  13        4PZ         0.00421   0.00230   0.03865
  14        5S          0.00703   0.00473  -0.01012   0.01914
  15        5PX         0.00157  -0.00195   0.00413  -0.00347   0.00159
  16        5PY        -0.00139   0.00360   0.00028  -0.00028  -0.00048
  17        5PZ         0.00297   0.00032   0.00285   0.00079   0.00090
  18        6D 0       -0.00060  -0.00268  -0.00271   0.00054  -0.00067
  19        6D+1        0.00389  -0.00037   0.00101   0.00002   0.00062
  20        6D-1       -0.00019  -0.00219  -0.00291   0.00029   0.00001
  21        6D+2        0.00066  -0.00389   0.00328  -0.00139   0.00106
  22        6D-2       -0.00193   0.00112  -0.00039   0.00008  -0.00036
  23 2   H  1S          0.02948  -0.01095   0.02054   0.00805   0.00291
  24        2S          0.04309  -0.01642   0.03087   0.00901   0.00537
  25        3S          0.01903  -0.00923   0.01768  -0.00531   0.00613
  26        4PX        -0.00104   0.00101  -0.00182  -0.00116   0.00008
  27        4PY         0.00113   0.00226   0.00091   0.00078  -0.00004
  28        4PZ        -0.00207   0.00092   0.00099  -0.00152   0.00008
  29 3   H  1S          0.00085   0.03718  -0.00531   0.01568  -0.00394
  30        2S          0.00050   0.05336  -0.00803   0.02083  -0.00577
  31        3S         -0.00268   0.02348  -0.00357   0.00307  -0.00275
  32        4PX         0.00210  -0.00043   0.00027   0.00021   0.00009
  33        4PY        -0.00039  -0.00265   0.00083  -0.00242   0.00042
  34        4PZ         0.00034   0.00098   0.00240  -0.00017   0.00019
  35 4   H  1S         -0.00087  -0.01865  -0.03260   0.01568  -0.00409
  36        2S         -0.00196  -0.02640  -0.04703   0.02083  -0.00598
  37        3S         -0.00376  -0.01144  -0.02064   0.00307  -0.00285
  38        4PX         0.00212  -0.00004   0.00031   0.00034   0.00007
  39        4PY        -0.00012   0.00137  -0.00217   0.00161  -0.00041
  40        4PZ         0.00031  -0.00233  -0.00164   0.00180  -0.00023
  41 5   C  1S          0.00307   0.00110  -0.00245  -0.00852   0.00122
  42        2S          0.00534   0.00183  -0.00408  -0.00966   0.00127
  43        2PX        -0.02274  -0.00467   0.01075  -0.00082  -0.00438
  44        2PY        -0.00467  -0.00526   0.00323  -0.00288   0.00286
  45        2PZ         0.01074   0.00323  -0.01111   0.00594  -0.00570
  46        3S         -0.01706  -0.00549   0.01232   0.01399  -0.00137
  47        3PX        -0.03347  -0.00700   0.01611  -0.00021  -0.00712
  48        3PY        -0.00686  -0.00736   0.00482  -0.00422   0.00454
  49        3PZ         0.01582   0.00483  -0.01609   0.00864  -0.00903
  50        4S         -0.00793  -0.00419   0.00908   0.00680   0.00043
  51        4PX        -0.02599  -0.00083   0.00284   0.00085  -0.00820
  52        4PY        -0.00093  -0.01015   0.00506  -0.00493   0.00536
  53        4PZ         0.00306   0.00505  -0.01823   0.01003  -0.01060
  54        5S         -0.00301  -0.00437   0.00912  -0.01520   0.00319
  55        5PX        -0.00465   0.00086  -0.00158  -0.00243  -0.00162
  56        5PY         0.00152  -0.00287   0.00223  -0.00215   0.00165
  57        5PZ        -0.00292   0.00227  -0.00619   0.00456  -0.00330
  58        6D 0       -0.00130  -0.00119  -0.00251   0.00018  -0.00021
  59        6D+1        0.00160   0.00117   0.00118  -0.00066   0.00026
  60        6D-1        0.00159  -0.00190  -0.00085  -0.00011   0.00009
  61        6D+2       -0.00057  -0.00219   0.00209  -0.00009   0.00018
  62        6D-2       -0.00061   0.00335   0.00115   0.00032  -0.00012
  63 6   H  1S          0.00725  -0.00318  -0.00724   0.00507  -0.00076
  64        2S          0.01067  -0.00543  -0.01174   0.00678  -0.00112
  65        3S          0.00434  -0.00517  -0.00870   0.00203  -0.00066
  66        4PX        -0.00106  -0.00006   0.00015   0.00034  -0.00044
  67        4PY        -0.00092  -0.00055   0.00067  -0.00086   0.00033
  68        4PZ        -0.00031   0.00004  -0.00040  -0.00016  -0.00041
  69 7   H  1S          0.00757   0.00730  -0.00212   0.00507  -0.00066
  70        2S          0.01121   0.01206  -0.00319   0.00679  -0.00098
  71        3S          0.00480   0.00981  -0.00138   0.00203  -0.00058
  72        4PX        -0.00101  -0.00003   0.00013   0.00038  -0.00044
  73        4PY         0.00085  -0.00016  -0.00033   0.00063   0.00014
  74        4PZ         0.00056   0.00031  -0.00085   0.00057  -0.00050
                          16        17        18        19        20
  16        5PY         0.00062
  17        5PZ        -0.00045   0.00125
  18        6D 0       -0.00001  -0.00076   0.00074
  19        6D+1       -0.00027   0.00066  -0.00034   0.00071
  20        6D-1       -0.00034  -0.00006   0.00023   0.00002   0.00042
  21        6D+2       -0.00063   0.00077  -0.00034   0.00030   0.00010
  22        6D-2        0.00034  -0.00029   0.00002  -0.00027  -0.00016
  23 2   H  1S         -0.00249   0.00492  -0.00140   0.00395  -0.00079
  24        2S         -0.00395   0.00774  -0.00257   0.00610  -0.00101
  25        3S         -0.00278   0.00529  -0.00285   0.00386   0.00001
  26        4PX         0.00010  -0.00019  -0.00003  -0.00007   0.00013
  27        4PY         0.00012   0.00022  -0.00021   0.00013  -0.00016
  28        4PZ         0.00021  -0.00021  -0.00007  -0.00025  -0.00013
  29 3   H  1S          0.00277   0.00053  -0.00170  -0.00030  -0.00144
  30        2S          0.00429   0.00023  -0.00224  -0.00063  -0.00218
  31        3S          0.00290  -0.00158  -0.00039  -0.00086  -0.00134
  32        4PX        -0.00007   0.00011   0.00002   0.00024  -0.00001
  33        4PY        -0.00009  -0.00019   0.00013  -0.00001   0.00005
  34        4PZ         0.00005   0.00023  -0.00022   0.00006  -0.00021
  35 4   H  1S         -0.00192  -0.00176   0.00342  -0.00058   0.00317
  36        2S         -0.00253  -0.00310   0.00518  -0.00112   0.00451
  37        3S         -0.00040  -0.00319   0.00312  -0.00130   0.00183
  38        4PX        -0.00005   0.00012   0.00000   0.00023  -0.00003
  39        4PY         0.00006  -0.00005   0.00005  -0.00005   0.00010
  40        4PZ        -0.00029   0.00010   0.00019   0.00003   0.00023
  41 5   C  1S          0.00053  -0.00117   0.00034   0.00179   0.00043
  42        2S          0.00064  -0.00138   0.00048   0.00241   0.00061
  43        2PX         0.00233  -0.00462   0.00278  -0.00394  -0.00159
  44        2PY        -0.00312   0.00184  -0.00041  -0.00026   0.00196
  45        2PZ         0.00187  -0.00561   0.00459  -0.00195  -0.00029
  46        3S         -0.00109   0.00231  -0.00115  -0.00535  -0.00147
  47        3PX         0.00369  -0.00729   0.00449  -0.00608  -0.00254
  48        3PY        -0.00474   0.00311  -0.00091  -0.00022   0.00294
  49        3PZ         0.00317  -0.00899   0.00724  -0.00315  -0.00065
  50        4S         -0.00115   0.00233  -0.00136  -0.00308  -0.00088
  51        4PX         0.00433  -0.00850   0.00517  -0.00583  -0.00207
  52        4PY        -0.00453   0.00398  -0.00159   0.00101   0.00254
  53        4PZ         0.00404  -0.01003   0.00752  -0.00442  -0.00086
  54        5S         -0.00001  -0.00018  -0.00063   0.00031  -0.00025
  55        5PX         0.00120  -0.00237   0.00128  -0.00114  -0.00036
  56        5PY        -0.00096   0.00118  -0.00063   0.00064   0.00041
  57        5PZ         0.00121  -0.00259   0.00185  -0.00152  -0.00023
  58        6D 0       -0.00015  -0.00029   0.00030  -0.00022   0.00031
  59        6D+1        0.00012   0.00018  -0.00022   0.00023  -0.00018
  60        6D-1       -0.00025  -0.00007   0.00024   0.00010   0.00019
  61        6D+2       -0.00023   0.00016   0.00003  -0.00002  -0.00001
  62        6D-2        0.00040   0.00012  -0.00035   0.00001  -0.00033
  63 6   H  1S         -0.00171  -0.00051   0.00160  -0.00110   0.00131
  64        2S         -0.00241  -0.00092   0.00245  -0.00133   0.00201
  65        3S         -0.00099  -0.00088   0.00147  -0.00015   0.00121
  66        4PX         0.00013  -0.00042   0.00031  -0.00037  -0.00006
  67        4PY        -0.00009   0.00019  -0.00017   0.00014   0.00005
  68        4PZ         0.00032  -0.00046   0.00026  -0.00007  -0.00012
  69 7   H  1S          0.00149   0.00106  -0.00136   0.00063  -0.00141
  70        2S          0.00226   0.00137  -0.00192   0.00108  -0.00200
  71        3S          0.00134   0.00026  -0.00083   0.00070  -0.00088
  72        4PX         0.00027  -0.00034   0.00018  -0.00027  -0.00018
  73        4PY        -0.00010   0.00032  -0.00020   0.00009  -0.00001
  74        4PZ         0.00020  -0.00045   0.00035  -0.00018  -0.00006
                          21        22        23        24        25
  21        6D+2        0.00110
  22        6D-2       -0.00030   0.00035
  23 2   H  1S          0.00334  -0.00215   0.04321
  24        2S          0.00553  -0.00334   0.06251   0.09154
  25        3S          0.00460  -0.00217   0.02699   0.04296   0.03114
  26        4PX        -0.00017   0.00005  -0.00291  -0.00390  -0.00073
  27        4PY        -0.00012  -0.00003   0.00114   0.00159   0.00046
  28        4PZ        -0.00003   0.00014  -0.00215  -0.00300  -0.00089
  29 3   H  1S         -0.00424   0.00093  -0.00448  -0.00896  -0.01194
  30        2S         -0.00637   0.00155  -0.00892  -0.01646  -0.01877
  31        3S         -0.00363   0.00131  -0.01132  -0.01797  -0.01300
  32        4PX         0.00002  -0.00011   0.00180   0.00260   0.00109
  33        4PY         0.00028  -0.00002  -0.00058  -0.00054   0.00077
  34        4PZ         0.00015  -0.00002   0.00136   0.00200   0.00098
  35 4   H  1S         -0.00135  -0.00012  -0.00448  -0.00896  -0.01194
  36        2S         -0.00219  -0.00013  -0.00892  -0.01646  -0.01877
  37        3S         -0.00168   0.00008  -0.01132  -0.01797  -0.01300
  38        4PX        -0.00001  -0.00012   0.00179   0.00258   0.00102
  39        4PY        -0.00032   0.00005  -0.00081  -0.00138  -0.00130
  40        4PZ         0.00011  -0.00004   0.00125   0.00159  -0.00003
  41 5   C  1S         -0.00139  -0.00078   0.00124   0.00120   0.00203
  42        2S         -0.00196  -0.00105   0.00206   0.00235   0.00265
  43        2PX        -0.00185   0.00193  -0.00878  -0.01803  -0.02305
  44        2PY         0.00325  -0.00289   0.00259   0.00614   0.01086
  45        2PZ        -0.00462  -0.00016  -0.00475  -0.01142  -0.02076
  46        3S          0.00469   0.00231  -0.00650  -0.00857  -0.00555
  47        3PX        -0.00309   0.00300  -0.01274  -0.02695  -0.03630
  48        3PY         0.00503  -0.00430   0.00411   0.00981   0.01743
  49        3PZ        -0.00735  -0.00004  -0.00761  -0.01837  -0.03335
  50        4S          0.00395   0.00125  -0.00373  -0.00334   0.00151
  51        4PX        -0.00507   0.00305  -0.02020  -0.03737  -0.04080
  52        4PY         0.00525  -0.00363   0.00829   0.01652   0.02210
  53        4PZ        -0.00813   0.00126  -0.01568  -0.03143  -0.04262
  54        5S          0.00145  -0.00024  -0.00398  -0.00331   0.00680
  55        5PX        -0.00155   0.00064  -0.00739  -0.01210  -0.00950
  56        5PY         0.00132  -0.00070   0.00330   0.00609   0.00694
  57        5PZ        -0.00227   0.00073  -0.00628  -0.01170  -0.01359
  58        6D 0       -0.00006  -0.00007  -0.00193  -0.00283  -0.00132
  59        6D+1        0.00000   0.00001   0.00083   0.00141   0.00121
  60        6D-1        0.00012  -0.00022   0.00086   0.00133   0.00074
  61        6D+2        0.00040  -0.00010   0.00195   0.00272   0.00104
  62        6D-2       -0.00027   0.00027  -0.00051  -0.00084  -0.00064
  63 6   H  1S          0.00062  -0.00179  -0.00003   0.00037  -0.00040
  64        2S          0.00065  -0.00257   0.00003   0.00048  -0.00077
  65        3S         -0.00022  -0.00106  -0.00048  -0.00086  -0.00132
  66        4PX        -0.00019   0.00006  -0.00088  -0.00167  -0.00200
  67        4PY         0.00019  -0.00003   0.00023   0.00051   0.00101
  68        4PZ        -0.00044   0.00020  -0.00062  -0.00135  -0.00187
[...]
     3    3 83   4                                                       775  9       8    6  7      0            7             1    
     5    2 03   2                                                       668  1       5    3  0      7            7             0    
 
     X    X XX   X                                                       XXX  X       X    X  X      X            X                  
     X    X XX   X                                                        X                                       X                  
     X    X XX   X                                                                                                X                  
     X    X XX   X                                                                                                X                  
            XX   X                                                                                                X                  
            XX   X                                                                                                X                  
             X   X                                                                                                X                  
                                                                                                                  X                  
                                                                                                                  X                  
                                                                                                                  X                  
                                                                                                                  X                  
                                                                                                                  X                  
                                                                                                                  X                  
                                                                                                                  X                  
                                                                                                                  X                  
                                                                                                                  X                  
                                                                                                                  X                  
                                                                                                                  X                  
                                                                                                                  X                  
                                                                                                                  X                  
 
 -------------------------------------------------------------------
 Center     Atomic                   Forces (Hartrees/Bohr)
 Number     Number              X              Y              Z
 -------------------------------------------------------------------
    1          6           0.000007951    0.000000086   -0.000000788
    2          1          -0.000003950    0.000000482   -0.000000924
    3          1          -0.000000876   -0.000000733   -0.000001252
    4          1          -0.000000943    0.000001327   -0.000000180
    5          6          -0.000004971   -0.000002676    0.000005893
    6          1           0.000001491    0.000001219   -0.000001153
    7          1           0.000001297    0.000000295   -0.000001596
 -------------------------------------------------------------------
 Cartesian Forces:  Max     0.000007951 RMS     0.000002778
 Force constants in Cartesian coordinates: 
                1             2             3             4             5
      1  0.453424D+00
      2  0.554417D-02  0.543412D+00
      3 -0.489356D-02  0.235278D-01  0.507258D+00
      4 -0.193980D+00  0.567895D-01 -0.106458D+00  0.221970D+00
      5  0.505852D-01 -0.584986D-01  0.334277D-01 -0.586285D-01  0.624921D-01
      6 -0.937659D-01  0.330345D-01 -0.102240D+00  0.108539D+00 -0.381226D-01
      7 -0.413553D-01 -0.166676D-01  0.474471D-02  0.116790D-02  0.264286D-01
      8 -0.163025D-01 -0.295733D+00  0.387258D-01  0.231763D-03 -0.100150D-01
      9  0.514698D-02  0.403127D-01 -0.554890D-01 -0.141232D-03  0.172763D-01
     10 -0.404922D-01  0.511778D-03  0.580838D-02 -0.614067D-04 -0.129620D-01
     11  0.899907D-05 -0.108121D+00 -0.106565D+00  0.306572D-03  0.394386D-02
     12  0.569464D-02 -0.108159D+00 -0.243945D+00 -0.111795D-02 -0.863252D-02
     13 -0.171383D+00 -0.397078D-01  0.866474D-01 -0.274210D-01 -0.581374D-02
     14 -0.366795D-01 -0.871759D-01  0.604026D-02  0.175935D-02  0.243971D-02
     15  0.804370D-01  0.623232D-02 -0.103166D+00 -0.186032D-02 -0.446910D-02
     16 -0.258940D-02  0.167336D-01  0.168910D-01 -0.854471D-03 -0.149362D-03
     17 -0.469101D-02  0.620741D-02  0.581173D-02 -0.372902D-03  0.325291D-03
     18  0.183206D-02 -0.682006D-02 -0.487434D-02  0.415811D-03 -0.546968D-03
     19 -0.362474D-02 -0.232036D-01 -0.274020D-02 -0.821778D-03  0.539795D-03
     20  0.153465D-02 -0.910374D-04 -0.968432D-03 -0.858677D-04 -0.687365D-03
     21  0.554876D-02  0.118717D-01  0.245740D-02  0.622722D-03  0.106728D-02
                6             7             8             9            10
      6  0.113163D+00
      7 -0.421902D-02  0.510705D-01
      8  0.138283D-02  0.198046D-01  0.322052D+00
      9 -0.314940D-02 -0.610700D-02 -0.455558D-01  0.535836D-01
     10 -0.234818D-01 -0.169479D-02 -0.296331D-03 -0.159141D-02  0.499546D-01
     11  0.807826D-02  0.194129D-03 -0.129926D-01 -0.278786D-01 -0.141479D-02
     12 -0.158815D-01 -0.394073D-03  0.308263D-02  0.636551D-02 -0.818216D-02
     13  0.136291D-01 -0.668668D-02 -0.310259D-02  0.146797D-02 -0.513936D-02
     14 -0.494678D-02 -0.297393D-01 -0.532853D-02  0.156990D-01  0.161632D-01
     15  0.933285D-02  0.310747D-02  0.680109D-03 -0.777562D-03  0.255702D-01
     16 -0.524381D-03  0.996523D-03 -0.604966D-03 -0.716636D-03 -0.357971D-02
     17  0.337145D-03  0.978356D-03  0.124751D-02  0.623496D-04 -0.193449D-02
     18 -0.110341D-02 -0.697002D-03 -0.280614D-03  0.351125D-03  0.304624D-02
     19 -0.176682D-03 -0.349811D-02  0.270042D-03  0.194132D-02  0.101285D-02
     20  0.236631D-03 -0.998729D-03  0.769661D-03  0.839974D-04 -0.673679D-04
     21 -0.122080D-03  0.356491D-02  0.196496D-02 -0.884191D-03 -0.116947D-02
               11            12            13            14            15
     11  0.111124D+00
     12  0.119730D+00  0.265614D+00
     13  0.145277D-02  0.280871D-02  0.371818D+00
     14  0.459106D-02 -0.824833D-02  0.107982D+00  0.538867D+00
     15  0.601877D-02 -0.122494D-01 -0.205155D+00  0.160665D+00  0.305032D+00
     16 -0.147792D-02  0.114206D-02 -0.753670D-01  0.543055D-01  0.875285D-01
     17  0.914547D-03  0.199183D-02  0.567454D-01 -0.165665D+00 -0.136103D+00
     18  0.140000D-05 -0.947178D-03  0.903131D-01 -0.138760D+00 -0.165337D+00
     19  0.930236D-03  0.487790D-04 -0.858209D-01 -0.113791D+00  0.103721D-01
     20  0.540062D-03  0.235185D-03 -0.117556D+00 -0.287728D+00 -0.330235D-01
     21  0.614874D-03  0.104356D-02  0.102887D-01 -0.304491D-01 -0.328339D-01
               16            17            18            19            20
     16  0.746989D-01
     17 -0.606034D-01  0.167492D+00
     18 -0.965780D-01  0.145033D+00  0.169945D+00
     19  0.669519D-02  0.987805D-02  0.166787D-02  0.860574D-01
     20 -0.820344D-02 -0.105214D-01  0.137314D-02  0.125377D+00  0.297718D+00
     21 -0.774250D-02 -0.171327D-01  0.196590D-02 -0.111132D-01  0.320630D-01
               21
     21  0.283733D-01
 Force constants in internal coordinates: 
                1             2             3             4             5
      1  0.308786D+00
      2  0.391726D-02  0.331057D+00
      3  0.391842D-02  0.211679D-02  0.331052D+00
      4  0.159881D-01  0.718790D-02  0.718997D-02  0.312775D+00
      5  0.156702D-03  0.691996D-03 -0.617846D-03  0.298132D-02  0.357752D+00
      6  0.156925D-03 -0.617233D-03  0.692299D-03  0.297952D-02  0.823407D-03
      7  0.710540D-02  0.657523D-02 -0.996311D-03 -0.195379D-01 -0.800138D-05
      8  0.710480D-02 -0.996889D-03  0.658079D-02 -0.195396D-01 -0.159083D-02
      9  0.131510D-02 -0.675358D-02 -0.675408D-02  0.170654D-01  0.382042D-04
     10 -0.132997D-02  0.576793D-02  0.577287D-02 -0.156973D-01 -0.701147D-03
     11 -0.649887D-02  0.175342D-02 -0.559456D-02  0.167530D-01 -0.160055D-02
     12 -0.649733D-02 -0.559601D-02  0.174235D-02  0.167555D-01  0.366909D-02
     13  0.597478D-03 -0.214275D-02  0.305678D-02  0.923660D-02  0.386496D-02
     14  0.597371D-03  0.305371D-02 -0.214645D-02  0.924833D-02 -0.105778D-01
     15 -0.110704D-02 -0.918168D-03 -0.917419D-03 -0.183102D-01  0.682904D-02
     16  0.310552D-03  0.554564D-02 -0.567970D-02 -0.541502D-04  0.374806D-03
     17 -0.309657D-03  0.568062D-02 -0.554571D-02  0.535221D-04 -0.113712D-02
     18 -0.521704D-02  0.576235D-03  0.399648D-02  0.181642D-02  0.144778D-02
     19 -0.583725D-02  0.711219D-03  0.413048D-02  0.192409D-02 -0.641471D-04
     20  0.583843D-02 -0.413182D-02 -0.711073D-03 -0.192541D-02  0.869977D-03
     21  0.521822D-02 -0.399684D-02 -0.577083D-03 -0.181773D-02 -0.641954D-03
                6             7             8             9            10
      6  0.357757D+00
      7 -0.159122D-02  0.546039D-01
      8 -0.804045D-05  0.629504D-02  0.546036D-01
      9  0.366210D-04 -0.357961D-01 -0.357974D-01  0.925349D-01
     10 -0.701757D-03  0.767450D-02  0.767271D-02  0.907081D-02  0.557620D-01
     11  0.367200D-02 -0.384093D-01  0.106946D-01 -0.166595D-01 -0.372247D-01
     12 -0.160097D-02  0.106961D-01 -0.384048D-01 -0.166642D-01 -0.372198D-01
     13 -0.105775D-01  0.285595D-02 -0.437082D-02 -0.162292D-03 -0.103564D-02
     14  0.386682D-02 -0.436849D-02  0.285861D-02 -0.166560D-03 -0.103252D-02
     15  0.682664D-02  0.156489D-02  0.156445D-02  0.205812D-03  0.203613D-02
     16  0.113854D-02  0.919704D-02 -0.864444D-02 -0.487171D-03 -0.449778D-04
     17 -0.370679D-03  0.864196D-02 -0.919867D-02  0.493978D-03  0.452720D-04
     18  0.642948D-03 -0.985798D-02  0.445806D-03 -0.658402D-02  0.932094D-02
     19 -0.866267D-03 -0.104131D-01 -0.108427D-03 -0.560287D-02  0.941119D-02
     20  0.641527D-04  0.108810D-03  0.104128D-01  0.560437D-02 -0.940972D-02
     21 -0.144506D-02 -0.446270D-03  0.985853D-02  0.658552D-02 -0.931947D-02
               11            12            13            14            15
     11  0.997222D-01
     12 -0.237794D-01  0.997174D-01
     13 -0.981908D-02  0.123162D-01  0.762434D-01
     14  0.123138D-01 -0.982006D-02 -0.412551D-01  0.762497D-01
     15 -0.246756D-02 -0.246902D-02 -0.346047D-01 -0.346109D-01  0.685271D-01
     16  0.729750D-02 -0.728476D-02 -0.240058D-02  0.262837D-02  0.622526D-04
     17  0.728279D-02 -0.729883D-02 -0.262899D-02  0.239904D-02 -0.600361D-04
     18 -0.256209D-03  0.661625D-02  0.750960D-03 -0.691642D-04 -0.393101D-03
     19 -0.270922D-03  0.660217D-02  0.522555D-03 -0.298490D-03 -0.515389D-03
     20 -0.660181D-02  0.267723D-03  0.298435D-03 -0.523291D-03  0.516069D-03
     21 -0.661652D-02  0.253648D-03  0.700298D-04 -0.752617D-03  0.393780D-03
               16            17            18            19            20
     16  0.118079D-01
     17  0.944946D-02  0.118072D-01
     18 -0.454215D-02 -0.685173D-02  0.126770D-01
     19 -0.690057D-02 -0.449397D-02  0.103674D-01  0.127740D-01
     20 -0.449306D-02 -0.689881D-02 -0.395846D-02 -0.636421D-02  0.127733D-01
     21 -0.685148D-02 -0.454105D-02 -0.626804D-02 -0.395761D-02  0.103675D-01
               21
     21  0.126779D-01
 Leave Link  716 at Mon Mar 30 15:39:24 2009, MaxMem=    6291456 cpu:       0.0
 (Enter /opt//g03/l103.exe)

 GradGradGradGradGradGradGradGradGradGradGradGradGradGradGradGradGradGrad
 Berny optimization.
 Internal  Forces:  Max     0.000003743 RMS     0.000001543
 Search for a local minimum.
 Step number   1 out of a maximum of   2
 All quantities printed in internal units (Hartrees-Bohrs-Radians)
 Second derivative matrix not updated -- analytic derivatives used.
     Eigenvalues ---    0.00031   0.00706   0.05525   0.05626   0.10030
     Eigenvalues ---    0.10480   0.11708   0.13367   0.15976   0.30257
     Eigenvalues ---    0.32404   0.33007   0.34282   0.35806   0.35961
     Eigenvalues --- 1000.000001000.000001000.000001000.000001000.00000
     Eigenvalues --- 1000.00000
 Angle between quadratic step and forces=  67.41 degrees.
 Linear search not attempted -- first point.
 Iteration  1 RMS(Cart)=  0.00002400 RMS(Int)=  0.00000000
 Iteration  2 RMS(Cart)=  0.00000000 RMS(Int)=  0.00000000
 Variable       Old X    -DE/DX   Delta X   Delta X   Delta X     New X
                                 (Linear)    (Quad)   (Total)
    R1        2.08745   0.00000   0.00000  -0.00001  -0.00001   2.08743
    R2        2.07109   0.00000   0.00000   0.00000   0.00000   2.07109
    R3        2.07109   0.00000   0.00000   0.00000   0.00000   2.07109
    R4        2.81591   0.00000   0.00000   0.00002   0.00002   2.81593
    R5        2.05051   0.00000   0.00000   0.00000   0.00000   2.05050
    R6        2.05051   0.00000   0.00000   0.00000   0.00000   2.05050
    A1        1.85689   0.00000   0.00000   0.00001   0.00001   1.85690
    A2        1.85688   0.00000   0.00000   0.00002   0.00002   1.85690
    A3        1.95042   0.00000   0.00000  -0.00001  -0.00001   1.95040
    A4        1.89072   0.00000   0.00000  -0.00001  -0.00001   1.89071
    A5        1.95180   0.00000   0.00000   0.00000   0.00000   1.95180
    A6        1.95180   0.00000   0.00000   0.00000   0.00000   1.95180
    A7        2.11051   0.00000   0.00000  -0.00001  -0.00001   2.11050
    A8        2.11051   0.00000   0.00000  -0.00001  -0.00001   2.11050
    A9        2.05313   0.00000   0.00000   0.00003   0.00003   2.05317
    D1        1.49714   0.00000   0.00000   0.00001   0.00001   1.49715
    D2       -1.49705   0.00000   0.00000  -0.00009  -0.00009  -1.49715
    D3       -0.58245   0.00000   0.00000   0.00000   0.00000  -0.58245
    D4        2.70654   0.00000   0.00000  -0.00010  -0.00010   2.70644
    D5       -2.70646   0.00000   0.00000   0.00002   0.00002  -2.70644
    D6        0.58253   0.00000   0.00000  -0.00008  -0.00008   0.58245
         Item               Value     Threshold  Converged?
 Maximum Force            0.000004     0.000015     YES
 RMS     Force            0.000002     0.000010     YES
 Maximum Displacement     0.000063     0.000060     NO 
 RMS     Displacement     0.000024     0.000040     YES
 Predicted change in Energy=-2.296150D-10
 GradGradGradGradGradGradGradGradGradGradGradGradGradGradGradGradGradGrad

 Leave Link  103 at Mon Mar 30 15:39:25 2009, MaxMem=    6291456 cpu:       0.0
 (Enter /opt//g03/l9999.exe)
 1\1\GINC-BOTTICELLI\Freq\UB971\6-311+G(d,p)\C2H5(2)\SS663\30-Mar-2009\
 0\\#P Geom=AllCheck Guess=Read SCRF=Check GenChk UB971/6-311+G(d,p) Fr
 eq\\#NewComb uB971/6-311+G(d,p)\\0,2\C,0.9166762042,0.0730268241,4.990
 9560473\H,1.8271445526,-0.2241902314,5.5413327124\H,1.0043564838,1.149
 8285377,4.8066561748\H,0.9550579512,-0.4459962779,4.0264362923\C,-0.32
 1223388,-0.2601308563,5.7505945921\H,-0.7206191756,0.4228986482,6.4931
 268102\H,-0.7720826283,-1.2444366444,5.678007371\\Version=AM64L-G03Rev
 E.01\HF=-79.1483095\S2=0.754159\S2-1=0.\S2A=0.750012\RMSD=2.002e-09\RM
 SF=2.778e-06\ZeroPoint=0.0588584\Thermal=0.0628366\Dipole=0.1354117,0.
 0062667,-0.0213725\DipoleDeriv=0.0059474,-0.0375595,0.079783,-0.010496
 1,0.064837,-0.026603,0.0242848,-0.0248727,0.100866,-0.1272378,0.02882,
 -0.0452208,0.0420041,0.0698521,0.0383431,-0.0721871,0.0391628,0.014334
 7,0.0505261,-0.0113841,0.0202063,-0.0452177,-0.1370407,0.0494744,0.043
 3317,0.0353484,0.0564753,0.0514457,-0.0121613,0.0130588,-0.0099505,0.0
 255365,-0.0910781,0.0546028,-0.0789497,-0.1069841,-0.0621251,0.1230918
 ,-0.2410371,0.118449,0.0344485,0.1440011,-0.2315278,0.1437188,-0.17086
 02,0.0431561,-0.0169696,0.0989032,0.0027022,0.0040905,-0.0924456,0.114
 1559,-0.077924,0.0177835,0.0382876,-0.0738373,0.0743067,-0.0974909,-0.
 0617239,-0.0216919,0.0673396,-0.0364835,0.0883848\Polar=27.7504591,0.9
 646379,23.9751586,-2.2178647,-0.2404977,24.5195801\PG=C01 [X(C2H5)]\NI
 mag=0\\0.45342396,0.00554417,0.54341232,-0.00489356,0.02352777,0.50725
 770,-0.19397954,0.05678954,-0.10645775,0.22197034,0.05058520,-0.058498
 64,0.03342769,-0.05862845,0.06249210,-0.09376587,0.03303454,-0.1022398
 5,0.10853871,-0.03812263,0.11316338,-0.04135530,-0.01666759,0.00474471
 ,0.00116790,0.02642859,-0.00421902,0.05107047,-0.01630248,-0.29573316,
 0.03872585,0.00023176,-0.01001495,0.00138283,0.01980456,0.32205209,0.0
 0514698,0.04031270,-0.05548905,-0.00014123,0.01727626,-0.00314940,-0.0
 0610700,-0.04555576,0.05358356,-0.04049220,0.00051178,0.00580838,-0.00
 006141,-0.01296203,-0.02348182,-0.00169479,-0.00029633,-0.00159141,0.0
 4995461,0.00000900,-0.10812096,-0.10656485,0.00030657,0.00394386,0.008
 07826,0.00019413,-0.01299261,-0.02787859,-0.00141479,0.11112404,0.0056
 9464,-0.10815893,-0.24394537,-0.00111795,-0.00863252,-0.01588149,-0.00
 039407,0.00308263,0.00636551,-0.00818216,0.11973014,0.26561435,-0.1713
 8277,-0.03970783,0.08664743,-0.02742103,-0.00581374,0.01362905,-0.0066
 8668,-0.00310259,0.00146797,-0.00513936,0.00145277,0.00280871,0.371817
 70,-0.03667953,-0.08717594,0.00604026,0.00175935,0.00243971,-0.0049467
 8,-0.02973931,-0.00532853,0.01569905,0.01616323,0.00459106,-0.00824833
 ,0.10798214,0.53886675,0.08043699,0.00623232,-0.10316649,-0.00186032,-
 0.00446910,0.00933285,0.00310747,0.00068011,-0.00077756,0.02557024,0.0
 0601877,-0.01224937,-0.20515497,0.16066486,0.30503173,-0.00258940,0.01
 673355,0.01689099,-0.00085447,-0.00014936,-0.00052438,0.00099652,-0.00
 060497,-0.00071664,-0.00357971,-0.00147792,0.00114206,-0.07536700,0.05
 430554,0.08752851,0.07469888,-0.00469101,0.00620741,0.00581173,-0.0003
 7290,0.00032529,0.00033714,0.00097836,0.00124751,0.00006235,-0.0019344
 9,0.00091455,0.00199183,0.05674541,-0.16566519,-0.13610341,-0.06060341
 ,0.16749185,0.00183206,-0.00682006,-0.00487434,0.00041581,-0.00054697,
 -0.00110341,-0.00069700,-0.00028061,0.00035113,0.00304624,0.00000140,-
 0.00094718,0.09031307,-0.13875997,-0.16533727,-0.09657804,0.14503307,0
 .16994518,-0.00362474,-0.02320361,-0.00274020,-0.00082178,0.00053979,-
 0.00017668,-0.00349811,0.00027004,0.00194132,0.00101285,0.00093024,0.0
 0004878,-0.08582086,-0.11379142,0.01037208,0.00669519,0.00987805,0.001
 66787,0.08605745,0.00153465,-0.00009104,-0.00096843,-0.00008587,-0.000
 68736,0.00023663,-0.00099873,0.00076966,0.00008400,-0.00006737,0.00054
 006,0.00023519,-0.11755616,-0.28772788,-0.03302355,-0.00820344,-0.0105
 2142,0.00137314,0.12537691,0.29771797,0.00554876,0.01187166,0.00245740
 ,0.00062272,0.00106728,-0.00012208,0.00356491,0.00196496,-0.00088419,-
 0.00116947,0.00061487,0.00104356,0.01028873,-0.03044908,-0.03283389,-0
 .00774250,-0.01713272,0.00196590,-0.01111316,0.03206302,0.02837332\\-0
 .00000795,-0.00000009,0.00000079,0.00000395,-0.00000048,0.00000092,0.0
 0000088,0.00000073,0.00000125,0.00000094,-0.00000133,0.00000018,0.0000
 0497,0.00000268,-0.00000589,-0.00000149,-0.00000122,0.00000115,-0.0000
 0130,-0.00000030,0.00000160\\\@


 I do not feel obliged to believe that the same God who
 has endowed us with sense, reason, and intellect has
 intended us to forgo their use.
                   --Galileo Galilei
 Job cpu time:  0 days  0 hours  5 minutes 56.0 seconds.
 File lengths (MBytes):  RWF=     19 Int=      0 D2E=      0 Chk=      6 Scr=      1
 Normal termination of Gaussian 03 at Mon Mar 30 15:39:25 2009.
