 Entering Gaussian System, Link 0=/apps/gaussian/g03_e01/g03/g03.bin
 Initial command:
 /apps/gaussian/g03_e01/g03/l1.exe /home/rzepa/run/16291/Gau-30033.inp -scrdir=/home/rzepa/run/16291/
 Entering Link 1 = /apps/gaussian/g03_e01/g03/l1.exe PID=     30034.
  
 Copyright (c) 1988,1990,1992,1993,1995,1998,2003,2004,2007, Gaussian, Inc.
                  All Rights Reserved.
  
 This is the Gaussian(R) 03 program.  It is based on the
 the Gaussian(R) 98 system (copyright 1998, Gaussian, Inc.),
 the Gaussian(R) 94 system (copyright 1995, Gaussian, Inc.),
 the Gaussian 92(TM) system (copyright 1992, Gaussian, Inc.),
 the Gaussian 90(TM) system (copyright 1990, Gaussian, Inc.),
 the Gaussian 88(TM) system (copyright 1988, Gaussian, Inc.),
 the Gaussian 86(TM) system (copyright 1986, Carnegie Mellon
 University), and the Gaussian 82(TM) system (copyright 1983,
 Carnegie Mellon University). Gaussian is a federally registered
 trademark of Gaussian, Inc.
  
 This software contains proprietary and confidential information,
 including trade secrets, belonging to Gaussian, Inc.
  
 This software is provided under written license and may be
 used, copied, transmitted, or stored only in accord with that
 written license.
  
 The following legend is applicable only to US Government
 contracts under FAR:
  
                    RESTRICTED RIGHTS LEGEND
  
 Use, reproduction and disclosure by the US Government is
 subject to restrictions as set forth in subparagraphs (a)
 and (c) of the Commercial Computer Software - Restricted
 Rights clause in FAR 52.227-19.
  
 Gaussian, Inc.
 340 Quinnipiac St., Bldg. 40, Wallingford CT 06492
  
  
 ---------------------------------------------------------------
 Warning -- This program may not be used in any manner that
 competes with the business of Gaussian, Inc. or will provide
 assistance to any competitor of Gaussian, Inc.  The licensee
 of this program is prohibited from giving any competitor of
 Gaussian, Inc. access to this program.  By using this program,
 the user acknowledges that Gaussian, Inc. is engaged in the
 business of creating and licensing software in the field of
 computational chemistry and represents and warrants to the
 licensee that it is not a competitor of Gaussian, Inc. and that
 it will not use this program in any manner prohibited above.
 ---------------------------------------------------------------
  

 Cite this work as:
 Gaussian 03, Revision E.01,
 M. J. Frisch, G. W. Trucks, H. B. Schlegel, G. E. Scuseria, 
 M. A. Robb, J. R. Cheeseman, J. A. Montgomery, Jr., T. Vreven, 
 K. N. Kudin, J. C. Burant, J. M. Millam, S. S. Iyengar, J. Tomasi, 
 V. Barone, B. Mennucci, M. Cossi, G. Scalmani, N. Rega, 
 G. A. Petersson, H. Nakatsuji, M. Hada, M. Ehara, K. Toyota, 
 R. Fukuda, J. Hasegawa, M. Ishida, T. Nakajima, Y. Honda, O. Kitao, 
 H. Nakai, M. Klene, X. Li, J. E. Knox, H. P. Hratchian, J. B. Cross, 
 V. Bakken, C. Adamo, J. Jaramillo, R. Gomperts, R. E. Stratmann, 
 O. Yazyev, A. J. Austin, R. Cammi, C. Pomelli, J. W. Ochterski, 
 P. Y. Ayala, K. Morokuma, G. A. Voth, P. Salvador, J. J. Dannenberg, 
 V. G. Zakrzewski, S. Dapprich, A. D. Daniels, M. C. Strain, 
 O. Farkas, D. K. Malick, A. D. Rabuck, K. Raghavachari, 
 J. B. Foresman, J. V. Ortiz, Q. Cui, A. G. Baboul, S. Clifford, 
 J. Cioslowski, B. B. Stefanov, G. Liu, A. Liashenko, P. Piskorz, 
 I. Komaromi, R. L. Martin, D. J. Fox, T. Keith, M. A. Al-Laham, 
 C. Y. Peng, A. Nanayakkara, M. Challacombe, P. M. W. Gill, 
 B. Johnson, W. Chen, M. W. Wong, C. Gonzalez, and J. A. Pople, 
 Gaussian, Inc., Wallingford CT, 2004.
 
 ******************************************
 Gaussian 03:  EM64L-G03RevE.01 11-Sep-2007
                29-May-2009 
 ******************************************
 %nprocshared=8
 Will use up to    8 processors via shared memory.
 %mem=13000MB
 %NoSave
 %Chk=chk.chk
 %rwf=/tmp/pbs.2576570.cx1/rwf
 --------------------------
 # rb3lyp/6-31G(d) opt freq
 --------------------------
 1/14=-1,18=20,26=3,38=1/1,3;
 2/9=110,17=6,18=5,40=1/2;
 3/5=1,6=6,7=1,11=2,16=1,25=1,30=1,74=-5/1,2,3;
 4/7=1/1;
 5/5=2,38=5/2;
 6/7=2,8=2,9=2,10=2,28=1/1;
 7//1,2,3,16;
 1/14=-1,18=20/3(3);
 2/9=110/2;
 6/7=2,8=2,9=2,10=2,19=2,28=1/1;
 99//99;
 2/9=110/2;
 3/5=1,6=6,7=1,11=2,16=1,25=1,30=1,74=-5/1,2,3;
 4/5=5,7=1,16=3/1;
 5/5=2,38=5/2;
 7//1,2,3,16;
 1/14=-1,18=20/3(-5);
 2/9=110/2;
 6/7=2,8=2,9=2,10=2,19=2,28=1/1;
 99/9=1/99;
 -------------------
 Title Card Required
 -------------------
 Symbolic Z-matrix:
 Charge =  0 Multiplicity = 1
 Al                   -2.96525   0.        0. 
 Al                   -2.56759   1.4824    0. 
 Al                   -1.48263   2.56798   0. 
 Al                    0.        2.9648    0. 
 Al                    1.48263   2.56798   0. 
 Al                    2.56759   1.4824    0. 
 Al                    2.96525   0.        0. 
 Al                    2.56759  -1.4824    0. 
 Al                    1.48263  -2.56798   0. 
 Al                    0.       -2.9648    0. 
 Al                   -1.48263  -2.56798   0. 
 Al                   -2.56759  -1.4824    0. 
 

 GradGradGradGradGradGradGradGradGradGradGradGradGradGradGradGradGradGrad
 Berny optimization.
 Initialization pass.
                           ----------------------------
                           !    Initial Parameters    !
                           ! (Angstroms and Degrees)  !
 --------------------------                            --------------------------
 ! Name  Definition              Value          Derivative Info.                !
 --------------------------------------------------------------------------------
 ! R1    R(1,2)                  1.5348         estimate D2E/DX2                !
 ! R2    R(1,3)                  2.9653         estimate D2E/DX2                !
 ! R3    R(1,11)                 2.9653         estimate D2E/DX2                !
 ! R4    R(1,12)                 1.5348         estimate D2E/DX2                !
 ! R5    R(2,3)                  1.5348         estimate D2E/DX2                !
 ! R6    R(2,4)                  2.9648         estimate D2E/DX2                !
 ! R7    R(2,12)                 2.9648         estimate D2E/DX2                !
 ! R8    R(3,4)                  1.5348         estimate D2E/DX2                !
 ! R9    R(3,5)                  2.9653         estimate D2E/DX2                !
 ! R10   R(4,5)                  1.5348         estimate D2E/DX2                !
 ! R11   R(4,6)                  2.9648         estimate D2E/DX2                !
 ! R12   R(5,6)                  1.5348         estimate D2E/DX2                !
 ! R13   R(5,7)                  2.9653         estimate D2E/DX2                !
 ! R14   R(6,7)                  1.5348         estimate D2E/DX2                !
 ! R15   R(6,8)                  2.9648         estimate D2E/DX2                !
 ! R16   R(7,8)                  1.5348         estimate D2E/DX2                !
 ! R17   R(7,9)                  2.9653         estimate D2E/DX2                !
 ! R18   R(8,9)                  1.5348         estimate D2E/DX2                !
 ! R19   R(8,10)                 2.9648         estimate D2E/DX2                !
 ! R20   R(9,10)                 1.5348         estimate D2E/DX2                !
 ! R21   R(9,11)                 2.9653         estimate D2E/DX2                !
 ! R22   R(10,11)                1.5348         estimate D2E/DX2                !
 ! R23   R(10,12)                2.9648         estimate D2E/DX2                !
 ! R24   R(11,12)                1.5348         estimate D2E/DX2                !
 ! A1    A(2,1,11)             134.9837         estimate D2E/DX2                !
 ! A2    A(3,1,11)             120.0            estimate D2E/DX2                !
 ! A3    A(3,1,12)             134.9837         estimate D2E/DX2                !
 ! A4    A(1,2,4)              135.0163         estimate D2E/DX2                !
 ! A5    A(3,2,12)             135.0163         estimate D2E/DX2                !
 ! A6    A(4,2,12)             120.0            estimate D2E/DX2                !
 ! A7    A(1,3,4)              134.9837         estimate D2E/DX2                !
 ! A8    A(1,3,5)              120.0            estimate D2E/DX2                !
 ! A9    A(2,3,5)              134.9837         estimate D2E/DX2                !
 ! A10   A(2,4,5)              135.0163         estimate D2E/DX2                !
 ! A11   A(2,4,6)              120.0            estimate D2E/DX2                !
 ! A12   A(3,4,6)              135.0163         estimate D2E/DX2                !
 ! A13   A(3,5,6)              134.9837         estimate D2E/DX2                !
 ! A14   A(3,5,7)              120.0            estimate D2E/DX2                !
 ! A15   A(4,5,7)              134.9837         estimate D2E/DX2                !
 ! A16   A(4,6,7)              135.0163         estimate D2E/DX2                !
 ! A17   A(4,6,8)              120.0            estimate D2E/DX2                !
 ! A18   A(5,6,8)              135.0163         estimate D2E/DX2                !
 ! A19   A(5,7,8)              134.9837         estimate D2E/DX2                !
 ! A20   A(5,7,9)              120.0            estimate D2E/DX2                !
 ! A21   A(6,7,9)              134.9837         estimate D2E/DX2                !
 ! A22   A(6,8,9)              135.0163         estimate D2E/DX2                !
 ! A23   A(6,8,10)             120.0            estimate D2E/DX2                !
 ! A24   A(7,8,10)             135.0163         estimate D2E/DX2                !
 ! A25   A(7,9,10)             134.9837         estimate D2E/DX2                !
 ! A26   A(7,9,11)             120.0            estimate D2E/DX2                !
 ! A27   A(8,9,11)             134.9837         estimate D2E/DX2                !
 ! A28   A(8,10,11)            135.0163         estimate D2E/DX2                !
 ! A29   A(8,10,12)            120.0            estimate D2E/DX2                !
 ! A30   A(9,10,12)            135.0163         estimate D2E/DX2                !
 ! A31   A(1,11,9)             120.0            estimate D2E/DX2                !
 ! A32   A(1,11,10)            134.9837         estimate D2E/DX2                !
 ! A33   A(9,11,12)            134.9837         estimate D2E/DX2                !
 ! A34   A(1,12,10)            135.0163         estimate D2E/DX2                !
 ! A35   A(2,12,10)            120.0            estimate D2E/DX2                !
 ! A36   A(2,12,11)            135.0163         estimate D2E/DX2                !
 ! D1    D(11,1,2,4)             0.0            estimate D2E/DX2                !
 ! D2    D(11,1,3,4)             0.0            estimate D2E/DX2                !
 ! D3    D(11,1,3,5)             0.0            estimate D2E/DX2                !
 ! D4    D(12,1,3,4)             0.0            estimate D2E/DX2                !
 ! D5    D(12,1,3,5)             0.0            estimate D2E/DX2                !
 ! D6    D(2,1,11,9)             0.0            estimate D2E/DX2                !
 ! D7    D(2,1,11,10)            0.0            estimate D2E/DX2                !
 ! D8    D(3,1,11,9)             0.0            estimate D2E/DX2                !
 ! D9    D(3,1,11,10)            0.0            estimate D2E/DX2                !
 ! D10   D(3,1,12,10)            0.0            estimate D2E/DX2                !
 ! D11   D(12,2,3,5)             0.0            estimate D2E/DX2                !
 ! D12   D(1,2,4,5)              0.0            estimate D2E/DX2                !
 ! D13   D(1,2,4,6)              0.0            estimate D2E/DX2                !
 ! D14   D(12,2,4,5)             0.0            estimate D2E/DX2                !
 ! D15   D(12,2,4,6)             0.0            estimate D2E/DX2                !
 ! D16   D(3,2,12,10)            0.0            estimate D2E/DX2                !
 ! D17   D(3,2,12,11)            0.0            estimate D2E/DX2                !
 ! D18   D(4,2,12,10)            0.0            estimate D2E/DX2                !
 ! D19   D(4,2,12,11)            0.0            estimate D2E/DX2                !
 ! D20   D(1,3,4,6)              0.0            estimate D2E/DX2                !
 ! D21   D(1,3,5,6)              0.0            estimate D2E/DX2                !
 ! D22   D(1,3,5,7)              0.0            estimate D2E/DX2                !
 ! D23   D(2,3,5,6)              0.0            estimate D2E/DX2                !
 ! D24   D(2,3,5,7)              0.0            estimate D2E/DX2                !
 ! D25   D(2,4,5,7)              0.0            estimate D2E/DX2                !
 ! D26   D(2,4,6,7)              0.0            estimate D2E/DX2                !
 ! D27   D(2,4,6,8)              0.0            estimate D2E/DX2                !
 ! D28   D(3,4,6,7)              0.0            estimate D2E/DX2                !
 ! D29   D(3,4,6,8)              0.0            estimate D2E/DX2                !
 ! D30   D(3,5,6,8)              0.0            estimate D2E/DX2                !
 ! D31   D(3,5,7,8)              0.0            estimate D2E/DX2                !
 ! D32   D(3,5,7,9)              0.0            estimate D2E/DX2                !
 ! D33   D(4,5,7,8)              0.0            estimate D2E/DX2                !
 ! D34   D(4,5,7,9)              0.0            estimate D2E/DX2                !
 ! D35   D(4,6,7,9)              0.0            estimate D2E/DX2                !
 ! D36   D(4,6,8,9)              0.0            estimate D2E/DX2                !
 ! D37   D(4,6,8,10)             0.0            estimate D2E/DX2                !
 ! D38   D(5,6,8,9)              0.0            estimate D2E/DX2                !
 ! D39   D(5,6,8,10)             0.0            estimate D2E/DX2                !
 ! D40   D(5,7,8,10)             0.0            estimate D2E/DX2                !
 ! D41   D(5,7,9,10)             0.0            estimate D2E/DX2                !
 ! D42   D(5,7,9,11)             0.0            estimate D2E/DX2                !
 ! D43   D(6,7,9,10)             0.0            estimate D2E/DX2                !
 ! D44   D(6,7,9,11)             0.0            estimate D2E/DX2                !
 ! D45   D(6,8,9,11)             0.0            estimate D2E/DX2                !
 ! D46   D(6,8,10,11)            0.0            estimate D2E/DX2                !
 ! D47   D(6,8,10,12)            0.0            estimate D2E/DX2                !
 ! D48   D(7,8,10,11)            0.0            estimate D2E/DX2                !
 ! D49   D(7,8,10,12)            0.0            estimate D2E/DX2                !
 ! D50   D(7,9,10,12)            0.0            estimate D2E/DX2                !
 ! D51   D(7,9,11,1)             0.0            estimate D2E/DX2                !
 ! D52   D(7,9,11,12)            0.0            estimate D2E/DX2                !
 ! D53   D(8,9,11,1)             0.0            estimate D2E/DX2                !
 ! D54   D(8,9,11,12)            0.0            estimate D2E/DX2                !
 ! D55   D(8,10,11,1)            0.0            estimate D2E/DX2                !
 ! D56   D(8,10,12,1)            0.0            estimate D2E/DX2                !
 ! D57   D(8,10,12,2)            0.0            estimate D2E/DX2                !
 ! D58   D(9,10,12,1)            0.0            estimate D2E/DX2                !
 ! D59   D(9,10,12,2)            0.0            estimate D2E/DX2                !
 ! D60   D(9,11,12,2)            0.0            estimate D2E/DX2                !
 --------------------------------------------------------------------------------
 Trust Radius=3.00D-01 FncErr=1.00D-07 GrdErr=1.00D-06
 Number of steps in this run= 100 maximum allowed number of steps= 100.
 GradGradGradGradGradGradGradGradGradGradGradGradGradGradGradGradGradGrad

                          Input orientation:                          
 ---------------------------------------------------------------------
 Center     Atomic     Atomic              Coordinates (Angstroms)
 Number     Number      Type              X           Y           Z
 ---------------------------------------------------------------------
    1         13             0       -2.965253    0.000000    0.000000
    2         13             0       -2.567593    1.482401    0.000000
    3         13             0       -1.482627    2.567985    0.000000
    4         13             0        0.000000    2.964801    0.000000
    5         13             0        1.482627    2.567985    0.000000
    6         13             0        2.567593    1.482401    0.000000
    7         13             0        2.965253    0.000000    0.000000
    8         13             0        2.567593   -1.482401    0.000000
    9         13             0        1.482627   -2.567985    0.000000
   10         13             0        0.000000   -2.964801    0.000000
   11         13             0       -1.482627   -2.567985    0.000000
   12         13             0       -2.567593   -1.482401    0.000000
 ---------------------------------------------------------------------
                    Distance matrix (angstroms):
                    1          2          3          4          5
     1  Al   0.000000
     2  Al   1.534811   0.000000
     3  Al   2.965253   1.534811   0.000000
     4  Al   4.193182   2.964801   1.534811   0.000000
     5  Al   5.135969   4.193182   2.965253   1.534811   0.000000
     6  Al   5.727993   5.135187   4.193182   2.964801   1.534811
     7  Al   5.930507   5.727993   5.135969   4.193182   2.965253
     8  Al   5.727993   5.929603   5.727993   5.135187   4.193182
     9  Al   5.135969   5.727993   5.930507   5.727993   5.135969
    10  Al   4.193182   5.135187   5.727993   5.929603   5.727993
    11  Al   2.965253   4.193182   5.135969   5.727993   5.930507
    12  Al   1.534811   2.964801   4.193182   5.135187   5.727993
                    6          7          8          9         10
     6  Al   0.000000
     7  Al   1.534811   0.000000
     8  Al   2.964801   1.534811   0.000000
     9  Al   4.193182   2.965253   1.534811   0.000000
    10  Al   5.135187   4.193182   2.964801   1.534811   0.000000
    11  Al   5.727993   5.135969   4.193182   2.965253   1.534811
    12  Al   5.929603   5.727993   5.135187   4.193182   2.964801
                   11         12
    11  Al   0.000000
    12  Al   1.534811   0.000000
 Stoichiometry    Al12
 Framework group  D6H[3C2'(Al.Al),3C2"(Al.Al)]
 Deg. of freedom     2
 Full point group                 D6H
 Largest Abelian subgroup         D2H     NOp   8
 Largest concise Abelian subgroup D2      NOp   4
                         Standard orientation:                         
 ---------------------------------------------------------------------
 Center     Atomic     Atomic              Coordinates (Angstroms)
 Number     Number      Type              X           Y           Z
 ---------------------------------------------------------------------
    1         13             0        1.482627    2.567985    0.000000
    2         13             0        0.000000    2.964801    0.000000
    3         13             0       -1.482627    2.567985    0.000000
    4         13             0       -2.567593    1.482401    0.000000
    5         13             0       -2.965253    0.000000    0.000000
    6         13             0       -2.567593   -1.482401    0.000000
    7         13             0       -1.482627   -2.567985    0.000000
    8         13             0        0.000000   -2.964801    0.000000
    9         13             0        1.482627   -2.567985    0.000000
   10         13             0        2.567593   -1.482401    0.000000
   11         13             0        2.965253    0.000000    0.000000
   12         13             0        2.567593    1.482401    0.000000
 ---------------------------------------------------------------------
 Rotational constants (GHZ):      0.3550927      0.3550927      0.1775464
 Standard basis: 6-31G(d) (6D, 7F)
 There are    48 symmetry adapted basis functions of AG  symmetry.
 There are    36 symmetry adapted basis functions of B1G symmetry.
 There are    15 symmetry adapted basis functions of B2G symmetry.
 There are    15 symmetry adapted basis functions of B3G symmetry.
 There are    12 symmetry adapted basis functions of AU  symmetry.
 There are    18 symmetry adapted basis functions of B1U symmetry.
 There are    42 symmetry adapted basis functions of B2U symmetry.
 There are    42 symmetry adapted basis functions of B3U symmetry.
 Integral buffers will be    131072 words long.
 Raffenetti 2 integral format.
 Two-electron integral symmetry is turned on.
   228 basis functions,   624 primitive gaussians,   228 cartesian basis functions
    78 alpha electrons       78 beta electrons
       nuclear repulsion energy      1803.9054662813 Hartrees.
 NAtoms=   12 NActive=   12 NUniq=    2 SFac= 3.00D+00 NAtFMM=   80 NAOKFM=F Big=F
 One-electron integrals computed using PRISM.
 NBasis=   228 RedAO= T  NBF=    48    36    15    15    12    18    42    42
 NBsUse=   225 1.00D-06 NBFU=    48    35    15    15    12    18    41    41
 Harris functional with IExCor=  402 diagonalized for initial guess.
 ExpMin= 5.57D-02 ExpMax= 1.40D+04 ExpMxC= 2.10D+03 IAcc=2 IRadAn=         4 AccDes= 0.00D+00
 HarFok:  IExCor= 402 AccDes= 0.00D+00 IRadAn=         4 IDoV=1
 ScaDFX=  1.000000  1.000000  1.000000  1.000000
 Initial guess orbital symmetries:
       Occupied  (A1G) (E1U) (E1U) (E2G) (E2G) (B1U) (B2U) (E2G)
                 (E2G) (E1U) (E1U) (A1G) (A1G) (E1U) (E1U) (E2G)
                 (E2G) (B2U) (B1U) (E2G) (E2G) (E1U) (E1U) (A1G)
                 (A2G) (E1U) (E1U) (E2G) (E2G) (B2U) (B1U) (E2G)
                 (E2G) (E1U) (E1U) (A1G) (A2U) (E1G) (E1G) (E2U)
                 (E2U) (E2G) (E2G) (B2G) (B1G) (B1U) (B2U) (E2U)
                 (E2U) (E2G) (E2G) (E1G) (E1G) (E1U) (E1U) (A2U)
                 (E1U) (E1U) (A1G) (A2G) (A1G) (E1U) (E1U) (E2G)
                 (E2G) (B2U) (B1U) (A1G) (E2G) (E2G) (A2U) (E1U)
                 (E1U) (E1G) (E1G) (E2U) (E2U) (E2G)
       Virtual   (E2G) (E1U) (E1U) (A2G) (B1G) (B2G) (B2U) (B1U)
                 (E2U) (E2U) (E2G) (E2G) (A1G) (A1G) (E1G) (E1G)
                 (E1U) (E1U) (E1U) (E1U) (E2G) (E2G) (A2U) (A1G)
                 (E1G) (E1G) (E1U) (E1U) (B2U) (B1U) (E1U) (E1U)
                 (E2G) (E2G) (E2U) (E2U) (A1U) (E2G) (E2G) (A1G)
                 (A2U) (A2G) (B2G) (B1G) (B1U) (B2U) (E1G) (E1G)
                 (E2G) (E2G) (A2U) (E2U) (E2U) (?A) (?A) (?A) (?A)
                 (A1G) (E2U) (E2U) (E1G) (E1G) (E2G) (E2G) (E1U)
                 (E1U) (B2U) (B1U) (E2G) (E2G) (A2G) (B2G) (B1G)
                 (E1G) (E1G) (A2U) (E2G) (E2G) (E1U) (E1U) (B2U)
                 (B1U) (E2G) (E2G) (A1G) (E1U) (E1U) (A1G) (E2U)
                 (E2U) (B1U) (B2U) (A1G) (E2G) (E2G) (E1U) (E1U)
                 (E2G) (E2G) (E2U) (E2U) (B2G) (B1G) (E1G) (E1G)
                 (E2G) (E2G) (B1U) (B2U) (A2U) (E2G) (E2G) (E1U)
                 (E1U) (E2U) (E2U) (A1G) (E1U) (E1U) (A2G) (E1G)
                 (E1G) (A1U) (E2G) (E2G) (A1G) (E1U) (E1U) (B2U)
                 (B1U) (E1U) (E1U) (E2G) (E2G) (E1U) (E1U) (A1G)
                 (E2G) (E2G) (A2G) (B1U) (B2U) (E2G) (E2G) (E1U)
                 (E1U) (A1G)
 Requested convergence on RMS density matrix=1.00D-08 within 128 cycles.
 Requested convergence on MAX density matrix=1.00D-06.
 Requested convergence on             energy=1.00D-06.
 No special actions if energy rises.
 Keep R1 integrals in memory in canonical form, NReq=   347898779.
 Integral accuracy reduced to 1.0D-05 until final iterations.
 Density matrix breaks symmetry, PCut= 1.00D-04
 Density has only Abelian symmetry.
 Density matrix breaks symmetry, PCut= 1.00D-04
 Density has only Abelian symmetry.
 Density matrix breaks symmetry, PCut= 1.00D-04
 Density has only Abelian symmetry.
 Density matrix breaks symmetry, PCut= 1.00D-04
 Density has only Abelian symmetry.
 Density matrix breaks symmetry, PCut= 1.00D-04
 Density has only Abelian symmetry.
 Density matrix breaks symmetry, PCut= 1.00D-04
 Density has only Abelian symmetry.
 Density matrix breaks symmetry, PCut= 1.00D-04
 Density has only Abelian symmetry.
 Density matrix breaks symmetry, PCut= 1.00D-04
 Density has only Abelian symmetry.
 Density matrix breaks symmetry, PCut= 1.00D-04
 Density has only Abelian symmetry.
 Initial convergence to 1.0D-05 achieved.  Increase integral accuracy.
 Density matrix breaks symmetry, PCut= 1.00D-04
 Density has only Abelian symmetry.
 Density matrix breaks symmetry, PCut= 1.00D-04
 Density has only Abelian symmetry.
 Density matrix breaks symmetry, PCut= 1.00D-04
 Density has only Abelian symmetry.
 Density matrix breaks symmetry, PCut= 1.00D-04
 Density has only Abelian symmetry.
 Density matrix breaks symmetry, PCut= 1.00D-04
 Density has only Abelian symmetry.
 Density matrix breaks symmetry, PCut= 1.00D-04
 Density has only Abelian symmetry.
 Density matrix breaks symmetry, PCut= 1.00D-04
 Density has only Abelian symmetry.
 Density matrix breaks symmetry, PCut= 1.00D-04
 Density has only Abelian symmetry.
 Density matrix breaks symmetry, PCut= 1.00D-04
 Density has only Abelian symmetry.
 Density matrix breaks symmetry, PCut= 1.00D-04
 Density has only Abelian symmetry.
 Density matrix breaks symmetry, PCut= 1.00D-04
 Density has only Abelian symmetry.
 Density matrix breaks symmetry, PCut= 1.00D-04
 Density has only Abelian symmetry.
 SCF Done:  E(RB+HF-LYP) =  -2904.67601617     A.U. after   20 cycles
             Convg  =    0.9365D-08             -V/T =  1.9964
             S**2   =   0.0000

 **********************************************************************

            Population analysis using the SCF density.

 **********************************************************************

 Orbital symmetries:
       Occupied  (?A) (?B) (?B) (?A) (?A) (?B) (?B) (?A) (?A) (?B)
                 (?B) (?A) (?C) (?B) (?B) (?C) (?C) (?B) (?B) (?C)
                 (?C) (?B) (?B) (?C) (?B) (?D) (?D) (?B) (?B) (?D)
                 (?D) (?B) (?B) (?D) (?D) (?B) (?D) (?D) (?D) (?D)
                 (?D) (?D) (?D) (?B) (?D) (?D) (?B) (?D) (?B) (?D)
                 (?D) (?B) (?D) (?D) (?D) (?D) (?B) (?D) (?D) (?B)
                 (B2G) (?D) (?D) (B2G) (B2G) (?D) (?D) (B2G) (?D)
                 (B2G) (B2G) (?D) (?D) (?D) (?D) (?D) (?D) (B2G)
       Virtual   (B2G) (?D) (?D) (?D) (?D) (B2G) (?D) (?D) (?D)
                 (?D) (?C) (?C) (?C) (B2G) (?D) (?D) (B2G) (B2G)
                 (?D) (?D) (?D) (?D) (?D) (?D) (?D) (?D) (?D) (B2G)
                 (?D) (?D) (?D) (?D) (?D) (?D) (B2G) (B2G) (B2G)
                 (?D) (?D) (B2G) (B2G) (?D) (?D) (B2G) (B2G) (B2G)
                 (B2G) (?D) (?D) (?D) (?D) (?D) (?D) (?D) (?D)
                 (?D) (?D) (?D) (?D) (?D) (B2G) (B2G) (?D) (?D)
                 (?D) (?D) (?D) (?D) (?D) (?D) (?D) (B2G) (B2G)
                 (?D) (?D) (?D) (?D) (?D) (?D) (?D) (?D) (?D) (?D)
                 (?D) (?D) (B2G) (?D) (?D) (?D) (?D) (?D) (?D)
                 (?D) (?D) (?D) (?D) (?D) (B2G) (B2G) (?D) (?D)
                 (B2G) (B1G) (E1G) (E1G) (?B) (?B) (?D) (?D) (?D)
                 (?D) (A2U) (?B) (?B) (E2U) (E2U) (?B) (?B) (A1G)
                 (?D) (E1G) (E1G) (A1U) (?D) (?D) (?D) (?D) (?D)
                 (?D) (?D) (?D) (?D) (?D) (?D) (?D) (?D) (?D) (?D)
                 (?D) (?D) (B1U) (B2U) (E2G) (E2G) (E1U) (E1U)
                 (A1G)
 Unable to determine electronic state:  an orbital has unidentified symmetry.
 Alpha  occ. eigenvalues --  -56.12094 -56.12087 -56.12087 -56.12085 -56.12076
 Alpha  occ. eigenvalues --  -56.12076 -56.12076 -56.12074 -56.09898 -56.09894
 Alpha  occ. eigenvalues --  -56.09894 -56.09892  -4.28051  -4.27815  -4.27815
 Alpha  occ. eigenvalues --   -4.27414  -4.26428  -4.25768  -4.25768  -4.25147
 Alpha  occ. eigenvalues --   -4.23763  -4.23390  -4.23389  -4.23143  -2.89976
 Alpha  occ. eigenvalues --   -2.89226  -2.89226  -2.87498  -2.86449  -2.83931
 Alpha  occ. eigenvalues --   -2.83928  -2.81483  -2.81440  -2.80898  -2.80897
 Alpha  occ. eigenvalues --   -2.80881  -2.80078  -2.80003  -2.80002  -2.79892
 Alpha  occ. eigenvalues --   -2.79201  -2.79127  -2.79126  -2.79101  -2.79025
 Alpha  occ. eigenvalues --   -2.79025  -2.79022  -2.78872  -2.78699  -2.77592
 Alpha  occ. eigenvalues --   -2.77591  -2.77443  -2.77425  -2.77362  -2.77361
 Alpha  occ. eigenvalues --   -2.77305  -2.77271  -2.77247  -2.77246  -2.76735
 Alpha  occ. eigenvalues --   -0.54844  -0.52497  -0.52496  -0.46679  -0.45989
 Alpha  occ. eigenvalues --   -0.37727  -0.37724  -0.29474  -0.28533  -0.27822
 Alpha  occ. eigenvalues --   -0.27451  -0.26492  -0.26491  -0.26344  -0.26343
 Alpha  occ. eigenvalues --   -0.21136  -0.20379  -0.19236
 Alpha virt. eigenvalues --   -0.16873  -0.15740  -0.15740  -0.10622  -0.10619
 Alpha virt. eigenvalues --   -0.09528  -0.07162  -0.07149  -0.00838  -0.00731
 Alpha virt. eigenvalues --    0.03012   0.03295   0.03359   0.05186   0.05516
 Alpha virt. eigenvalues --    0.05517   0.08124   0.08418   0.08868   0.08868
 Alpha virt. eigenvalues --    0.10046   0.10046   0.10057   0.12176   0.12181
 Alpha virt. eigenvalues --    0.12289   0.12290   0.12900   0.14190   0.14528
 Alpha virt. eigenvalues --    0.15721   0.15723   0.16047   0.16047   0.16752
 Alpha virt. eigenvalues --    0.17154   0.18001   0.18085   0.18089   0.18118
 Alpha virt. eigenvalues --    0.19983   0.22083   0.22087   0.22454   0.22793
 Alpha virt. eigenvalues --    0.22842   0.22889   0.22930   0.23342   0.23360
 Alpha virt. eigenvalues --    0.23603   0.23740   0.25464   0.25466   0.25801
 Alpha virt. eigenvalues --    0.25801   0.29021   0.29021   0.29208   0.29210
 Alpha virt. eigenvalues --    0.30652   0.30695   0.33474   0.33952   0.33952
 Alpha virt. eigenvalues --    0.34108   0.34580   0.34583   0.38615   0.39150
 Alpha virt. eigenvalues --    0.39417   0.43707   0.43924   0.44436   0.44437
 Alpha virt. eigenvalues --    0.44462   0.44643   0.44645   0.45656   0.45664
 Alpha virt. eigenvalues --    0.46587   0.46601   0.47758   0.47758   0.52897
 Alpha virt. eigenvalues --    0.54658   0.56298   0.56298   0.56870   0.57169
 Alpha virt. eigenvalues --    0.57244   0.57566   0.58089   0.58091   0.58890
 Alpha virt. eigenvalues --    0.65807   0.65808   0.66017   0.66358   0.71418
 Alpha virt. eigenvalues --    0.71481   0.82257   0.82273   0.84851   0.84851
 Alpha virt. eigenvalues --    0.88920   0.88992   0.89870   0.89894   0.92405
 Alpha virt. eigenvalues --    0.92617   0.94450   0.97952   0.97955   1.00281
 Alpha virt. eigenvalues --    1.00391   1.02200   1.02204   1.05533   1.10086
 Alpha virt. eigenvalues --    1.29280   1.29280   1.57612   1.90345   1.92558
 Alpha virt. eigenvalues --    1.93343   1.94294   1.94295   1.97718   1.97755
 Alpha virt. eigenvalues --    2.04080   2.04087   2.05577   2.05620   2.14661
 Alpha virt. eigenvalues --    2.14665   2.14752   2.22590   2.22944   2.38544
 Alpha virt. eigenvalues --    2.66389   2.66513   3.27783   3.27801   4.68765
 Alpha virt. eigenvalues --    4.68783   7.71537
          Condensed to atoms (all electrons):
              1          2          3          4          5          6
     1  Al  14.341573   1.088430  -0.115514   0.086239   0.001826  -0.044783
     2  Al   1.088430  15.950581   1.088430  -1.998837  -0.951234   0.003015
     3  Al  -0.115514   1.088430  14.341573  -1.047630  -2.006583   0.088051
     4  Al   0.086239  -1.998837  -1.047630  14.338383   1.085225  -0.113240
     5  Al   0.001826  -0.951234  -2.006583   1.085225  15.968706   1.085225
     6  Al  -0.044783   0.003015   0.088051  -0.113240   1.085225  14.338383
     7  Al   0.009797   0.191563   0.506288   0.088051  -2.006583  -1.047630
     8  Al   0.191563   0.182316   0.191563   0.003015  -0.951234  -1.998837
     9  Al   0.506288   0.191563   0.009797  -0.044783   0.001826   0.086239
    10  Al   0.088051   0.003015  -0.044783   0.009829   0.191823   0.506439
    11  Al  -2.006583  -0.951234   0.001826   0.191823   0.182861   0.191823
    12  Al  -1.047630  -1.998837   0.086239   0.506439   0.191823   0.009829
              7          8          9         10         11         12
     1  Al   0.009797   0.191563   0.506288   0.088051  -2.006583  -1.047630
     2  Al   0.191563   0.182316   0.191563   0.003015  -0.951234  -1.998837
     3  Al   0.506288   0.191563   0.009797  -0.044783   0.001826   0.086239
     4  Al   0.088051   0.003015  -0.044783   0.009829   0.191823   0.506439
     5  Al  -2.006583  -0.951234   0.001826   0.191823   0.182861   0.191823
     6  Al  -1.047630  -1.998837   0.086239   0.506439   0.191823   0.009829
     7  Al  14.341573   1.088430  -0.115514   0.086239   0.001826  -0.044783
     8  Al   1.088430  15.950581   1.088430  -1.998837  -0.951234   0.003015
     9  Al  -0.115514   1.088430  14.341573  -1.047630  -2.006583   0.088051
    10  Al   0.086239  -1.998837  -1.047630  14.338383   1.085225  -0.113240
    11  Al   0.001826  -0.951234  -2.006583   1.085225  15.968706   1.085225
    12  Al  -0.044783   0.003015   0.088051  -0.113240   1.085225  14.338383
 Mulliken atomic charges:
              1
     1  Al  -0.099258
     2  Al   0.201226
     3  Al  -0.099258
     4  Al  -0.104515
     5  Al   0.206319
     6  Al  -0.104515
     7  Al  -0.099258
     8  Al   0.201226
     9  Al  -0.099258
    10  Al  -0.104515
    11  Al   0.206319
    12  Al  -0.104515
 Sum of Mulliken charges=   0.00000
 Atomic charges with hydrogens summed into heavy atoms:
              1
     1  Al  -0.099258
     2  Al   0.201226
     3  Al  -0.099258
     4  Al  -0.104515
     5  Al   0.206319
     6  Al  -0.104515
     7  Al  -0.099258
     8  Al   0.201226
     9  Al  -0.099258
    10  Al  -0.104515
    11  Al   0.206319
    12  Al  -0.104515
 Sum of Mulliken charges=   0.00000
 Electronic spatial extent (au):  <R**2>=  5205.0241
 Charge=     0.0000 electrons
 Dipole moment (field-independent basis, Debye):
    X=     0.0000    Y=     0.0000    Z=     0.0000  Tot=     0.0000
 Quadrupole moment (field-independent basis, Debye-Ang):
   XX=  -132.5707   YY=  -132.5551   ZZ=  -148.4243
   XY=     0.0000   XZ=     0.0000   YZ=     0.0000
 Traceless Quadrupole moment (field-independent basis, Debye-Ang):
   XX=     5.2794   YY=     5.2949   ZZ=   -10.5743
   XY=     0.0000   XZ=     0.0000   YZ=     0.0000
 Octapole moment (field-independent basis, Debye-Ang**2):
  XXX=     0.0000  YYY=     0.0000  ZZZ=     0.0000  XYY=     0.0000
  XXY=     0.0000  XXZ=     0.0000  XZZ=     0.0000  YZZ=     0.0000
  YYZ=     0.0000  XYZ=     0.0000
 Hexadecapole moment (field-independent basis, Debye-Ang**3):
 XXXX= -3970.3096 YYYY= -3969.9492 ZZZZ=  -280.7083 XXXY=     0.0000
 XXXZ=     0.0000 YYYX=     0.0000 YYYZ=     0.0000 ZZZX=     0.0000
 ZZZY=     0.0000 XXYY= -1228.6213 XXZZ=  -744.5360 YYZZ=  -744.5313
 XXYZ=     0.0000 YYXZ=     0.0000 ZZXY=     0.0000
 N-N= 1.803905466281D+03 E-N=-1.053945587618D+04  KE= 2.915247664742D+03
 Symmetry AG   KE= 8.523627875671D+02
 Symmetry B1G  KE= 4.844526436928D+02
 Symmetry B2G  KE= 6.091730895247D+01
 Symmetry B3G  KE= 6.091732043836D+01
 Symmetry AU   KE= 4.143011150112D+01
 Symmetry B1U  KE= 8.263075915518D+01
 Symmetry B2U  KE= 6.662681030906D+02
 Symmetry B3U  KE= 6.662686303442D+02
 Density matrix has only Abelian symmetry.
 Density matrix has only Abelian symmetry.
 ***** Axes restored to original set *****
 -------------------------------------------------------------------
 Center     Atomic                   Forces (Hartrees/Bohr)
 Number     Number              X              Y              Z
 -------------------------------------------------------------------
    1         13          -0.305801438    0.020892173    0.000000000
    2         13          -0.281341006    0.162432306    0.000000000
    3         13          -0.170993871    0.254385728    0.000000000
    4         13           0.020911710    0.305051670    0.000000000
    5         13           0.162797996    0.281974400    0.000000000
    6         13           0.253726640    0.170635907    0.000000000
    7         13           0.305801438   -0.020892173    0.000000000
    8         13           0.281341006   -0.162432306    0.000000000
    9         13           0.170993871   -0.254385728    0.000000000
   10         13          -0.020911710   -0.305051670    0.000000000
   11         13          -0.162797996   -0.281974400    0.000000000
   12         13          -0.253726640   -0.170635907    0.000000000
 -------------------------------------------------------------------
 Cartesian Forces:  Max     0.305801438 RMS     0.180499217

 GradGradGradGradGradGradGradGradGradGradGradGradGradGradGradGradGradGrad
 Berny optimization.
 Internal  Forces:  Max     0.250956178 RMS     0.087679736
 Search for a local minimum.
 Step number   1 out of a maximum of 100
 All quantities printed in internal units (Hartrees-Bohrs-Radians)
 Second derivative matrix not updated -- first step.
     Eigenvalues ---    0.03122   0.03122   0.03585   0.03586   0.04289
     Eigenvalues ---    0.04289   0.05518   0.05518   0.07281   0.13833
     Eigenvalues ---    0.16163   0.16163   0.19694   0.19694   0.21767
     Eigenvalues ---    0.21778   0.22741   0.22741   0.66635   0.75308
     Eigenvalues ---    0.75308   0.91084   0.91084   1.25440   1.25513
     Eigenvalues ---    1.92851   1.92851   2.73325   2.73325   2.96047
     Eigenvalues --- 1000.000001000.000001000.000001000.000001000.00000
     Eigenvalues --- 1000.000001000.000001000.000001000.000001000.00000
     Eigenvalues --- 1000.000001000.000001000.000001000.000001000.00000
     Eigenvalues --- 1000.000001000.000001000.000001000.000001000.00000
     Eigenvalues --- 1000.000001000.000001000.000001000.000001000.00000
     Eigenvalues --- 1000.000001000.000001000.000001000.000001000.00000
     Eigenvalues --- 1000.000001000.000001000.000001000.000001000.00000
     Eigenvalues --- 1000.000001000.000001000.000001000.000001000.00000
     Eigenvalues --- 1000.000001000.000001000.000001000.000001000.00000
     Eigenvalues --- 1000.000001000.000001000.000001000.000001000.00000
     Eigenvalues --- 1000.000001000.000001000.000001000.000001000.00000
     Eigenvalues --- 1000.000001000.000001000.000001000.000001000.00000
     Eigenvalues --- 1000.000001000.000001000.000001000.000001000.00000
     Eigenvalues --- 1000.000001000.000001000.000001000.000001000.00000
     Eigenvalues --- 1000.000001000.000001000.000001000.000001000.00000
     Eigenvalues --- 1000.000001000.000001000.000001000.000001000.00000
     Eigenvalues --- 1000.000001000.000001000.000001000.000001000.00000
     Eigenvalues --- 1000.000001000.000001000.000001000.000001000.00000
 RFO step:  Lambda=-6.83599261D-01.
 Linear search not attempted -- first point.
 Maximum step size (   0.300) exceeded in Quadratic search.
    -- Step size scaled by   0.421
 Iteration  1 RMS(Cart)=  0.02430777 RMS(Int)=  0.00001349
 Iteration  2 RMS(Cart)=  0.00000882 RMS(Int)=  0.00000596
 Iteration  3 RMS(Cart)=  0.00000000 RMS(Int)=  0.00000596
 Variable       Old X    -DE/DX   Delta X   Delta X   Delta X     New X
                                 (Linear)    (Quad)   (Total)
    R1        2.90037   0.12454   0.00000   0.03926   0.04022   2.94059
    R2        5.60352   0.23686   0.00000   0.07348   0.07515   5.67867
    R3        5.60352   0.25096   0.00000   0.07858   0.07515   5.67867
    R4        2.90037   0.13307   0.00000   0.04078   0.04022   2.94059
    R5        2.90037   0.12454   0.00000   0.03926   0.04022   2.94059
    R6        5.60266   0.25062   0.00000   0.07848   0.08022   5.68288
    R7        5.60266   0.25062   0.00000   0.07848   0.08022   5.68288
    R8        2.90037   0.13307   0.00000   0.04078   0.04022   2.94059
    R9        5.60352   0.25096   0.00000   0.07858   0.07515   5.67867
   R10        2.90037   0.12454   0.00000   0.03926   0.04022   2.94059
   R11        5.60266   0.23651   0.00000   0.07337   0.08022   5.68288
   R12        2.90037   0.12454   0.00000   0.03926   0.04022   2.94059
   R13        5.60352   0.25096   0.00000   0.07858   0.07515   5.67867
   R14        2.90037   0.13307   0.00000   0.04078   0.04022   2.94059
   R15        5.60266   0.25062   0.00000   0.07848   0.08022   5.68288
   R16        2.90037   0.12454   0.00000   0.03926   0.04022   2.94059
   R17        5.60352   0.23686   0.00000   0.07348   0.07515   5.67867
   R18        2.90037   0.12454   0.00000   0.03926   0.04022   2.94059
   R19        5.60266   0.25062   0.00000   0.07848   0.08022   5.68288
   R20        2.90037   0.13307   0.00000   0.04078   0.04022   2.94059
   R21        5.60352   0.25096   0.00000   0.07858   0.07515   5.67867
   R22        2.90037   0.12454   0.00000   0.03926   0.04022   2.94059
   R23        5.60266   0.23651   0.00000   0.07337   0.08022   5.68288
   R24        2.90037   0.12454   0.00000   0.03926   0.04022   2.94059
    A1        2.35591   0.00421   0.00000   0.00246   0.00167   2.35758
    A2        2.09440   0.00170   0.00000   0.00088   0.00000   2.09440
    A3        2.35591  -0.00010   0.00000  -0.00003   0.00167   2.35758
    A4        2.35648  -0.00421   0.00000  -0.00246  -0.00167   2.35481
    A5        2.35648  -0.00421   0.00000  -0.00246  -0.00167   2.35481
    A6        2.09440  -0.00340   0.00000  -0.00176   0.00000   2.09440
    A7        2.35591  -0.00010   0.00000  -0.00003   0.00167   2.35758
    A8        2.09440   0.00170   0.00000   0.00088   0.00000   2.09440
    A9        2.35591   0.00421   0.00000   0.00246   0.00167   2.35758
   A10        2.35648   0.00441   0.00000   0.00252  -0.00167   2.35481
   A11        2.09440   0.00170   0.00000   0.00088   0.00000   2.09440
   A12        2.35648   0.00010   0.00000   0.00003  -0.00167   2.35481
   A13        2.35591  -0.00440   0.00000  -0.00252   0.00167   2.35758
   A14        2.09440  -0.00339   0.00000  -0.00176   0.00000   2.09440
   A15        2.35591  -0.00440   0.00000  -0.00252   0.00167   2.35758
   A16        2.35648   0.00010   0.00000   0.00003  -0.00167   2.35481
   A17        2.09440   0.00170   0.00000   0.00088   0.00000   2.09440
   A18        2.35648   0.00441   0.00000   0.00252  -0.00167   2.35481
   A19        2.35591   0.00421   0.00000   0.00246   0.00167   2.35758
   A20        2.09440   0.00170   0.00000   0.00088   0.00000   2.09440
   A21        2.35591  -0.00010   0.00000  -0.00003   0.00167   2.35758
   A22        2.35648  -0.00421   0.00000  -0.00246  -0.00167   2.35481
   A23        2.09440  -0.00340   0.00000  -0.00176   0.00000   2.09440
   A24        2.35648  -0.00421   0.00000  -0.00246  -0.00167   2.35481
   A25        2.35591  -0.00010   0.00000  -0.00003   0.00167   2.35758
   A26        2.09440   0.00170   0.00000   0.00088   0.00000   2.09440
   A27        2.35591   0.00421   0.00000   0.00246   0.00167   2.35758
   A28        2.35648   0.00441   0.00000   0.00252  -0.00167   2.35481
   A29        2.09440   0.00170   0.00000   0.00088   0.00000   2.09440
   A30        2.35648   0.00010   0.00000   0.00003  -0.00167   2.35481
   A31        2.09440  -0.00339   0.00000  -0.00176   0.00000   2.09440
   A32        2.35591  -0.00440   0.00000  -0.00252   0.00167   2.35758
   A33        2.35591  -0.00440   0.00000  -0.00252   0.00167   2.35758
   A34        2.35648   0.00010   0.00000   0.00003  -0.00167   2.35481
   A35        2.09440   0.00170   0.00000   0.00088   0.00000   2.09440
   A36        2.35648   0.00441   0.00000   0.00252  -0.00167   2.35481
    D1        0.00000   0.00000   0.00000   0.00000   0.00000   0.00000
    D2        0.00000   0.00000   0.00000   0.00000   0.00000   0.00000
    D3        0.00000   0.00000   0.00000   0.00000   0.00000   0.00000
    D4        0.00000   0.00000   0.00000   0.00000   0.00000   0.00000
    D5        0.00000   0.00000   0.00000   0.00000   0.00000   0.00000
    D6        0.00000   0.00000   0.00000   0.00000   0.00000   0.00000
    D7        0.00000   0.00000   0.00000   0.00000   0.00000   0.00000
    D8        0.00000   0.00000   0.00000   0.00000   0.00000   0.00000
    D9        0.00000   0.00000   0.00000   0.00000   0.00000   0.00000
   D10        0.00000   0.00000   0.00000   0.00000   0.00000   0.00000
   D11        0.00000   0.00000   0.00000   0.00000   0.00000   0.00000
   D12        0.00000   0.00000   0.00000   0.00000   0.00000   0.00000
   D13        0.00000   0.00000   0.00000   0.00000   0.00000   0.00000
   D14        0.00000   0.00000   0.00000   0.00000   0.00000   0.00000
   D15        0.00000   0.00000   0.00000   0.00000   0.00000   0.00000
   D16        0.00000   0.00000   0.00000   0.00000   0.00000   0.00000
   D17        0.00000   0.00000   0.00000   0.00000   0.00000   0.00000
   D18        0.00000   0.00000   0.00000   0.00000   0.00000   0.00000
   D19        0.00000   0.00000   0.00000   0.00000   0.00000   0.00000
   D20        0.00000   0.00000   0.00000   0.00000   0.00000   0.00000
   D21        0.00000   0.00000   0.00000   0.00000   0.00000   0.00000
   D22        0.00000   0.00000   0.00000   0.00000   0.00000   0.00000
   D23        0.00000   0.00000   0.00000   0.00000   0.00000   0.00000
   D24        0.00000   0.00000   0.00000   0.00000   0.00000   0.00000
   D25        0.00000   0.00000   0.00000   0.00000   0.00000   0.00000
   D26        0.00000   0.00000   0.00000   0.00000   0.00000   0.00000
   D27        0.00000   0.00000   0.00000   0.00000   0.00000   0.00000
   D28        0.00000   0.00000   0.00000   0.00000   0.00000   0.00000
   D29        0.00000   0.00000   0.00000   0.00000   0.00000   0.00000
   D30        0.00000   0.00000   0.00000   0.00000   0.00000   0.00000
   D31        0.00000   0.00000   0.00000   0.00000   0.00000   0.00000
   D32        0.00000   0.00000   0.00000   0.00000   0.00000   0.00000
   D33        0.00000   0.00000   0.00000   0.00000   0.00000   0.00000
   D34        0.00000   0.00000   0.00000   0.00000   0.00000   0.00000
   D35        0.00000   0.00000   0.00000   0.00000   0.00000   0.00000
   D36        0.00000   0.00000   0.00000   0.00000   0.00000   0.00000
   D37        0.00000   0.00000   0.00000   0.00000   0.00000   0.00000
   D38        0.00000   0.00000   0.00000   0.00000   0.00000   0.00000
   D39        0.00000   0.00000   0.00000   0.00000   0.00000   0.00000
   D40        0.00000   0.00000   0.00000   0.00000   0.00000   0.00000
   D41        0.00000   0.00000   0.00000   0.00000   0.00000   0.00000
   D42        0.00000   0.00000   0.00000   0.00000   0.00000   0.00000
   D43        0.00000   0.00000   0.00000   0.00000   0.00000   0.00000
   D44        0.00000   0.00000   0.00000   0.00000   0.00000   0.00000
   D45        0.00000   0.00000   0.00000   0.00000   0.00000   0.00000
   D46        0.00000   0.00000   0.00000   0.00000   0.00000   0.00000
   D47        0.00000   0.00000   0.00000   0.00000   0.00000   0.00000
   D48        0.00000   0.00000   0.00000   0.00000   0.00000   0.00000
   D49        0.00000   0.00000   0.00000   0.00000   0.00000   0.00000
   D50        0.00000   0.00000   0.00000   0.00000   0.00000   0.00000
   D51        0.00000   0.00000   0.00000   0.00000   0.00000   0.00000
   D52        0.00000   0.00000   0.00000   0.00000   0.00000   0.00000
   D53        0.00000   0.00000   0.00000   0.00000   0.00000   0.00000
   D54        0.00000   0.00000   0.00000   0.00000   0.00000   0.00000
   D55        0.00000   0.00000   0.00000   0.00000   0.00000   0.00000
   D56        0.00000   0.00000   0.00000   0.00000   0.00000   0.00000
   D57        0.00000   0.00000   0.00000   0.00000   0.00000   0.00000
   D58        0.00000   0.00000   0.00000   0.00000   0.00000   0.00000
   D59        0.00000   0.00000   0.00000   0.00000   0.00000   0.00000
   D60        0.00000   0.00000   0.00000   0.00000   0.00000   0.00000
         Item               Value     Threshold  Converged?
 Maximum Force            0.250956     0.000450     NO 
 RMS     Force            0.087680     0.000300     NO 
 Maximum Displacement     0.080218     0.001800     NO 
 RMS     Displacement     0.024579     0.001200     NO 
 Predicted change in Energy=-2.602676D-01
 GradGradGradGradGradGradGradGradGradGradGradGradGradGradGradGradGradGrad

                          Input orientation:                          
 ---------------------------------------------------------------------
 Center     Atomic     Atomic              Coordinates (Angstroms)
 Number     Number      Type              X           Y           Z
 ---------------------------------------------------------------------
    1         13             0       -3.005023    0.000000    0.000000
    2         13             0       -2.604356    1.503625    0.000000
    3         13             0       -1.502511    2.602426    0.000000
    4         13             0        0.000000    3.007251    0.000000
    5         13             0        1.502511    2.602426    0.000000
    6         13             0        2.604356    1.503625    0.000000
    7         13             0        3.005023    0.000000    0.000000
    8         13             0        2.604356   -1.503625    0.000000
    9         13             0        1.502511   -2.602426    0.000000
   10         13             0        0.000000   -3.007251    0.000000
   11         13             0       -1.502511   -2.602426    0.000000
   12         13             0       -2.604356   -1.503625    0.000000
 ---------------------------------------------------------------------
                    Distance matrix (angstroms):
                    1          2          3          4          5
     1  Al   0.000000
     2  Al   1.556092   0.000000
     3  Al   3.005023   1.556092   0.000000
     4  Al   4.251320   3.007251   1.556092   0.000000
     5  Al   5.204852   4.251320   3.005023   1.556092   0.000000
     6  Al   5.807410   5.208711   4.251320   3.007251   1.556092
     7  Al   6.010045   5.807410   5.204852   4.251320   3.005023
     8  Al   5.807410   6.014502   5.807410   5.208711   4.251320
     9  Al   5.204852   5.807410   6.010045   5.807410   5.204852
    10  Al   4.251320   5.208711   5.807410   6.014502   5.807410
    11  Al   3.005023   4.251320   5.204852   5.807410   6.010045
    12  Al   1.556092   3.007251   4.251320   5.208711   5.807410
                    6          7          8          9         10
     6  Al   0.000000
     7  Al   1.556092   0.000000
     8  Al   3.007251   1.556092   0.000000
     9  Al   4.251320   3.005023   1.556092   0.000000
    10  Al   5.208711   4.251320   3.007251   1.556092   0.000000
    11  Al   5.807410   5.204852   4.251320   3.005023   1.556092
    12  Al   6.014502   5.807410   5.208711   4.251320   3.007251
                   11         12
    11  Al   0.000000
    12  Al   1.556092   0.000000
 Stoichiometry    Al12
 Framework group  D6H[3C2'(Al.Al),3C2"(Al.Al)]
 Deg. of freedom     2
 Full point group                 D6H
 Largest Abelian subgroup         D2H     NOp   8
 Largest concise Abelian subgroup D2      NOp   4
                         Standard orientation:                         
 ---------------------------------------------------------------------
 Center     Atomic     Atomic              Coordinates (Angstroms)
 Number     Number      Type              X           Y           Z
 ---------------------------------------------------------------------
    1         13             0        0.000000    3.005023    0.000000
    2         13             0        1.503625    2.604356    0.000000
    3         13             0        2.602426    1.502511    0.000000
    4         13             0        3.007251    0.000000    0.000000
    5         13             0        2.602426   -1.502511    0.000000
    6         13             0        1.503625   -2.604356    0.000000
    7         13             0        0.000000   -3.005023    0.000000
    8         13             0       -1.503625   -2.604356    0.000000
    9         13             0       -2.602426   -1.502511    0.000000
   10         13             0       -3.007251    0.000000    0.000000
   11         13             0       -2.602426    1.502511    0.000000
   12         13             0       -1.503625    2.604356    0.000000
 ---------------------------------------------------------------------
 Rotational constants (GHZ):      0.3454472      0.3454472      0.1727236
 Standard basis: 6-31G(d) (6D, 7F)
 There are    48 symmetry adapted basis functions of AG  symmetry.
 There are    36 symmetry adapted basis functions of B1G symmetry.
 There are    15 symmetry adapted basis functions of B2G symmetry.
 There are    15 symmetry adapted basis functions of B3G symmetry.
 There are    12 symmetry adapted basis functions of AU  symmetry.
 There are    18 symmetry adapted basis functions of B1U symmetry.
 There are    42 symmetry adapted basis functions of B2U symmetry.
 There are    42 symmetry adapted basis functions of B3U symmetry.
 Integral buffers will be    131072 words long.
 Raffenetti 2 integral format.
 Two-electron integral symmetry is turned on.
   228 basis functions,   624 primitive gaussians,   228 cartesian basis functions
    78 alpha electrons       78 beta electrons
       nuclear repulsion energy      1779.2361998876 Hartrees.
 NAtoms=   12 NActive=   12 NUniq=    2 SFac= 3.00D+00 NAtFMM=   80 NAOKFM=F Big=F
 One-electron integrals computed using PRISM.
 NBasis=   228 RedAO= T  NBF=    48    36    15    15    12    18    42    42
 NBsUse=   225 1.00D-06 NBFU=    48    35    15    15    12    18    41    41
 Initial guess read from the read-write file:
 Initial guess orbital symmetries:
       Occupied  (B2G) (?A) (?A) (B2G) (B2G) (?A) (?A) (B2G) (B2G)
                 (?A) (?A) (B2G) (B2G) (?A) (?A) (B2G) (B2G) (?A)
                 (?A) (B2G) (B2G) (?A) (?A) (B2G) (B2G) (?A) (?A)
                 (B2G) (B2G) (?A) (?A) (B2G) (B2G) (?A) (?A) (B2G)
                 (?B) (?C) (?C) (?D) (?D) (?A) (?A) (B2G) (?C)
                 (?C) (B2G) (?B) (B2G) (?A) (?A) (B2G) (?B) (?C)
                 (?C) (?D) (B2G) (?A) (?A) (B2G) (B2G) (?A) (?A)
                 (B2G) (B2G) (?A) (?A) (B2G) (?D) (B2G) (B2G) (?C)
                 (?C) (?A) (?A) (?D) (?D) (B2G)
       Virtual   (B2G) (?A) (?A) (?C) (?C) (B2G) (?A) (?A) (?D)
                 (?D) (B2G) (B2G) (B2G) (B2G) (?A) (?A) (B2G) (B2G)
                 (?A) (?A) (?C) (?C) (?D) (?A) (?A) (?C) (?C) (B2G)
                 (?D) (?D) (?A) (?A) (?A) (?A) (B2G) (B2G) (B2G)
                 (?C) (?C) (B2G) (B2G) (?A) (?A) (B2G) (B2G) (B2G)
                 (B2G) (?D) (?D) (?D) (?D) (?D) (?A) (?A) (?C)
                 (?C) (?C) (?C) (?A) (?A) (B2G) (B2G) (?D) (?A)
                 (?A) (?D) (?A) (?A) (B2G) (B2G) (B2G) (B2G) (B2G)
                 (?D) (B2G) (B2G) (?A) (?A) (?C) (?C) (?A) (?A)
                 (?C) (?C) (B2G) (B2G) (?A) (?A) (?D) (B2G) (?D)
                 (B2G) (?A) (?A) (B2G) (?A) (?A) (B2G) (B2G) (?D)
                 (?D) (?C) (?C) (?C) (?C) (?A) (?A) (B2G) (B2G)
                 (B2G) (B2G) (?D) (?A) (?A) (?D) (?D) (?A) (?A)
                 (B2G) (B2G) (?C) (?C) (?D) (B2G) (B2G) (B2G) (?A)
                 (?A) (?A) (?A) (?A) (?A) (B2G) (B2G) (?A) (?A)
                 (B2G) (B2G) (B2G) (?A) (?A) (B2G) (?A) (B2G) (B2G)
                 (B2G) (?A)
 Harris functional with IExCor=  402 diagonalized for initial guess.
 ExpMin= 5.57D-02 ExpMax= 1.40D+04 ExpMxC= 2.10D+03 IAcc=2 IRadAn=         4 AccDes= 0.00D+00
 HarFok:  IExCor= 402 AccDes= 0.00D+00 IRadAn=         4 IDoV=1
 ScaDFX=  1.000000  1.000000  1.000000  1.000000
 Requested convergence on RMS density matrix=1.00D-08 within 128 cycles.
 Requested convergence on MAX density matrix=1.00D-06.
 Requested convergence on             energy=1.00D-06.
 No special actions if energy rises.
 Keep R1 integrals in memory in canonical form, NReq=   347898779.
 Integral accuracy reduced to 1.0D-05 until final iterations.
 A guess orbital has undefined symmetry, so N**3 symmetry is turned off.
 Density matrix breaks symmetry, PCut= 1.00D-04
 Density matrix has no symmetry -- integrals replicated.
 Density matrix breaks symmetry, PCut= 1.00D-04
 Density has only Abelian symmetry.
 Density matrix breaks symmetry, PCut= 1.00D-04
 Density matrix has no symmetry -- integrals replicated.
 Density matrix breaks symmetry, PCut= 1.00D-04
 Density matrix has no symmetry -- integrals replicated.
 Density matrix breaks symmetry, PCut= 1.00D-04
 Density matrix has no symmetry -- integrals replicated.
 Density matrix breaks symmetry, PCut= 1.00D-04
 Density matrix has no symmetry -- integrals replicated.
 EnCoef did     5 forward-backward iterations
 Density matrix breaks symmetry, PCut= 1.00D-04
 Density matrix has no symmetry -- integrals replicated.
 Density matrix breaks symmetry, PCut= 1.00D-04
 Density matrix has no symmetry -- integrals replicated.
 Density matrix breaks symmetry, PCut= 1.00D-04
 Density matrix has no symmetry -- integrals replicated.
 Density matrix breaks symmetry, PCut= 1.00D-04
 Density matrix has no symmetry -- integrals replicated.
 Density matrix breaks symmetry, PCut= 1.00D-04
 Density matrix has no symmetry -- integrals replicated.
 Density matrix breaks symmetry, PCut= 1.00D-04
 Density matrix has no symmetry -- integrals replicated.
 Initial convergence to 1.0D-05 achieved.  Increase integral accuracy.
 Density matrix breaks symmetry, PCut= 1.00D-04
 Density matrix has no symmetry -- integrals replicated.
 Density matrix breaks symmetry, PCut= 1.00D-04
 Density matrix has no symmetry -- integrals replicated.
 Density matrix breaks symmetry, PCut= 1.00D-04
 Density matrix has no symmetry -- integrals replicated.
 Density matrix breaks symmetry, PCut= 1.00D-04
 Density matrix has no symmetry -- integrals replicated.
 Density matrix breaks symmetry, PCut= 1.00D-04
 Density matrix has no symmetry -- integrals replicated.
 Density matrix breaks symmetry, PCut= 1.00D-04
 Density matrix has no symmetry -- integrals replicated.
 Density matrix breaks symmetry, PCut= 1.00D-04
 Density matrix has no symmetry -- integrals replicated.
 Density matrix breaks symmetry, PCut= 1.00D-04
 Density matrix has no symmetry -- integrals replicated.
 Density matrix breaks symmetry, PCut= 1.00D-04
 Density matrix has no symmetry -- integrals replicated.
 Density matrix breaks symmetry, PCut= 1.00D-04
 Density matrix has no symmetry -- integrals replicated.
 Density matrix breaks symmetry, PCut= 1.00D-04
 Density matrix has no symmetry -- integrals replicated.
 Density matrix breaks symmetry, PCut= 1.00D-04
 Density matrix has no symmetry -- integrals replicated.
 Density matrix breaks symmetry, PCut= 1.00D-04
 Density matrix has no symmetry -- integrals replicated.
 Density matrix breaks symmetry, PCut= 1.00D-04
 Density matrix has no symmetry -- integrals replicated.
 Density matrix breaks symmetry, PCut= 1.00D-04
 Density matrix has no symmetry -- integrals replicated.
 Density matrix breaks symmetry, PCut= 1.00D-04
 Density matrix has no symmetry -- integrals replicated.
 Density matrix breaks symmetry, PCut= 1.00D-04
 Density has only Abelian symmetry.
 Density matrix breaks symmetry, PCut= 1.00D-04
 Density has only Abelian symmetry.
 Density matrix breaks symmetry, PCut= 1.00D-04
 Density has only Abelian symmetry.
 Density matrix breaks symmetry, PCut= 1.00D-04
 Density has only Abelian symmetry.
 Restarting incremental Fock formation.
 Density matrix breaks symmetry, PCut= 1.00D-04
 Density has only Abelian symmetry.
 SCF Done:  E(RB+HF-LYP) =  -2904.95784231     A.U. after   32 cycles
             Convg  =    0.4314D-08             -V/T =  1.9967
             S**2   =   0.0000
 Density matrix has only Abelian symmetry.
 Density matrix has only Abelian symmetry.
 ***** Axes restored to original set *****
 -------------------------------------------------------------------
 Center     Atomic                   Forces (Hartrees/Bohr)
 Number     Number              X              Y              Z
 -------------------------------------------------------------------
    1         13          -0.303318642    0.000000000    0.000000000
    2         13          -0.259893618    0.126495954   -0.000000252
    3         13          -0.124697204    0.256959549   -0.000000425
    4         13           0.000000000    0.306672013    0.000000000
    5         13           0.124697204    0.256959549    0.000000425
    6         13           0.259893618    0.126495954    0.000000252
    7         13           0.303318642    0.000000000    0.000000000
    8         13           0.259893618   -0.126495954   -0.000000252
    9         13           0.124697204   -0.256959549   -0.000000425
   10         13           0.000000000   -0.306672013    0.000000000
   11         13          -0.124697204   -0.256959549    0.000000425
   12         13          -0.259893618   -0.126495954    0.000000252
 -------------------------------------------------------------------
 Cartesian Forces:  Max     0.306672013 RMS     0.169361048

 GradGradGradGradGradGradGradGradGradGradGradGradGradGradGradGradGradGrad
 Berny optimization.
 Internal  Forces:  Max     0.236202841 RMS     0.082261112
 Search for a local minimum.
 Step number   2 out of a maximum of 100
 All quantities printed in internal units (Hartrees-Bohrs-Radians)
 Update second derivatives using D2CorX and points  1  2
 Trust test= 1.08D+00 RLast= 3.03D-01 DXMaxT set to 4.24D-01
 Maximum step size (   0.424) exceeded in linear search.
    -- Step size scaled by   0.699
 Quartic linear search produced a step of  1.39897.
 Iteration  1 RMS(Cart)=  0.03438479 RMS(Int)=  0.00002829
 Iteration  2 RMS(Cart)=  0.00000963 RMS(Int)=  0.00002512
 Iteration  3 RMS(Cart)=  0.00000000 RMS(Int)=  0.00002512
 Variable       Old X    -DE/DX   Delta X   Delta X   Delta X     New X
                                 (Linear)    (Quad)   (Total)
    R1        2.94059   0.11669   0.05626   0.00000   0.05627   2.99686
    R2        5.67867   0.23466   0.10514   0.00000   0.10508   5.78375
    R3        5.67867   0.23466   0.10514   0.00000   0.10508   5.78375
    R4        2.94059   0.11669   0.05626   0.00000   0.05627   2.99686
    R5        2.94059   0.12515   0.05626   0.00000   0.05627   2.99686
    R6        5.68288   0.23620   0.11222   0.00000   0.11227   5.79515
    R7        5.68288   0.22256   0.11222   0.00000   0.11227   5.79515
    R8        2.94059   0.11668   0.05626   0.00000   0.05627   2.99686
    R9        5.67867   0.22094   0.10514   0.00000   0.10508   5.78375
   R10        2.94059   0.11668   0.05626   0.00000   0.05627   2.99686
   R11        5.68288   0.23620   0.11222   0.00000   0.11227   5.79515
   R12        2.94059   0.12515   0.05626   0.00000   0.05627   2.99686
   R13        5.67867   0.23466   0.10514   0.00000   0.10508   5.78375
   R14        2.94059   0.11669   0.05626   0.00000   0.05627   2.99686
   R15        5.68288   0.22256   0.11222   0.00000   0.11227   5.79515
   R16        2.94059   0.11669   0.05626   0.00000   0.05627   2.99686
   R17        5.67867   0.23466   0.10514   0.00000   0.10508   5.78375
   R18        2.94059   0.12515   0.05626   0.00000   0.05627   2.99686
   R19        5.68288   0.23620   0.11222   0.00000   0.11227   5.79515
   R20        2.94059   0.11668   0.05626   0.00000   0.05627   2.99686
   R21        5.67867   0.22094   0.10514   0.00000   0.10508   5.78375
   R22        2.94059   0.11668   0.05626   0.00000   0.05627   2.99686
   R23        5.68288   0.23620   0.11222   0.00000   0.11227   5.79515
   R24        2.94059   0.12515   0.05626   0.00000   0.05627   2.99686
    A1        2.35758  -0.00355   0.00233   0.00000   0.00229   2.35987
    A2        2.09440  -0.00319   0.00000   0.00000   0.00000   2.09440
    A3        2.35758  -0.00355   0.00233   0.00000   0.00229   2.35987
    A4        2.35481   0.00354  -0.00233   0.00000  -0.00229   2.35252
    A5        2.35481  -0.00046  -0.00233   0.00000  -0.00229   2.35252
    A6        2.09440   0.00159   0.00000   0.00000   0.00000   2.09440
    A7        2.35758   0.00447   0.00233   0.00000   0.00229   2.35987
    A8        2.09440   0.00159   0.00000   0.00000   0.00000   2.09440
    A9        2.35758   0.00046   0.00233   0.00000   0.00229   2.35987
   A10        2.35481  -0.00446  -0.00233   0.00000  -0.00229   2.35252
   A11        2.09440  -0.00318   0.00000   0.00000   0.00000   2.09440
   A12        2.35481  -0.00446  -0.00233   0.00000  -0.00229   2.35252
   A13        2.35758   0.00046   0.00233   0.00000   0.00229   2.35987
   A14        2.09440   0.00159   0.00000   0.00000   0.00000   2.09440
   A15        2.35758   0.00447   0.00233   0.00000   0.00229   2.35987
   A16        2.35481   0.00354  -0.00233   0.00000  -0.00229   2.35252
   A17        2.09440   0.00159   0.00000   0.00000   0.00000   2.09440
   A18        2.35481  -0.00046  -0.00233   0.00000  -0.00229   2.35252
   A19        2.35758  -0.00355   0.00233   0.00000   0.00229   2.35987
   A20        2.09440  -0.00319   0.00000   0.00000   0.00000   2.09440
   A21        2.35758  -0.00355   0.00233   0.00000   0.00229   2.35987
   A22        2.35481  -0.00046  -0.00233   0.00000  -0.00229   2.35252
   A23        2.09440   0.00159   0.00000   0.00000   0.00000   2.09440
   A24        2.35481   0.00354  -0.00233   0.00000  -0.00229   2.35252
   A25        2.35758   0.00447   0.00233   0.00000   0.00229   2.35987
   A26        2.09440   0.00159   0.00000   0.00000   0.00000   2.09440
   A27        2.35758   0.00046   0.00233   0.00000   0.00229   2.35987
   A28        2.35481  -0.00446  -0.00233   0.00000  -0.00229   2.35252
   A29        2.09440  -0.00318   0.00000   0.00000   0.00000   2.09440
   A30        2.35481  -0.00446  -0.00233   0.00000  -0.00229   2.35252
   A31        2.09440   0.00159   0.00000   0.00000   0.00000   2.09440
   A32        2.35758   0.00447   0.00233   0.00000   0.00229   2.35987
   A33        2.35758   0.00046   0.00233   0.00000   0.00229   2.35987
   A34        2.35481   0.00354  -0.00233   0.00000  -0.00229   2.35252
   A35        2.09440   0.00159   0.00000   0.00000   0.00000   2.09440
   A36        2.35481  -0.00046  -0.00233   0.00000  -0.00229   2.35252
    D1        0.00000   0.00000   0.00000   0.00000   0.00000   0.00000
    D2        0.00000   0.00000   0.00000   0.00000   0.00000   0.00000
    D3        0.00000   0.00000   0.00000   0.00000   0.00000   0.00000
    D4        0.00000   0.00000   0.00000   0.00000   0.00000   0.00000
    D5        0.00000   0.00000   0.00000   0.00000   0.00000   0.00000
    D6        0.00000   0.00000   0.00000   0.00000   0.00000   0.00000
    D7        0.00000   0.00000   0.00000   0.00000   0.00000   0.00000
    D8        0.00000   0.00000   0.00000   0.00000   0.00000   0.00000
    D9        0.00000   0.00000   0.00000   0.00000   0.00000   0.00000
   D10        0.00000   0.00000   0.00000   0.00000   0.00000   0.00000
   D11        0.00000   0.00000   0.00000   0.00000   0.00000   0.00000
   D12        0.00000   0.00000   0.00000   0.00000   0.00000   0.00000
   D13        0.00000   0.00000   0.00000   0.00000   0.00000   0.00000
   D14        0.00000   0.00000   0.00000   0.00000   0.00000   0.00000
   D15        0.00000   0.00000   0.00000   0.00000   0.00000   0.00000
   D16        0.00000   0.00000   0.00000   0.00000   0.00000   0.00000
   D17        0.00000   0.00000   0.00000   0.00000   0.00000   0.00000
   D18        0.00000   0.00000   0.00000   0.00000   0.00000   0.00000
   D19        0.00000   0.00000   0.00000   0.00000   0.00000   0.00000
   D20        0.00000   0.00000   0.00000   0.00000   0.00000   0.00000
   D21        0.00000   0.00000   0.00000   0.00000   0.00000   0.00000
   D22        0.00000   0.00000   0.00000   0.00000   0.00000   0.00000
   D23        0.00000   0.00000   0.00000   0.00000   0.00000   0.00000
   D24        0.00000   0.00000   0.00000   0.00000   0.00000   0.00000
   D25        0.00000   0.00000   0.00000   0.00000   0.00000   0.00000
   D26        0.00000   0.00000   0.00000   0.00000   0.00000   0.00000
   D27        0.00000   0.00000   0.00000   0.00000   0.00000   0.00000
   D28        0.00000   0.00000   0.00000   0.00000   0.00000   0.00000
   D29        0.00000   0.00000   0.00000   0.00000   0.00000   0.00000
   D30        0.00000   0.00000   0.00000   0.00000   0.00000   0.00000
   D31        0.00000   0.00000   0.00000   0.00000   0.00000   0.00000
   D32        0.00000   0.00000   0.00000   0.00000   0.00000   0.00000
   D33        0.00000   0.00000   0.00000   0.00000   0.00000   0.00000
   D34        0.00000   0.00000   0.00000   0.00000   0.00000   0.00000
   D35        0.00000   0.00000   0.00000   0.00000   0.00000   0.00000
   D36        0.00000   0.00000   0.00000   0.00000   0.00000   0.00000
   D37        0.00000   0.00000   0.00000   0.00000   0.00000   0.00000
   D38        0.00000   0.00000   0.00000   0.00000   0.00000   0.00000
   D39        0.00000   0.00000   0.00000   0.00000   0.00000   0.00000
   D40        0.00000   0.00000   0.00000   0.00000   0.00000   0.00000
   D41        0.00000   0.00000   0.00000   0.00000   0.00000   0.00000
   D42        0.00000   0.00000   0.00000   0.00000   0.00000   0.00000
   D43        0.00000   0.00000   0.00000   0.00000   0.00000   0.00000
   D44        0.00000   0.00000   0.00000   0.00000   0.00000   0.00000
   D45        0.00000   0.00000   0.00000   0.00000   0.00000   0.00000
   D46        0.00000   0.00000   0.00000   0.00000   0.00000   0.00000
   D47        0.00000   0.00000   0.00000   0.00000   0.00000   0.00000
   D48        0.00000   0.00000   0.00000   0.00000   0.00000   0.00000
   D49        0.00000   0.00000   0.00000   0.00000   0.00000   0.00000
   D50        0.00000   0.00000   0.00000   0.00000   0.00000   0.00000
   D51        0.00000   0.00000   0.00000   0.00000   0.00000   0.00000
   D52        0.00000   0.00000   0.00000   0.00000   0.00000   0.00000
   D53        0.00000   0.00000   0.00000   0.00000   0.00000   0.00000
   D54        0.00000   0.00000   0.00000   0.00000   0.00000   0.00000
   D55        0.00000   0.00000   0.00000   0.00000   0.00000   0.00000
   D56        0.00000   0.00000   0.00000   0.00000   0.00000   0.00000
   D57        0.00000   0.00000   0.00000   0.00000   0.00000   0.00000
   D58        0.00000   0.00000   0.00000   0.00000   0.00000   0.00000
   D59        0.00000   0.00000   0.00000   0.00000   0.00000   0.00000
   D60        0.00000   0.00000   0.00000   0.00000   0.00000   0.00000
         Item               Value     Threshold  Converged?
 Maximum Force            0.236203     0.000450     NO 
 RMS     Force            0.082261     0.000300     NO 
 Maximum Displacement     0.112270     0.001800     NO 
 RMS     Displacement     0.034385     0.001200     NO 
 Predicted change in Energy=-3.642842D-01
 GradGradGradGradGradGradGradGradGradGradGradGradGradGradGradGradGradGrad

                          Input orientation:                          
 ---------------------------------------------------------------------
 Center     Atomic     Atomic              Coordinates (Angstroms)
 Number     Number      Type              X           Y           Z
 ---------------------------------------------------------------------
    1         13             0       -3.060628    0.000000    0.000000
    2         13             0       -2.655807    1.533331    0.000000
    3         13             0       -1.530314    2.650581    0.000000
    4         13             0        0.000000    3.066661    0.000000
    5         13             0        1.530314    2.650581    0.000000
    6         13             0        2.655807    1.533331    0.000000
    7         13             0        3.060628    0.000000    0.000000
    8         13             0        2.655807   -1.533331    0.000000
    9         13             0        1.530314   -2.650581    0.000000
   10         13             0        0.000000   -3.066661    0.000000
   11         13             0       -1.530314   -2.650581    0.000000
   12         13             0       -2.655807   -1.533331    0.000000
 ---------------------------------------------------------------------
                    Distance matrix (angstroms):
                    1          2          3          4          5
     1  Al   0.000000
     2  Al   1.585870   0.000000
     3  Al   3.060628   1.585870   0.000000
     4  Al   4.332650   3.066661   1.585870   0.000000
     5  Al   5.301163   4.332650   3.060628   1.585870   0.000000
     6  Al   5.918507   5.311613   4.332650   3.066661   1.585870
     7  Al   6.121256   5.918507   5.301163   4.332650   3.060628
     8  Al   5.918507   6.133323   5.918507   5.311613   4.332650
     9  Al   5.301163   5.918507   6.121256   5.918507   5.301163
    10  Al   4.332650   5.311613   5.918507   6.133323   5.918507
    11  Al   3.060628   4.332650   5.301163   5.918507   6.121256
    12  Al   1.585870   3.066661   4.332650   5.311613   5.918507
                    6          7          8          9         10
     6  Al   0.000000
     7  Al   1.585870   0.000000
     8  Al   3.066661   1.585870   0.000000
     9  Al   4.332650   3.060628   1.585870   0.000000
    10  Al   5.311613   4.332650   3.066661   1.585870   0.000000
    11  Al   5.918507   5.301163   4.332650   3.060628   1.585870
    12  Al   6.133323   5.918507   5.311613   4.332650   3.066661
                   11         12
    11  Al   0.000000
    12  Al   1.585870   0.000000
 Stoichiometry    Al12
 Framework group  D6H[3C2'(Al.Al),3C2"(Al.Al)]
 Deg. of freedom     2
 Full point group                 D6H
 Largest Abelian subgroup         D2H     NOp   8
 Largest concise Abelian subgroup D2      NOp   4
                         Standard orientation:                         
 ---------------------------------------------------------------------
 Center     Atomic     Atomic              Coordinates (Angstroms)
 Number     Number      Type              X           Y           Z
 ---------------------------------------------------------------------
    1         13             0        0.000000    3.060628    0.000000
    2         13             0        1.533331    2.655807    0.000000
    3         13             0        2.650581    1.530314    0.000000
    4         13             0        3.066661    0.000000    0.000000
    5         13             0        2.650581   -1.530314    0.000000
    6         13             0        1.533331   -2.655807    0.000000
    7         13             0        0.000000   -3.060628    0.000000
    8         13             0       -1.533331   -2.655807    0.000000
    9         13             0       -2.650581   -1.530314    0.000000
   10         13             0       -3.066661    0.000000    0.000000
   11         13             0       -2.650581    1.530314    0.000000
   12         13             0       -1.533331    2.655807    0.000000
 ---------------------------------------------------------------------
 Rotational constants (GHZ):      0.3325998      0.3325998      0.1662999
 Standard basis: 6-31G(d) (6D, 7F)
 There are    48 symmetry adapted basis functions of AG  symmetry.
 There are    36 symmetry adapted basis functions of B1G symmetry.
 There are    15 symmetry adapted basis functions of B2G symmetry.
 There are    15 symmetry adapted basis functions of B3G symmetry.
 There are    12 symmetry adapted basis functions of AU  symmetry.
 There are    18 symmetry adapted basis functions of B1U symmetry.
 There are    42 symmetry adapted basis functions of B2U symmetry.
 There are    42 symmetry adapted basis functions of B3U symmetry.
 Integral buffers will be    131072 words long.
 Raffenetti 2 integral format.
 Two-electron integral symmetry is turned on.
   228 basis functions,   624 primitive gaussians,   228 cartesian basis functions
    78 alpha electrons       78 beta electrons
       nuclear repulsion energy      1745.8345121099 Hartrees.
 NAtoms=   12 NActive=   12 NUniq=    2 SFac= 3.00D+00 NAtFMM=   80 NAOKFM=F Big=F
 One-electron integrals computed using PRISM.
 NBasis=   228 RedAO= T  NBF=    48    36    15    15    12    18    42    42
 NBsUse=   225 1.00D-06 NBFU=    48    35    15    15    12    18    41    41
 Initial guess read from the read-write file:
 Initial guess orbital symmetries:
       Occupied  (?A) (?B) (?B) (?A) (?A) (?B) (?B) (?A) (?A) (?B)
                 (?B) (?A) (?C) (?B) (?B) (?C) (?C) (?B) (?B) (?C)
                 (?C) (?B) (?B) (?C) (?D) (?D) (?D) (?D) (?D) (?D)
                 (?D) (?D) (?D) (?D) (?D) (?D) (?D) (?D) (?D) (?D)
                 (?D) (?D) (?D) (?D) (?D) (?D) (?D) (?D) (?D) (?D)
                 (?D) (?D) (?D) (?D) (?D) (?D) (?D) (?D) (?D) (?D)
                 (B2G) (?D) (?D) (B2G) (B2G) (?D) (?D) (B2G) (B2G)
                 (?D) (B2G) (?D) (?D) (?D) (?D) (?D) (?D) (B2G)
       Virtual   (B2G) (?D) (?D) (?D) (?D) (B2G) (B2U) (?D) (?D)
                 (?D) (?C) (?C) (?C) (B2G) (?D) (?D) (B2G) (?D)
                 (?D) (B2G) (?D) (?D) (?D) (?D) (?D) (?D) (?D)
                 (B2G) (?D) (?D) (?D) (?D) (?D) (?D) (B2G) (B2G)
                 (B2G) (B2G) (?D) (?D) (B2G) (?D) (?D) (B2G) (B2G)
                 (B2G) (?D) (?D) (?D) (?D) (B2G) (?D) (?D) (?D)
                 (?D) (?D) (?D) (?D) (?D) (?D) (B2G) (B2G) (?D)
                 (?D) (?D) (?D) (?D) (?D) (B2G) (B2G) (B2G) (B2G)
                 (B2G) (?D) (B2G) (B2G) (?D) (?D) (?D) (?D) (?D)
                 (?D) (?D) (?D) (B2G) (B2G) (?D) (?D) (?D) (B2G)
                 (?D) (B2G) (B2G) (?D) (?D) (?D) (?D) (B2G) (B2G)
                 (?D) (?D) (B2G) (B1G) (E1G) (E1G) (?D) (?D) (?D)
                 (?D) (B2G) (B2G) (A2U) (?D) (?D) (E2U) (E2U) (?D)
                 (?D) (A1G) (?D) (E1G) (E1G) (A1U) (?D) (?D) (?D)
                 (?D) (?D) (?D) (?D) (B2G) (B2G) (?D) (?D) (?D)
                 (?D) (B2G) (B2G) (B2G) (?D) (?D) (?D) (E2G) (E2G)
                 (?D) (?D) (A1G)
 Harris functional with IExCor=  402 diagonalized for initial guess.
 ExpMin= 5.57D-02 ExpMax= 1.40D+04 ExpMxC= 2.10D+03 IAcc=2 IRadAn=         4 AccDes= 0.00D+00
 HarFok:  IExCor= 402 AccDes= 0.00D+00 IRadAn=         4 IDoV=1
 ScaDFX=  1.000000  1.000000  1.000000  1.000000
 Requested convergence on RMS density matrix=1.00D-08 within 128 cycles.
 Requested convergence on MAX density matrix=1.00D-06.
 Requested convergence on             energy=1.00D-06.
 No special actions if energy rises.
 Keep R1 integrals in memory in canonical form, NReq=   347898779.
 Integral accuracy reduced to 1.0D-05 until final iterations.
 Density matrix breaks symmetry, PCut= 1.00D-04
 Density has only Abelian symmetry.
 Density matrix breaks symmetry, PCut= 1.00D-04
 Density has only Abelian symmetry.
 Density matrix breaks symmetry, PCut= 1.00D-04
 Density has only Abelian symmetry.
 Density matrix breaks symmetry, PCut= 1.00D-04
 Density has only Abelian symmetry.
 Density matrix breaks symmetry, PCut= 1.00D-04
 Density has only Abelian symmetry.
 Density matrix breaks symmetry, PCut= 1.00D-04
 Density has only Abelian symmetry.
 Density matrix breaks symmetry, PCut= 1.00D-04
 Density has only Abelian symmetry.
 Density matrix breaks symmetry, PCut= 1.00D-04
 Density has only Abelian symmetry.
 Density matrix breaks symmetry, PCut= 1.00D-04
 Density has only Abelian symmetry.
 Initial convergence to 1.0D-05 achieved.  Increase integral accuracy.
 Density matrix breaks symmetry, PCut= 1.00D-04
 Density has only Abelian symmetry.
 Density matrix breaks symmetry, PCut= 1.00D-04
 Density has only Abelian symmetry.
 Density matrix breaks symmetry, PCut= 1.00D-04
 Density has only Abelian symmetry.
 Density matrix breaks symmetry, PCut= 1.00D-04
 Density has only Abelian symmetry.
 Density matrix breaks symmetry, PCut= 1.00D-04
 Density has only Abelian symmetry.
 Density matrix breaks symmetry, PCut= 1.00D-04
 Density has only Abelian symmetry.
 Density matrix breaks symmetry, PCut= 1.00D-04
 Density has only Abelian symmetry.
 Density matrix breaks symmetry, PCut= 1.00D-04
[...]
           A22          0.00000
           A23          0.00000
           A24          0.00000
           A25          0.00000
           A26          0.00000
           A27          0.00000
           A28          0.00000
           A29          0.00000
           A30          0.00000
           A31          0.00000
           A32          0.00000
           A33          0.00000
           A34          0.00000
           A35          0.00000
           A36          0.00000
           D1           0.22889
           D2           0.09507
           D3           0.04226
           D4          -0.05547
           D5          -0.10827
           D6          -0.10827
           D7          -0.05547
           D8           0.04226
           D9           0.09506
           D10          0.22888
           D11         -0.16015
           D12         -0.10765
           D13         -0.09443
           D14         -0.11490
           D15         -0.10168
           D16          0.20933
           D17          0.21530
           D18          0.20335
           D19          0.20933
           D20         -0.06874
           D21          0.01320
           D22         -0.08453
           D23          0.11094
           D24          0.01321
           D25         -0.06873
           D26         -0.09443
           D27         -0.10167
           D28         -0.10765
           D29         -0.11489
           D30         -0.16014
           D31         -0.10827
           D32          0.04226
           D33         -0.05547
           D34          0.09506
           D35          0.22888
           D36          0.20933
           D37          0.20335
           D38          0.21530
           D39          0.20933
           D40          0.22889
           D41          0.09507
           D42          0.04226
           D43         -0.05547
           D44         -0.10827
           D45         -0.16015
           D46         -0.11490
           D47         -0.10168
           D48         -0.10765
           D49         -0.09443
           D50         -0.06874
           D51         -0.08453
           D52          0.01320
           D53          0.01321
           D54          0.11094
           D55         -0.06873
           D56         -0.09443
           D57         -0.10167
           D58         -0.10765
           D59         -0.11489
           D60         -0.16014
 Angle between quadratic step and forces=  48.02 degrees.
 Linear search not attempted -- first point.
 Iteration  1 RMS(Cart)=  0.00298096 RMS(Int)=  0.00000479
 Iteration  2 RMS(Cart)=  0.00000354 RMS(Int)=  0.00000154
 Iteration  3 RMS(Cart)=  0.00000000 RMS(Int)=  0.00000154
 Variable       Old X    -DE/DX   Delta X   Delta X   Delta X     New X
                                 (Linear)    (Quad)   (Total)
    R1        4.73505  -0.00001   0.00000  -0.00039  -0.00217   4.73288
    R2        7.88214   0.00001   0.00000   0.00089  -0.01435   7.86779
    R3        7.88214   0.00001   0.00000   0.00089  -0.01435   7.86779
    R4        4.73505  -0.00001   0.00000  -0.00039  -0.00217   4.73288
    R5        4.73505  -0.00002   0.00000  -0.00085  -0.00217   4.73288
    R6        9.45076  -0.00002   0.00000  -0.00020  -0.00559   9.44517
    R7        9.45076  -0.00002   0.00000  -0.00186  -0.00559   9.44517
    R8        4.73505   0.00000   0.00000  -0.00014  -0.00217   4.73288
    R9        7.88214   0.00002   0.00000   0.00029  -0.01435   7.86779
   R10        4.73505   0.00000   0.00000  -0.00014  -0.00217   4.73288
   R11        9.45076  -0.00002   0.00000  -0.00020  -0.00559   9.44517
   R12        4.73505  -0.00002   0.00000  -0.00085  -0.00217   4.73288
   R13        7.88214   0.00001   0.00000   0.00089  -0.01435   7.86779
   R14        4.73505  -0.00001   0.00000  -0.00039  -0.00217   4.73288
   R15        9.45076  -0.00002   0.00000  -0.00186  -0.00559   9.44517
   R16        4.73505  -0.00001   0.00000  -0.00039  -0.00217   4.73288
   R17        7.88214   0.00001   0.00000   0.00089  -0.01435   7.86779
   R18        4.73505  -0.00002   0.00000  -0.00085  -0.00217   4.73288
   R19        9.45076  -0.00002   0.00000  -0.00020  -0.00559   9.44517
   R20        4.73505   0.00000   0.00000  -0.00014  -0.00217   4.73288
   R21        7.88214   0.00002   0.00000   0.00029  -0.01435   7.86779
   R22        4.73505   0.00000   0.00000  -0.00014  -0.00217   4.73288
   R23        9.45076  -0.00002   0.00000  -0.00020  -0.00559   9.44517
   R24        4.73505  -0.00002   0.00000  -0.00085  -0.00217   4.73288
    A1        2.68191   0.00001   0.00000   0.00398   0.00204   2.68396
    A2        2.09440   0.00002   0.00000   0.00437   0.00000   2.09440
    A3        2.68191   0.00001   0.00000   0.00398   0.00204   2.68396
    A4        2.03047   0.00001   0.00000  -0.00057  -0.00204   2.02843
    A5        2.03047   0.00001   0.00000   0.00252  -0.00204   2.02843
    A6        2.09440   0.00001   0.00000   0.00122   0.00000   2.09440
    A7        2.68191  -0.00001   0.00000  -0.00229   0.00204   2.68396
    A8        2.09440  -0.00001   0.00000  -0.00219   0.00000   2.09440
    A9        2.68191  -0.00001   0.00000  -0.00252   0.00204   2.68396
   A10        2.03047   0.00000   0.00000  -0.00112  -0.00204   2.02843
   A11        2.09440  -0.00001   0.00000  -0.00243   0.00000   2.09440
   A12        2.03047   0.00000   0.00000  -0.00112  -0.00204   2.02843
   A13        2.68191  -0.00001   0.00000  -0.00252   0.00204   2.68396
   A14        2.09440  -0.00001   0.00000  -0.00219   0.00000   2.09440
   A15        2.68191  -0.00001   0.00000  -0.00229   0.00204   2.68396
   A16        2.03047   0.00001   0.00000  -0.00057  -0.00204   2.02843
   A17        2.09440   0.00001   0.00000   0.00122   0.00000   2.09440
   A18        2.03047   0.00001   0.00000   0.00252  -0.00204   2.02843
   A19        2.68191   0.00001   0.00000   0.00398   0.00204   2.68396
   A20        2.09440   0.00002   0.00000   0.00437   0.00000   2.09440
   A21        2.68191   0.00001   0.00000   0.00398   0.00204   2.68396
   A22        2.03047   0.00001   0.00000   0.00252  -0.00204   2.02843
   A23        2.09440   0.00001   0.00000   0.00122   0.00000   2.09440
   A24        2.03047   0.00001   0.00000  -0.00057  -0.00204   2.02843
   A25        2.68191  -0.00001   0.00000  -0.00229   0.00204   2.68396
   A26        2.09440  -0.00001   0.00000  -0.00219   0.00000   2.09440
   A27        2.68191  -0.00001   0.00000  -0.00252   0.00204   2.68396
   A28        2.03047   0.00000   0.00000  -0.00112  -0.00204   2.02843
   A29        2.09440  -0.00001   0.00000  -0.00243   0.00000   2.09440
   A30        2.03047   0.00000   0.00000  -0.00112  -0.00204   2.02843
   A31        2.09440  -0.00001   0.00000  -0.00219   0.00000   2.09440
   A32        2.68191  -0.00001   0.00000  -0.00229   0.00204   2.68396
   A33        2.68191  -0.00001   0.00000  -0.00252   0.00204   2.68396
   A34        2.03047   0.00001   0.00000  -0.00057  -0.00204   2.02843
   A35        2.09440   0.00001   0.00000   0.00122   0.00000   2.09440
   A36        2.03047   0.00001   0.00000   0.00252  -0.00204   2.02843
    D1        0.00000   0.00000   0.00000   0.00000   0.00000   0.00000
    D2        0.00000   0.00000   0.00000   0.00000   0.00000   0.00000
    D3        0.00000   0.00000   0.00000   0.00000   0.00000   0.00000
    D4        0.00000   0.00000   0.00000   0.00000   0.00000   0.00000
    D5        0.00000   0.00000   0.00000   0.00000   0.00000   0.00000
    D6        0.00000   0.00000   0.00000   0.00000   0.00000   0.00000
    D7        0.00000   0.00000   0.00000   0.00000   0.00000   0.00000
    D8        0.00000   0.00000   0.00000   0.00000   0.00000   0.00000
    D9        0.00000   0.00000   0.00000   0.00000   0.00000   0.00000
   D10        0.00000   0.00000   0.00000   0.00000   0.00000   0.00000
   D11        0.00000   0.00000   0.00000   0.00000   0.00000   0.00000
   D12        0.00000   0.00000   0.00000   0.00000   0.00000   0.00000
   D13        0.00000   0.00000   0.00000   0.00000   0.00000   0.00000
   D14        0.00000   0.00000   0.00000   0.00000   0.00000   0.00000
   D15        0.00000   0.00000   0.00000   0.00000   0.00000   0.00000
   D16        0.00000   0.00000   0.00000   0.00000   0.00000   0.00000
   D17        0.00000   0.00000   0.00000   0.00000   0.00000   0.00000
   D18        0.00000   0.00000   0.00000   0.00000   0.00000   0.00000
   D19        0.00000   0.00000   0.00000   0.00000   0.00000   0.00000
   D20        0.00000   0.00000   0.00000   0.00000   0.00000   0.00000
   D21        0.00000   0.00000   0.00000   0.00000   0.00000   0.00000
   D22        0.00000   0.00000   0.00000   0.00000   0.00000   0.00000
   D23        0.00000   0.00000   0.00000   0.00000   0.00000   0.00000
   D24        0.00000   0.00000   0.00000   0.00000   0.00000   0.00000
   D25        0.00000   0.00000   0.00000   0.00000   0.00000   0.00000
   D26        0.00000   0.00000   0.00000   0.00000   0.00000   0.00000
   D27        0.00000   0.00000   0.00000   0.00000   0.00000   0.00000
   D28        0.00000   0.00000   0.00000   0.00000   0.00000   0.00000
   D29        0.00000   0.00000   0.00000   0.00000   0.00000   0.00000
   D30        0.00000   0.00000   0.00000   0.00000   0.00000   0.00000
   D31        0.00000   0.00000   0.00000   0.00000   0.00000   0.00000
   D32        0.00000   0.00000   0.00000   0.00000   0.00000   0.00000
   D33        0.00000   0.00000   0.00000   0.00000   0.00000   0.00000
   D34        0.00000   0.00000   0.00000   0.00000   0.00000   0.00000
   D35        0.00000   0.00000   0.00000   0.00000   0.00000   0.00000
   D36        0.00000   0.00000   0.00000   0.00000   0.00000   0.00000
   D37        0.00000   0.00000   0.00000   0.00000   0.00000   0.00000
   D38        0.00000   0.00000   0.00000   0.00000   0.00000   0.00000
   D39        0.00000   0.00000   0.00000   0.00000   0.00000   0.00000
   D40        0.00000   0.00000   0.00000   0.00000   0.00000   0.00000
   D41        0.00000   0.00000   0.00000   0.00000   0.00000   0.00000
   D42        0.00000   0.00000   0.00000   0.00000   0.00000   0.00000
   D43        0.00000   0.00000   0.00000   0.00000   0.00000   0.00000
   D44        0.00000   0.00000   0.00000   0.00000   0.00000   0.00000
   D45        0.00000   0.00000   0.00000   0.00000   0.00000   0.00000
   D46        0.00000   0.00000   0.00000   0.00000   0.00000   0.00000
   D47        0.00000   0.00000   0.00000   0.00000   0.00000   0.00000
   D48        0.00000   0.00000   0.00000   0.00000   0.00000   0.00000
   D49        0.00000   0.00000   0.00000   0.00000   0.00000   0.00000
   D50        0.00000   0.00000   0.00000   0.00000   0.00000   0.00000
   D51        0.00000   0.00000   0.00000   0.00000   0.00000   0.00000
   D52        0.00000   0.00000   0.00000   0.00000   0.00000   0.00000
   D53        0.00000   0.00000   0.00000   0.00000   0.00000   0.00000
   D54        0.00000   0.00000   0.00000   0.00000   0.00000   0.00000
   D55        0.00000   0.00000   0.00000   0.00000   0.00000   0.00000
   D56        0.00000   0.00000   0.00000   0.00000   0.00000   0.00000
   D57        0.00000   0.00000   0.00000   0.00000   0.00000   0.00000
   D58        0.00000   0.00000   0.00000   0.00000   0.00000   0.00000
   D59        0.00000   0.00000   0.00000   0.00000   0.00000   0.00000
   D60        0.00000   0.00000   0.00000   0.00000   0.00000   0.00000
         Item               Value     Threshold  Converged?
 Maximum Force            0.000025     0.000450     YES
 RMS     Force            0.000009     0.000300     YES
 Maximum Displacement     0.014351     0.001800     NO 
 RMS     Displacement     0.003444     0.001200     NO 
 Predicted change in Energy=-8.637005D-06
 GradGradGradGradGradGradGradGradGradGradGradGradGradGradGradGradGradGrad

 1\1\GINC-CX1-7-4-2\Freq\RB3LYP\6-31G(d)\Al12\RZEPA\29-May-2009\0\\#N G
 eom=AllCheck Guess=Read SCRF=Check GenChk RB3LYP/6-31G(d) Freq\\Title 
 Card Required\\0,1\Al,-4.171048361,-0.0000000005,0.\Al,-4.3311049663,2
 .5005646175,0.\Al,-2.0855241809,3.6122338408,0.\Al,-0.0000000006,5.001
 129236,0.\Al,2.0855241801,3.6122338413,0.\Al,4.3311049657,2.5005646185
 ,0.\Al,4.171048361,0.0000000005,0.\Al,4.3311049663,-2.5005646175,0.\Al
 ,2.0855241809,-3.6122338408,0.\Al,0.0000000006,-5.001129236,0.\Al,-2.0
 855241801,-3.6122338413,0.\Al,-4.3311049657,-2.5005646185,0.\\Version=
 EM64L-G03RevE.01\HF=-2908.9812931\RMSD=9.972e-10\RMSF=2.222e-05\ZeroPo
 int=0.0102136\Thermal=0.0261966\Dipole=0.,0.,0.\DipoleDeriv=0.2283849,
 0.,0.,0.,-0.3377443,0.,0.,-0.0000003,-0.0544543,0.0823451,-0.0484745,0
 .,-0.0483688,0.0262867,0.,0.0000003,0.0000002,0.0543989,-0.1957343,-0.
 2445044,0.,-0.2449463,0.0874868,0.,-0.0000002,0.0000002,-0.0543734,-0.
 0016067,0.,0.,0.,0.1101972,0.,-0.0000002,-0.0000001,0.0544037,-0.19573
 43,0.2445044,0.,0.2449463,0.0874868,0.,-0.0000002,-0.0000002,-0.054373
 4,0.0823451,0.0484745,0.,0.0483688,0.0262867,0.,0.0000003,-0.0000002,0
 .0543989,0.228385,0.,0.,0.,-0.3377442,0.,0.,0.0000003,-0.0544543,0.082
 3451,-0.0484745,0.,-0.0483688,0.0262867,0.,-0.0000003,-0.0000002,0.054
 3989,-0.1957343,-0.2445044,0.,-0.2449463,0.0874868,0.,0.0000002,-0.000
 0002,-0.0543734,-0.0016067,0.,0.,0.,0.1101972,0.,0.0000002,0.0000001,0
 .0544037,-0.1957343,0.2445044,0.,0.2449463,0.0874868,0.,0.0000002,0.00
 00002,-0.0543734,0.0823451,0.0484745,0.,0.0483688,0.0262867,0.,-0.0000
 003,0.0000002,0.0543989\Polar=1307.527978,-0.0000009,1307.5479229,0.,0
 .,275.9707478\PG=D06H [3C2'(Al1.Al1),3C2"(Al1.Al1)]\NImag=8\\0.0058594
 9,0.,0.12198214,0.,0.,-0.00288081,-0.00283481,-0.00255887,0.,0.0478691
 3,0.00291106,-0.06660256,0.,0.02618181,0.07806875,0.,0.,0.00224336,0.,
 0.,-0.00665210,0.00194731,0.01041755,0.,-0.05084924,-0.03025865,0.,0.0
 9291973,-0.00270040,0.00642759,0.,-0.02479383,-0.01862862,0.,0.0502389
 4,0.03473312,0.,0.,-0.00160259,0.,0.,0.00221756,0.,0.,-0.00291371,-0.0
 0074372,-0.00158619,0.,0.00456915,0.00350997,0.,-0.05043903,-0.0303805
 6,0.,0.09304380,0.00144603,-0.00070222,0.,0.00054236,0.00223053,0.,-0.
 02490412,-0.01881623,0.,0.,0.03250171,0.,0.,-0.00027590,0.,0.,0.003466
 90,0.,0.,0.00229774,0.,0.,-0.00677701,-0.00141495,-0.00251752,0.,-0.00
 076808,-0.00157300,0.,0.00866264,0.00656850,0.,-0.05043903,0.02490412,
 0.,0.09291973,-0.00137967,0.00083859,0.,0.00146013,-0.00066739,0.,-0.0
 0656850,-0.00024427,0.,0.03038056,-0.01881623,0.,-0.05023894,0.0347331
 2,0.,0.,0.00178641,0.,0.,-0.00027038,0.,0.,-0.00160203,0.,0.,0.0022977
 6,0.,0.,-0.00291371,0.00081530,0.00170378,0.,-0.00015776,-0.00109464,0
 .,-0.00076808,-0.00146013,0.,0.00456915,-0.00054236,0.,-0.05084924,0.0
 2479383,0.,0.04786913,0.00110757,0.00036871,0.,0.00109464,0.00239766,0
 .,0.00157300,-0.00066739,0.,-0.00350997,0.00223053,0.,0.03025865,-0.01
 862862,0.,-0.02618181,0.07806875,0.,0.,-0.00245185,0.,0.,-0.00287689,0
 .,0.,-0.00027038,0.,0.,0.00346689,0.,0.,0.00221756,0.,0.,-0.00665210,-
 0.00139773,0.,0.,0.00081530,-0.00110757,0.,-0.00141495,0.00137967,0.,-
 0.00074372,-0.00144603,0.,0.00194731,0.00270040,0.,-0.00283481,-0.0029
 1106,0.,0.00585949,0.,-0.00264234,0.,-0.00170378,0.00036871,0.,0.00251
 752,0.00083859,0.,0.00158619,-0.00070222,0.,-0.01041755,0.00642759,0.,
 0.00255887,-0.06660256,0.,0.,0.12198214,0.,0.,0.00348189,0.,0.,-0.0024
 5180,0.,0.,0.00178641,0.,0.,-0.00027592,0.,0.,-0.00160260,0.,0.,0.0022
 4340,0.,0.,-0.00288081,0.00081530,-0.00170378,0.,-0.00251425,0.0003793
 3,0.,0.00169545,-0.00059959,0.,0.00175913,0.00001264,0.,-0.00064346,-0
 .00149902,0.,0.00105944,0.00148417,0.,-0.00283481,-0.00255887,0.,0.047
 86913,-0.00110757,0.00036871,0.,0.00037933,-0.00207782,0.,-0.00119540,
 -0.00051721,0.,0.00220152,0.00048134,0.,0.00152973,-0.00079063,0.,-0.0
 0148417,0.00573724,0.,0.00291106,-0.06660256,0.,0.02618181,0.07806875,
 0.,0.,-0.00245180,0.,0.,0.00644653,0.,0.,-0.00245599,0.,0.,-0.00286661
 ,0.,0.,-0.00027876,0.,0.,0.00347818,0.,0.,0.00224336,0.,0.,-0.00665210
 ,-0.00141495,0.00251752,0.,0.00169545,-0.00119540,0.,-0.00233515,-0.00
 053229,0.,-0.00073783,0.00080835,0.,0.00196261,-0.00056666,0.,-0.00064
 346,-0.00152973,0.,0.00194731,0.01041755,0.,-0.05084924,-0.03025865,0.
 ,0.09291973,0.00137967,0.00083859,0.,-0.00059959,-0.00051721,0.,-0.000
 53229,-0.00171561,0.,0.00021402,0.00192236,0.,0.00056666,-0.00254169,0
 .,0.00149902,-0.00079063,0.,-0.00270040,0.00642759,0.,-0.02479383,-0.0
 1862862,0.,0.05023894,0.03473312,0.,0.,0.00178641,0.,0.,-0.00245599,0.
 ,0.,0.00348189,0.,0.,-0.00244546,0.,0.,0.00178531,0.,0.,-0.00027876,0.
 ,0.,-0.00160259,0.,0.,0.00221756,0.,0.,-0.00291371,-0.00074372,0.00158
 619,0.,0.00175913,0.00220152,0.,-0.00073783,0.00021402,0.,-0.00185919,
 0.,0.,-0.00073783,-0.00021402,0.,0.00175913,-0.00220152,0.,-0.00074372
 ,-0.00158619,0.,0.00456915,0.00350997,0.,-0.05043903,-0.03038056,0.,0.
 09304380,-0.00144603,-0.00070222,0.,0.00001264,0.00048134,0.,0.0008083
 5,0.00192236,0.,0.,-0.00273327,0.,-0.00080835,0.00192236,0.,-0.0000126
 4,0.00048134,0.,0.00144603,-0.00070222,0.,0.00054236,0.00223053,0.,-0.
 02490412,-0.01881623,0.,0.,0.03250171,0.,0.,-0.00027592,0.,0.,-0.00286
 661,0.,0.,-0.00244546,0.,0.,0.00642366,0.,0.,-0.00244547,0.,0.,-0.0028
 6659,0.,0.,-0.00027590,0.,0.,0.00346690,0.,0.,0.00229774,0.,0.,-0.0067
 7701,0.00194731,-0.01041755,0.,-0.00064346,0.00152973,0.,0.00196261,0.
 00056666,0.,-0.00073783,-0.00080835,0.,-0.00233515,0.00053229,0.,0.001
 69545,0.00119540,0.,-0.00141495,-0.00251752,0.,-0.00076808,-0.00157300
 ,0.,0.00866264,0.00656850,0.,-0.05043903,0.02490412,0.,0.09291973,0.00
 270040,0.00642759,0.,-0.00149902,-0.00079063,0.,-0.00056666,-0.0025416
 9,0.,-0.00021402,0.00192236,0.,0.00053229,-0.00171561,0.,0.00059959,-0
 .00051721,0.,-0.00137967,0.00083859,0.,0.00146013,-0.00066739,0.,-0.00
 656850,-0.00024427,0.,0.03038056,-0.01881623,0.,-0.05023894,0.03473312
 ,0.,0.,-0.00160260,0.,0.,-0.00027876,0.,0.,0.00178531,0.,0.,-0.0024454
 7,0.,0.,0.00348189,0.,0.,-0.00245599,0.,0.,0.00178641,0.,0.,-0.0002703
 8,0.,0.,-0.00160203,0.,0.,0.00229776,0.,0.,-0.00291371,-0.00283481,0.0
 0255887,0.,0.00105944,-0.00148417,0.,-0.00064346,0.00149902,0.,0.00175
 913,-0.00001264,0.,0.00169545,0.00059959,0.,-0.00251425,-0.00037933,0.
 ,0.00081530,0.00170378,0.,-0.00015776,-0.00109464,0.,-0.00076808,-0.00
 146013,0.,0.00456915,-0.00054236,0.,-0.05084924,0.02479383,0.,0.047869
 13,-0.00291106,-0.06660256,0.,0.00148417,0.00573724,0.,-0.00152973,-0.
 00079063,0.,-0.00220152,0.00048134,0.,0.00119540,-0.00051721,0.,-0.000
 37933,-0.00207782,0.,0.00110757,0.00036871,0.,0.00109464,0.00239766,0.
 ,0.00157300,-0.00066739,0.,-0.00350997,0.00223053,0.,0.03025865,-0.018
 62862,0.,-0.02618181,0.07806875,0.,0.,0.00224340,0.,0.,0.00347818,0.,0
 .,-0.00027876,0.,0.,-0.00286659,0.,0.,-0.00245599,0.,0.,0.00644653,0.,
 0.,-0.00245185,0.,0.,-0.00287689,0.,0.,-0.00027038,0.,0.,0.00346689,0.
 ,0.,0.00221756,0.,0.,-0.00665210\\0.00000382,0.,0.,-0.00004306,0.00001
 537,0.,0.00004548,-0.00000980,0.,0.,0.00001911,0.,-0.00004548,-0.00000
 980,0.,0.00004306,0.00001537,0.,-0.00000382,0.,0.,0.00004306,-0.000015
 37,0.,-0.00004548,0.00000980,0.,0.,-0.00001911,0.,0.00004548,0.0000098
 0,0.,-0.00004306,-0.00001537,0.\\\@


 I (ERNEST RUTHERFORD) CAME INTO THE ROOM, WHICH WAS HALF DARK, AND PRESENTLY
 SPOTTED LORD KELVIN IN THE AUDIENCE AND REALIZED I WAS IN TROUBLE AT
 THE LAST PART OF MY SPEECH DEALING THE AGE OF THE EARTH, WHERE MY VIEWS
 CONFLICTED WITH HIS.  TO MY RELIEF KELVIN FELL FAST ASLEEP, BUT AS I CAME
 TO THE IMPORTANT POINT, I SAW THE OLD BIRD SIT UP AND COCK A BALEFUL GLANCE
 AT ME! THEN A SUDDEN INSPIRATION CAME AND I SAID LORD KELVIN HAD LIMITED
 THE AGE OF THE EARTH PROVIDED NO NEW SOURCE WAS DISCOVERED. THAT
 PROPHETIC UTTERANCE REFERS TO WHAT WE ARE NOW CONSIDERING TONIGHT, RADIUM!
 BEHOLD!  THE OLD BOY BEAMED UPON ME.
 Job cpu time:  0 days  0 hours 32 minutes 59.2 seconds.
 File lengths (MBytes):  RWF=     89 Int=      0 D2E=      0 Chk=     10 Scr=      1
 Normal termination of Gaussian 03 at Fri May 29 15:21:49 2009.
