 Entering Gaussian System, Link 0=g03
 Input=1-NH2-4-CN-14-NH2-all-trans-6-mer-nbo-del-merge-end.com
 Output=1-NH2-4-CN-14-NH2-all-trans-6-mer-nbo-del-merge-end.log
 Initial command:
 /home5/apps/gaussian/g03/l1.exe /scratch/peterli/139331/Gau-24077.inp -scrdir=/scratch/peterli/139331/
 Entering Link 1 = /home5/apps/gaussian/g03/l1.exe PID=     24078.
  
 Copyright (c) 1988,1990,1992,1993,1995,1998,2003,2004, Gaussian, Inc.
                  All Rights Reserved.
  
 This is the Gaussian(R) 03 program.  It is based on the
 the Gaussian(R) 98 system (copyright 1998, Gaussian, Inc.),
 the Gaussian(R) 94 system (copyright 1995, Gaussian, Inc.),
 the Gaussian 92(TM) system (copyright 1992, Gaussian, Inc.),
 the Gaussian 90(TM) system (copyright 1990, Gaussian, Inc.),
 the Gaussian 88(TM) system (copyright 1988, Gaussian, Inc.),
 the Gaussian 86(TM) system (copyright 1986, Carnegie Mellon
 University), and the Gaussian 82(TM) system (copyright 1983,
 Carnegie Mellon University). Gaussian is a federally registered
 trademark of Gaussian, Inc.
  
 This software contains proprietary and confidential information,
 including trade secrets, belonging to Gaussian, Inc.
  
 This software is provided under written license and may be
 used, copied, transmitted, or stored only in accord with that
 written license.
  
 The following legend is applicable only to US Government
 contracts under FAR:
  
                    RESTRICTED RIGHTS LEGEND
  
 Use, reproduction and disclosure by the US Government is
 subject to restrictions as set forth in subparagraphs (a)
 and (c) of the Commercial Computer Software - Restricted
 Rights clause in FAR 52.227-19.
  
 Gaussian, Inc.
 340 Quinnipiac St., Bldg. 40, Wallingford CT 06492
  
  
 ---------------------------------------------------------------
 Warning -- This program may not be used in any manner that
 competes with the business of Gaussian, Inc. or will provide
 assistance to any competitor of Gaussian, Inc.  The licensee
 of this program is prohibited from giving any competitor of
 Gaussian, Inc. access to this program.  By using this program,
 the user acknowledges that Gaussian, Inc. is engaged in the
 business of creating and licensing software in the field of
 computational chemistry and represents and warrants to the
 licensee that it is not a competitor of Gaussian, Inc. and that
 it will not use this program in any manner prohibited above.
 ---------------------------------------------------------------
  

 Cite this work as:
 Gaussian 03, Revision D.01,
 M. J. Frisch, G. W. Trucks, H. B. Schlegel, G. E. Scuseria, 
 M. A. Robb, J. R. Cheeseman, J. A. Montgomery, Jr., T. Vreven, 
 K. N. Kudin, J. C. Burant, J. M. Millam, S. S. Iyengar, J. Tomasi, 
 V. Barone, B. Mennucci, M. Cossi, G. Scalmani, N. Rega, 
 G. A. Petersson, H. Nakatsuji, M. Hada, M. Ehara, K. Toyota, 
 R. Fukuda, J. Hasegawa, M. Ishida, T. Nakajima, Y. Honda, O. Kitao, 
 H. Nakai, M. Klene, X. Li, J. E. Knox, H. P. Hratchian, J. B. Cross, 
 V. Bakken, C. Adamo, J. Jaramillo, R. Gomperts, R. E. Stratmann, 
 O. Yazyev, A. J. Austin, R. Cammi, C. Pomelli, J. W. Ochterski, 
 P. Y. Ayala, K. Morokuma, G. A. Voth, P. Salvador, J. J. Dannenberg, 
 V. G. Zakrzewski, S. Dapprich, A. D. Daniels, M. C. Strain, 
 O. Farkas, D. K. Malick, A. D. Rabuck, K. Raghavachari, 
 J. B. Foresman, J. V. Ortiz, Q. Cui, A. G. Baboul, S. Clifford, 
 J. Cioslowski, B. B. Stefanov, G. Liu, A. Liashenko, P. Piskorz, 
 I. Komaromi, R. L. Martin, D. J. Fox, T. Keith, M. A. Al-Laham, 
 C. Y. Peng, A. Nanayakkara, M. Challacombe, P. M. W. Gill, 
 B. Johnson, W. Chen, M. W. Wong, C. Gonzalez, and J. A. Pople, 
 Gaussian, Inc., Wallingford CT, 2004.
 
 ******************************************
 Gaussian 03:  AM64L-G03RevD.01 13-Oct-2005
                 2-Feb-2008 
 ******************************************
 %Mem=2GB
 Default route:  MaxDisk=100GB
 ---------------------------
 #B3LYP/cc-pVDZ OPT Pop=NONE
 ---------------------------
 1/14=-1,18=20,26=3,38=1/1,3;
 2/9=110,17=6,18=5,40=1/2;
 3/5=16,11=2,16=1,25=1,30=1,74=-5/1,2,3;
 4//1;
 5/5=2,38=5/2;
 7//1,2,3,16;
 1/14=-1,18=20/3(2);
 2/9=110/2;
 99//99;
 2/9=110/2;
 3/5=16,11=2,16=1,25=1,30=1,74=-5/1,2,3;
 4/5=5,16=3/1;
 5/5=2,38=5/2;
 7//1,2,3,16;
 1/14=-1,18=20/3(-5);
 2/9=110/2;
 99/9=1/99;
 ----------------------------------------------------------------------
 Generated from file 1-NH2-4-CN-14-NH2-all-trans-6-mer-nbo-del-merge-en
 d.xml
 ----------------------------------------------------------------------
 Symbolic Z-matrix:
 Charge =  0 Multiplicity = 1
 C                    -9.31034   6.48719   0. 
 C                    -10.65383   6.24672   0. 
 C                    -11.65088   7.22578   0. 
 C                    -12.53996   8.05859   0. 
 C                    -8.35083   5.46466   0. 
 C                    -7.50558   4.58581   0. 
 C                    -6.54191   3.5589    0. 
 C                    -5.18811   3.81575   0. 
 C                    -4.19748   2.8368    0. 
 C                    -3.31594   1.99075   0. 
 C                    -2.33092   0.99853   0. 
 C                    -0.98959   1.26288   0. 
 C                     0.        0.27425   0. 
 C                     0.87787  -0.57491   0. 
 C                     1.86635  -1.56629   0. 
 C                     3.20655  -1.29927   0. 
 C                     4.20009  -2.28459   0. 
 C                     5.081    -3.13062   0. 
 C                     6.07374  -4.11863   0. 
 C                     7.41257  -3.84558   0. 
 C                     8.41466  -4.82225   0. 
 C                     9.30457  -5.6588    0. 
 C                     10.30517  -6.64079   0. 
 C                     11.63897  -6.35071   0. 
 C                     12.67205  -7.29293   0. 
 C                     13.58872  -8.09509   0. 
 N                    -13.50403   8.96238   0. 
 H                    -14.48226   8.69065   0. 
 H                    -13.29667   9.95619   0. 
 H                    -10.99215   5.21225   0. 
 H                    -8.9508    7.51255   0. 
 C                    -7.03254   2.21594   0. 
 N                    -7.46581   1.13311   0. 
 H                    -4.88034   4.85735   0. 
 H                    -2.66527  -0.0359    0. 
 H                    -0.6606    2.29953   0. 
 H                     1.53704  -2.60244   0. 
 H                     3.53211  -0.26146   0. 
 H                     5.74878  -5.15608   0. 
 H                     7.73105  -2.80532   0. 
 H                     9.98794  -7.68038   0. 
 H                     11.93904  -5.30452   0. 
 N                     14.58234  -8.96739   0. 
 H                     15.55118  -8.66437   0. 
 H                     14.40703  -9.96727   0. 
 

 GradGradGradGradGradGradGradGradGradGradGradGradGradGradGradGradGradGrad
 Berny optimization.
 Initialization pass.
                           ----------------------------
                           !    Initial Parameters    !
                           ! (Angstroms and Degrees)  !
 --------------------------                            --------------------------
 ! Name  Definition              Value          Derivative Info.                !
 --------------------------------------------------------------------------------
 ! R1    R(1,2)                  1.3648         estimate D2E/DX2                !
 ! R2    R(1,5)                  1.4022         estimate D2E/DX2                !
 ! R3    R(1,31)                 1.0866         estimate D2E/DX2                !
 ! R4    R(2,3)                  1.3974         estimate D2E/DX2                !
 ! R5    R(2,30)                 1.0884         estimate D2E/DX2                !
 ! R6    R(3,4)                  1.2182         estimate D2E/DX2                !
 ! R7    R(4,27)                 1.3215         estimate D2E/DX2                !
 ! R8    R(5,6)                  1.2194         estimate D2E/DX2                !
 ! R9    R(6,7)                  1.4083         estimate D2E/DX2                !
 ! R10   R(7,8)                  1.3779         estimate D2E/DX2                !
 ! R11   R(7,32)                 1.4298         estimate D2E/DX2                !
 ! R12   R(8,9)                  1.3927         estimate D2E/DX2                !
 ! R13   R(8,34)                 1.0861         estimate D2E/DX2                !
 ! R14   R(9,10)                 1.2219         estimate D2E/DX2                !
 ! R15   R(10,11)                1.3981         estimate D2E/DX2                !
 ! R16   R(11,12)                1.3671         estimate D2E/DX2                !
 ! R17   R(11,35)                1.0871         estimate D2E/DX2                !
 ! R18   R(12,13)                1.3988         estimate D2E/DX2                !
 ! R19   R(12,36)                1.0876         estimate D2E/DX2                !
 ! R20   R(13,14)                1.2214         estimate D2E/DX2                !
 ! R21   R(14,15)                1.4            estimate D2E/DX2                !
 ! R22   R(15,16)                1.3665         estimate D2E/DX2                !
 ! R23   R(15,37)                1.0872         estimate D2E/DX2                !
 ! R24   R(16,17)                1.3993         estimate D2E/DX2                !
 ! R25   R(16,38)                1.0877         estimate D2E/DX2                !
 ! R26   R(17,18)                1.2214         estimate D2E/DX2                !
 ! R27   R(18,19)                1.4006         estimate D2E/DX2                !
 ! R28   R(19,20)                1.3664         estimate D2E/DX2                !
 ! R29   R(19,39)                1.0871         estimate D2E/DX2                !
 ! R30   R(20,21)                1.3993         estimate D2E/DX2                !
 ! R31   R(20,40)                1.0879         estimate D2E/DX2                !
 ! R32   R(21,22)                1.2214         estimate D2E/DX2                !
 ! R33   R(22,23)                1.402          estimate D2E/DX2                !
 ! R34   R(23,24)                1.365          estimate D2E/DX2                !
 ! R35   R(23,41)                1.0869         estimate D2E/DX2                !
 ! R36   R(24,25)                1.3982         estimate D2E/DX2                !
 ! R37   R(24,42)                1.0884         estimate D2E/DX2                !
 ! R38   R(25,26)                1.2181         estimate D2E/DX2                !
 ! R39   R(26,43)                1.3222         estimate D2E/DX2                !
 ! R40   R(27,28)                1.0153         estimate D2E/DX2                !
 ! R41   R(27,29)                1.0152         estimate D2E/DX2                !
 ! R42   R(32,33)                1.1663         estimate D2E/DX2                !
 ! R43   R(43,44)                1.0151         estimate D2E/DX2                !
 ! R44   R(43,45)                1.0151         estimate D2E/DX2                !
 ! A1    A(2,1,5)              123.0308         estimate D2E/DX2                !
 ! A2    A(2,1,31)             119.4709         estimate D2E/DX2                !
 ! A3    A(5,1,31)             117.4982         estimate D2E/DX2                !
 ! A4    A(1,2,3)              125.3736         estimate D2E/DX2                !
 ! A5    A(1,2,30)             118.2582         estimate D2E/DX2                !
 ! A6    A(3,2,30)             116.3681         estimate D2E/DX2                !
 ! A7    A(6,7,8)              122.438          estimate D2E/DX2                !
 ! A8    A(6,7,32)             116.7505         estimate D2E/DX2                !
 ! A9    A(8,7,32)             120.8115         estimate D2E/DX2                !
 ! A10   A(7,8,9)              124.5974         estimate D2E/DX2                !
 ! A11   A(7,8,34)             117.2035         estimate D2E/DX2                !
 ! A12   A(9,8,34)             118.1991         estimate D2E/DX2                !
 ! A13   A(10,11,12)           123.6424         estimate D2E/DX2                !
 ! A14   A(10,11,35)           117.2965         estimate D2E/DX2                !
 ! A15   A(12,11,35)           119.0611         estimate D2E/DX2                !
 ! A16   A(11,12,13)           123.8788         estimate D2E/DX2                !
 ! A17   A(11,12,36)           118.7567         estimate D2E/DX2                !
 ! A18   A(13,12,36)           117.3646         estimate D2E/DX2                !
 ! A19   A(14,15,16)           123.6479         estimate D2E/DX2                !
 ! A20   A(14,15,37)           117.4528         estimate D2E/DX2                !
 ! A21   A(16,15,37)           118.8993         estimate D2E/DX2                !
 ! A22   A(15,16,17)           123.9701         estimate D2E/DX2                !
 ! A23   A(15,16,38)           118.6843         estimate D2E/DX2                !
 ! A24   A(17,16,38)           117.3457         estimate D2E/DX2                !
 ! A25   A(18,19,20)           123.6091         estimate D2E/DX2                !
 ! A26   A(18,19,39)           117.4718         estimate D2E/DX2                !
 ! A27   A(20,19,39)           118.9191         estimate D2E/DX2                !
 ! A28   A(19,20,21)           124.2088         estimate D2E/DX2                !
 ! A29   A(19,20,40)           118.5497         estimate D2E/DX2                !
 ! A30   A(21,20,40)           117.2415         estimate D2E/DX2                !
 ! A31   A(22,23,24)           123.2679         estimate D2E/DX2                !
 ! A32   A(22,23,41)           117.4928         estimate D2E/DX2                !
 ! A33   A(24,23,41)           119.2392         estimate D2E/DX2                !
 ! A34   A(23,24,25)           125.3638         estimate D2E/DX2                !
 ! A35   A(23,24,42)           118.2738         estimate D2E/DX2                !
 ! A36   A(25,24,42)           116.3624         estimate D2E/DX2                !
 ! A37   A(4,27,28)            121.3243         estimate D2E/DX2                !
 ! A38   A(4,27,29)            121.3662         estimate D2E/DX2                !
 ! A39   A(28,27,29)           117.3095         estimate D2E/DX2                !
 ! A40   A(26,43,44)           121.3524         estimate D2E/DX2                !
 ! A41   A(26,43,45)           121.3355         estimate D2E/DX2                !
 ! A42   A(44,43,45)           117.312          estimate D2E/DX2                !
 ! A43   L(2,3,4,30,-1)        178.6499         estimate D2E/DX2                !
 ! A44   L(3,4,27,29,-1)       179.9768         estimate D2E/DX2                !
 ! A45   L(1,5,6,2,-1)         180.7049         estimate D2E/DX2                !
 ! A46   L(5,6,7,32,-1)        179.2969         estimate D2E/DX2                !
 ! A47   L(8,9,10,7,-1)        180.8368         estimate D2E/DX2                !
 ! A48   L(9,10,11,35,-1)      178.6148         estimate D2E/DX2                !
 ! A49   L(12,13,14,36,-1)     179.0756         estimate D2E/DX2                !
 ! A50   L(13,14,15,37,-1)     178.9636         estimate D2E/DX2                !
 ! A51   L(16,17,18,38,-1)     179.0808         estimate D2E/DX2                !
 ! A52   L(17,18,19,39,-1)     178.9793         estimate D2E/DX2                !
 ! A53   L(20,21,22,40,-1)     178.9662         estimate D2E/DX2                !
 ! A54   L(21,22,23,41,-1)     178.7679         estimate D2E/DX2                !
 ! A55   L(24,25,26,42,-1)     178.8226         estimate D2E/DX2                !
 ! A56   L(25,26,43,45,-1)     179.909          estimate D2E/DX2                !
 ! A57   L(7,32,33,6,-1)       178.2611         estimate D2E/DX2                !
 ! A58   L(2,3,4,30,-2)        180.0            estimate D2E/DX2                !
 ! A59   L(3,4,27,29,-2)       180.0            estimate D2E/DX2                !
 ! A60   L(1,5,6,2,-2)         180.0            estimate D2E/DX2                !
 ! A61   L(5,6,7,32,-2)        180.0            estimate D2E/DX2                !
 ! A62   L(8,9,10,7,-2)        180.0            estimate D2E/DX2                !
 ! A63   L(9,10,11,35,-2)      180.0            estimate D2E/DX2                !
 ! A64   L(12,13,14,36,-2)     180.0            estimate D2E/DX2                !
 ! A65   L(13,14,15,37,-2)     180.0            estimate D2E/DX2                !
 ! A66   L(16,17,18,38,-2)     180.0            estimate D2E/DX2                !
 ! A67   L(17,18,19,39,-2)     180.0            estimate D2E/DX2                !
 ! A68   L(20,21,22,40,-2)     180.0            estimate D2E/DX2                !
 ! A69   L(21,22,23,41,-2)     180.0            estimate D2E/DX2                !
 ! A70   L(24,25,26,42,-2)     180.0            estimate D2E/DX2                !
 ! A71   L(25,26,43,45,-2)     180.0            estimate D2E/DX2                !
 ! A72   L(7,32,33,6,-2)       180.0            estimate D2E/DX2                !
 ! D1    D(5,1,2,3)            180.0            estimate D2E/DX2                !
 ! D2    D(5,1,2,30)             0.0            estimate D2E/DX2                !
 ! D3    D(31,1,2,3)             0.0            estimate D2E/DX2                !
 ! D4    D(31,1,2,30)          180.0            estimate D2E/DX2                !
 ! D5    D(2,1,7,8)            180.0            estimate D2E/DX2                !
 ! D6    D(2,1,7,32)             0.0            estimate D2E/DX2                !
 ! D7    D(31,1,7,8)             0.0            estimate D2E/DX2                !
 ! D8    D(31,1,7,32)          180.0            estimate D2E/DX2                !
 ! D9    D(1,2,27,28)          180.0            estimate D2E/DX2                !
 ! D10   D(1,2,27,29)            0.0            estimate D2E/DX2                !
 ! D11   D(30,2,27,28)           0.0            estimate D2E/DX2                !
 ! D12   D(30,2,27,29)         180.0            estimate D2E/DX2                !
 ! D13   D(6,7,8,9)            180.0            estimate D2E/DX2                !
 ! D14   D(6,7,8,34)             0.0            estimate D2E/DX2                !
 ! D15   D(32,7,8,9)             0.0            estimate D2E/DX2                !
 ! D16   D(32,7,8,34)          180.0            estimate D2E/DX2                !
 ! D17   D(7,8,11,12)          180.0            estimate D2E/DX2                !
 ! D18   D(7,8,11,35)            0.0            estimate D2E/DX2                !
 ! D19   D(34,8,11,12)           0.0            estimate D2E/DX2                !
 ! D20   D(34,8,11,35)         180.0            estimate D2E/DX2                !
 ! D21   D(10,11,12,13)        180.0            estimate D2E/DX2                !
 ! D22   D(10,11,12,36)          0.0            estimate D2E/DX2                !
 ! D23   D(35,11,12,13)          0.0            estimate D2E/DX2                !
 ! D24   D(35,11,12,36)        180.0            estimate D2E/DX2                !
 ! D25   D(11,12,15,16)        180.0            estimate D2E/DX2                !
 ! D26   D(11,12,15,37)          0.0            estimate D2E/DX2                !
 ! D27   D(36,12,15,16)          0.0            estimate D2E/DX2                !
 ! D28   D(36,12,15,37)        180.0            estimate D2E/DX2                !
 ! D29   D(14,15,16,17)        180.0            estimate D2E/DX2                !
 ! D30   D(14,15,16,38)          0.0            estimate D2E/DX2                !
 ! D31   D(37,15,16,17)          0.0            estimate D2E/DX2                !
 ! D32   D(37,15,16,38)        180.0            estimate D2E/DX2                !
 ! D33   D(15,16,19,20)        180.0            estimate D2E/DX2                !
 ! D34   D(15,16,19,39)          0.0            estimate D2E/DX2                !
 ! D35   D(38,16,19,20)          0.0            estimate D2E/DX2                !
 ! D36   D(38,16,19,39)        180.0            estimate D2E/DX2                !
 ! D37   D(18,19,20,21)        180.0            estimate D2E/DX2                !
 ! D38   D(18,19,20,40)          0.0            estimate D2E/DX2                !
 ! D39   D(39,19,20,21)          0.0            estimate D2E/DX2                !
 ! D40   D(39,19,20,40)        180.0            estimate D2E/DX2                !
 ! D41   D(19,20,23,24)        180.0            estimate D2E/DX2                !
 ! D42   D(19,20,23,41)          0.0            estimate D2E/DX2                !
 ! D43   D(40,20,23,24)          0.0            estimate D2E/DX2                !
 ! D44   D(40,20,23,41)        180.0            estimate D2E/DX2                !
 ! D45   D(22,23,24,25)        180.0            estimate D2E/DX2                !
 ! D46   D(22,23,24,42)          0.0            estimate D2E/DX2                !
 ! D47   D(41,23,24,25)          0.0            estimate D2E/DX2                !
 ! D48   D(41,23,24,42)        180.0            estimate D2E/DX2                !
 ! D49   D(23,24,43,44)        180.0            estimate D2E/DX2                !
 ! D50   D(23,24,43,45)          0.0            estimate D2E/DX2                !
 ! D51   D(42,24,43,44)          0.0            estimate D2E/DX2                !
 ! D52   D(42,24,43,45)        180.0            estimate D2E/DX2                !
 --------------------------------------------------------------------------------
 Trust Radius=3.00D-01 FncErr=1.00D-07 GrdErr=1.00D-06
 Number of steps in this run= 178 maximum allowed number of steps= 270.
 GradGradGradGradGradGradGradGradGradGradGradGradGradGradGradGradGradGrad

                          Input orientation:                          
 ---------------------------------------------------------------------
 Center     Atomic     Atomic              Coordinates (Angstroms)
 Number     Number      Type              X           Y           Z
 ---------------------------------------------------------------------
    1          6             0       -9.310336    6.487191    0.000000
    2          6             0      -10.653832    6.246719    0.000000
    3          6             0      -11.650883    7.225782    0.000000
    4          6             0      -12.539959    8.058592    0.000000
    5          6             0       -8.350828    5.464658    0.000000
    6          6             0       -7.505577    4.585810    0.000000
    7          6             0       -6.541906    3.558904    0.000000
    8          6             0       -5.188107    3.815746    0.000000
    9          6             0       -4.197481    2.836804    0.000000
   10          6             0       -3.315942    1.990749    0.000000
   11          6             0       -2.330920    0.998531    0.000000
   12          6             0       -0.989594    1.262883    0.000000
   13          6             0        0.000000    0.274252    0.000000
   14          6             0        0.877870   -0.574912    0.000000
   15          6             0        1.866345   -1.566294    0.000000
   16          6             0        3.206553   -1.299273    0.000000
   17          6             0        4.200094   -2.284593    0.000000
   18          6             0        5.081004   -3.130620    0.000000
   19          6             0        6.073735   -4.118632    0.000000
   20          6             0        7.412568   -3.845577    0.000000
   21          6             0        8.414663   -4.822247    0.000000
   22          6             0        9.304569   -5.658804    0.000000
   23          6             0       10.305168   -6.640793    0.000000
   24          6             0       11.638974   -6.350711    0.000000
   25          6             0       12.672050   -7.292925    0.000000
   26          6             0       13.588718   -8.095093    0.000000
   27          7             0      -13.504026    8.962379    0.000000
   28          1             0      -14.482260    8.690647    0.000000
   29          1             0      -13.296673    9.956190    0.000000
   30          1             0      -10.992154    5.212253    0.000000
   31          1             0       -8.950799    7.512545    0.000000
   32          6             0       -7.032538    2.215940    0.000000
   33          7             0       -7.465812    1.133113    0.000000
   34          1             0       -4.880340    4.857349    0.000000
   35          1             0       -2.665272   -0.035903    0.000000
   36          1             0       -0.660600    2.299530    0.000000
   37          1             0        1.537036   -2.602440    0.000000
   38          1             0        3.532107   -0.261463    0.000000
   39          1             0        5.748783   -5.156081    0.000000
   40          1             0        7.731050   -2.805319    0.000000
   41          1             0        9.987941   -7.680383    0.000000
   42          1             0       11.939040   -5.304525    0.000000
   43          7             0       14.582335   -8.967390    0.000000
   44          1             0       15.551184   -8.664372    0.000000
   45          1             0       14.407030   -9.967270    0.000000
 ---------------------------------------------------------------------
                    Distance matrix (angstroms):
                    1          2          3          4          5
     1  C    0.000000
     2  C    1.364847   0.000000
     3  C    2.454318   1.397381   0.000000
     4  C    3.591624   2.615408   1.218207   0.000000
     5  C    1.402223   2.432169   3.740578   4.927201   0.000000
     6  C    2.621527   3.559512   4.914572   6.115980   1.219354
     7  C    4.029773   4.912462   6.288691   7.498255   2.627565
     8  C    4.912168   5.981954   7.307244   8.488314   3.566751
     9  C    6.282246   7.301506   8.649643   9.841951   4.914866
    10  C    7.493380   8.482801   9.842602  11.040888   6.117035
    11  C    8.879056   9.839428  11.208941  12.412451   7.495704
    12  C    9.824874  10.873643  12.215533  13.401216   8.476006
    13  C   11.192987  12.213701  13.567124  14.759625   9.832428
    14  C   12.396485  13.398313  14.758742  15.955423  11.029292
    15  C   13.775951  14.757981  16.125013  17.325704  12.402617
    16  C   14.741151  15.781390  17.129506  18.317267  13.391184
    17  C   16.108256  17.129577  18.485148  19.677674  14.750476
    18  C   17.309331  18.317193  19.677680  20.873351  15.946564
    19  C   18.685639  19.678719  21.044187  22.243075  17.317837
    20  C   19.657610  20.694184  22.045184  23.233867  18.307516
    21  C   21.025674  22.048345  23.404725  24.596996  19.669827
    22  C   22.227008  23.239605  24.599665  25.794386  20.867306
    23  C   23.603219  24.604220  25.968251  27.165635  22.239337
    24  C   24.570008  25.605945  26.958090  28.146915  23.220576
    25  C   25.944496  26.970701  28.326629  29.518036  24.591001
    26  C   27.147922  28.167158  29.525695  30.718875  25.791676
    27  N    4.869660   3.936803   2.539667   1.321460   6.228122
    28  H    5.621745   4.541987   3.187872   2.042554   6.928309
    29  H    5.284396   4.554644   3.188064   2.042913   6.680961
    30  H    2.110445   1.088385   2.118543   3.239961   2.653358
    31  H    1.086562   2.121942   2.715269   3.630460   2.133965
    32  C    4.840656   5.418574   6.813782   8.029213   3.506003
    33  N    5.662899   6.025980   7.391579   8.585408   4.421033
    34  H    4.720302   5.938313   7.172847   8.301670   3.523225
    35  H    9.311693  10.163092  11.553063  12.768332   7.910861
    36  H    9.610122  10.744533  12.043848  13.201741   8.316107
    37  H   14.152274  15.064026  16.447345  17.658409  12.761188
    38  H   14.507676  15.607604  16.928734  18.097918  13.190626
    39  H   19.035305  19.976727  21.355536  22.563370  17.652171
    40  H   19.410296  20.492518  21.823893  22.998660  18.083675
    41  H   23.940419  24.900742  26.276082  27.481296  22.563301
    42  H   24.301863  25.374576  26.711291  27.888964  22.970721
    43  N   28.455295  29.467495  30.828567  32.023474  27.096383
    44  H   29.114688  30.150348  31.503166  32.692046  27.765728
    45  H   28.866291  29.848622  31.218838  32.420239  27.496627
                    6          7          8          9         10
     6  C    0.000000
     7  C    1.408261   0.000000
     8  C    2.442062   1.377948   0.000000
     9  C    3.741994   2.453112   1.392719   0.000000
    10  C    4.928223   3.586914   2.614501   1.221851   0.000000
    11  C    6.296479   4.928277   4.012508   2.619790   1.398129
    12  C    7.314361   6.008318   4.913718   3.573201   2.437557
    13  C    8.655820   7.320210   6.281611   4.917878   3.733876
    14  C    9.844554   8.493616   7.488254   6.115472   4.916368
    15  C   11.210767   9.847149   8.873086   7.493815   6.285591
    16  C   12.222272  10.891939   9.830246   8.480970   7.305285
    17  C   13.572957  12.228533  11.196091   9.836055   8.646927
    18  C   14.763648  13.410510  12.397848  11.031792   9.835503
    19  C   16.129632  14.768174  13.776191  12.404675  11.202257
    20  C   17.135908  15.797268  14.746962  13.395800  12.213256
    21  C   18.492311  17.144756  16.113667  14.755583  13.565545
    22  C   19.685861  18.332401  17.314871  15.952452  14.757810
    23  C   21.053723  19.694104  18.691730  17.324886  16.125699
    24  C   22.048159  20.706155  19.659794  18.308570  17.123944
    25  C   23.414546  22.066678  21.033016  19.677207  18.487901
    26  C   24.612488  23.260646  22.235945  20.877147  19.684810
    27  N    7.425345   8.812982   9.779690  11.141564  12.345067
    28  H    8.094677   9.454312  10.495044  11.834025  13.022108
    29  H    7.897960   9.303341  10.171229  11.553396  12.769622
    30  H    3.542407   4.747449   5.969690   7.197940   8.324801
    31  H    3.264115   4.629691   5.274862   6.667577   7.889350
    32  C    2.416619   1.429780   2.441578   2.902244   3.723412
    33  N    3.452926   2.595778   3.519156   3.685723   4.237565
    34  H    2.639243   2.108734   1.086120   2.132815   3.265691
    35  H    6.692442   5.286864   4.604335   3.255781   2.128542
    36  H    7.216702   6.014631   4.774645   3.577456   2.673235
    37  H   11.551614  10.160289   9.296271   7.903800   6.681974
    38  H   12.055145  10.774087   9.626306   8.327412   7.208900
    39  H   16.449392  15.066917  14.145997  12.759874  11.543241
    40  H   16.934686  15.627559  14.516994  13.195583  12.043185
    41  H   21.365455  19.988932  19.038735  17.658919  16.447617
    42  H   21.815404  20.496481  19.404085  18.073974  16.909627
    43  N   25.914573  24.558941  23.543129  22.181535  20.986403
    44  H   26.592885  25.249022  24.204783  22.853595  21.667950
    45  H   26.305028  24.936225  23.957064  22.584777  21.379849
                   11         12         13         14         15
    11  C    0.000000
    12  C    1.367127   0.000000
    13  C    2.440854   1.398816   0.000000
    14  C    3.573801   2.620098   1.221366   0.000000
    15  C    4.918878   4.020029   2.621231   1.399972   0.000000
    16  C    5.995291   4.916533   3.571829   2.438742   1.366550
    17  C    7.309791   6.286290   4.918178   3.736333   2.441790
    18  C    8.484486   7.493666   6.116351   4.919144   3.575073
    19  C    9.839898   8.879827   7.495845   6.289274   4.921032
    20  C   10.881220   9.833244   8.480516   7.307498   5.996309
    21  C   12.220843  11.201288   9.837726   8.651191   7.313118
    22  C   13.405399  12.404819  11.035224   9.841505   8.489748
    23  C   14.765839  13.785490  12.410251  11.210212   9.847044
    24  C   15.785097  14.746103  13.392380  12.213157  10.880943
    25  C   17.141685  16.119627  14.759506  13.573297  12.229373
    26  C   18.333818  17.323363  15.959298  14.768845  13.417870
    27  N   13.720830  14.693306  16.057468  17.256849  18.630654
    28  H   14.381367  15.402068  16.750270  17.938344  19.299786
    29  H   14.159357  15.067773  16.448144  17.658476  19.044284
    30  H    9.631844  10.754010  12.050365  13.205633  14.535807
    31  H    9.287366  10.121218  11.511285  12.728303  14.122178
    32  C    4.856675   6.117638   7.295666   8.388290   9.669303
    33  N    5.136655   6.477518   7.515051   8.516712   9.714729
    34  H    4.624934   5.296989   6.694961   7.916214   9.315629
    35  H    1.087127   2.120081   2.683258   3.583907   4.783059
    36  H    2.117207   1.087600   2.130292   3.260262   4.618446
    37  H    5.284702   4.617855   3.261570   2.131987   1.087218
    38  H    5.996888   4.771730   3.572502   2.672681   2.115974
    39  H   10.156813   9.306386   7.908035   6.686771   5.287712
    40  H   10.756975   9.622884   8.321832   7.206996   5.994159
    41  H   15.069104  14.159388  12.768523  11.553403  10.165747
    42  H   15.600009  14.501049  13.178142  12.029909  10.744001
    43  N   19.631041  18.631786  17.264195  16.070036  14.713009
    44  H   20.325879  19.291131  17.937066  16.755462  15.416145
    45  H   20.010191  19.057082  17.676292  16.469808  15.094541
                   16         17         18         19         20
    16  C    0.000000
    17  C    1.399278   0.000000
    18  C    2.620572   1.221378   0.000000
    19  C    4.021134   2.621875   1.400601   0.000000
    20  C    4.916729   3.571647   2.438720   1.366394   0.000000
    21  C    6.287746   4.919581   3.738300   2.444385   1.399314
    22  C    7.496086   6.118902   4.922420   3.579164   2.620584
    23  C    8.883815   7.499894   6.293902   4.926086   4.022483
    24  C    9.829687   8.477632   7.305885   5.996171   4.913065
    25  C   11.203548   9.841617   8.657295   7.322151   6.288590
    26  C   12.408566  11.041203   9.850238   8.502189   7.496880
    27  N   19.609818  20.974514  22.173046  23.545734  24.526468
    28  H   20.314837  21.667631  22.857464  24.220375  25.229752
    29  H   19.976034  21.353539  22.561108  23.943962  24.886973
    30  H   15.620603  16.941284  18.109388  19.450192  20.512876
    31  H   15.014971  16.399082  17.611600  19.000550  19.919004
    32  C   10.825697  12.100695  13.240982  14.556826  15.665346
    33  N   10.946044  12.156236  13.251491  14.522402  15.689281
    34  H   10.163751  11.552559  12.768556  14.161921  15.061756
    35  H    6.006200   7.224255   8.341586   9.645668  10.773879
    36  H    5.282637   6.681357   7.902692   9.302907  10.145855
    37  H    2.117907   2.681959   3.583111   4.783354   6.005603
    38  H    1.087674   2.130554   3.260543   4.619267   5.282410
    39  H    4.619297   3.262496   2.132703   1.087150   2.117924
    40  H    4.768569   3.569146   2.669937   2.114588   1.087919
    41  H    9.311594   7.912883   6.691665   5.292171   4.619338
    42  H    9.607204   8.307302   7.194339   5.983991   4.755784
    43  N   13.718908  12.347093  11.150927   9.793198   8.811273
    44  H   14.374790  13.021092  11.842596  10.511222   9.458216
    45  H   14.162798  12.775174  11.563501  10.180883   9.295032
                   21         22         23         24         25
    21  C    0.000000
    22  C    1.221376   0.000000
    23  C    2.623189   1.401963   0.000000
    24  C    3.568247   2.434786   1.364986   0.000000
    25  C    4.922357   3.743031   2.455078   1.398218   0.000000
    26  C    6.122284   4.928431   3.591196   2.616175   1.218094
    27  N   25.892950  27.092637  28.466413  29.439110  30.812690
    28  H   26.586978  27.779848  29.145662  30.142351  31.509223
    29  H   26.263745  27.470788  28.853193  29.794320  31.175416
    30  H   21.847557  23.024701  24.373564  25.413974  26.765164
    31  H   21.300384  22.510951  23.897892  24.821938  26.205907
    32  C   16.975043  18.135949  19.468892  20.542952  21.878969
    33  N   16.960419  18.093530  19.396942  20.518296  21.829604
    34  H   16.445415  17.657891  19.047491  19.962674  21.347495
    35  H   12.069550  13.224754  14.555304  15.636120  16.967552
    36  H   11.536035  12.753026  14.148408  15.036828  16.424821
    37  H    7.226984   8.347211   9.653416  10.774910  12.082598
    38  H    6.681325   7.902696   9.304311  10.139045  11.531696
    39  H    2.686701   3.591148   4.792183   6.010116   7.245532
    40  H    2.129630   3.258579   4.619193   5.276521   6.674735
    41  H    3.262537   2.133959   1.086913   2.119891   2.711930
    42  H    3.557222   2.658186   2.110723   1.088368   2.119207
    43  N    7.431177   6.229089   4.869005   3.938322   2.540280
    44  H    8.105051   6.932073   5.622771   4.545153   3.189088
    45  H    7.898084   6.678172   5.281167   4.554298   3.187833
                   26         27         28         29         30
    26  C    0.000000
    27  N   32.015217   0.000000
    28  H   32.706893   1.015273   0.000000
    29  H   32.383222   1.015212   1.734133   0.000000
    30  H   27.951829   4.513640   4.927481   5.274064   0.000000
    31  H   27.415838   4.778482   5.655527   4.985782   3.075463
    32  C   23.055446   9.348508   9.870167   9.957452   4.965526
    33  N   22.988106   9.887236  10.312462  10.575709   5.392075
    34  H   22.558188   9.550876  10.338812   9.840368   6.122110
    35  H   18.142291  14.087145  14.689924  14.590017   9.842769
    36  H   17.637779  14.468834  15.227760  14.774802  10.734289
    37  H   13.244330  18.973102  19.599787  19.436000  14.766517
    38  H   12.747595  19.372896  20.116105  19.687770  15.521460
    39  H    8.372716  23.874706  24.515852  24.312757  19.691656
    40  H    7.892654  24.277709  25.011765  24.597180  20.367617
    41  H    3.624580  28.789825  29.441490  29.209963  24.624875
    42  H    3.241714  29.170090  29.898996  29.491196  25.227808
    43  N    1.322186  33.321469  34.008190  33.694821  29.242380
    44  H    2.043368  33.983931  34.687237  34.335465  29.951786
    45  H    2.043204  33.724748  34.390536  34.123883  29.589465
                   31         32         33         34         35
    31  H    0.000000
    32  C    5.633272   0.000000
    33  N    6.549988   1.166294   0.000000
    34  H    4.859908   3.407198   4.533718   0.000000
    35  H    9.822775   4.913635   4.940828   5.371261   0.000000
    36  H    9.793004   6.372486   6.904451   4.934434   3.077817
    37  H   14.570779   9.831296   9.747083   9.840283   4.924074
    38  H   14.705718  10.851233  11.085985   9.847411   6.201482
    39  H   19.405458  14.754961  14.634872  14.602980   9.849495
    40  H   19.614852  15.594120  15.698913  14.756817  10.758865
    41  H   24.279640  19.688421  19.552780  19.448920  14.783162
    42  H   24.508420  20.407797  20.444840  19.650833  15.525602
    43  N   28.729717  24.336590  24.251617  23.872979  19.422961
    44  H   29.360515  25.068021  25.015452  24.500696  20.156630
    45  H   29.174169  24.659393  24.528345  24.326364  19.750837
                   36         37         38         39         40
    36  H    0.000000
    37  H    5.372049   0.000000
    38  H    4.912991   3.075790   0.000000
    39  H    9.831903   4.925433   5.373168   0.000000
    40  H    9.822386   6.197336   4.909412   3.074974   0.000000
    41  H   14.594180   9.859173   9.834539   4.933818   5.372132
    42  H   14.716405  10.747230   9.803520   6.192037   4.894202
    43  N   18.954961  14.515248  14.067718   9.620692   9.214729
    44  H   19.571129  15.269033  14.665166  10.411300   9.771540
    45  H   19.429561  14.828266  14.576235   9.905190   9.790927
                   41         42         43         44         45
    41  H    0.000000
    42  H    3.074327   0.000000
    43  N    4.771252   4.517033   0.000000
    44  H    5.649594   4.933169   1.015130   0.000000
    45  H    4.975761   5.275620   1.015131   1.733964   0.000000
 Stoichiometry    C27H15N3
 Framework group  CS[SG(C27H15N3)]
 Deg. of freedom    87
 Full point group                 CS
 Largest Abelian subgroup         CS      NOp   2
 Largest concise Abelian subgroup C1      NOp   1
                         Standard orientation:                         
 ---------------------------------------------------------------------
 Center     Atomic     Atomic              Coordinates (Angstroms)
 Number     Number      Type              X           Y           Z
 ---------------------------------------------------------------------
    1          6             0       -9.310336    6.487191    0.000000
    2          6             0      -10.653832    6.246719    0.000000
    3          6             0      -11.650883    7.225782    0.000000
    4          6             0      -12.539959    8.058592    0.000000
    5          6             0       -8.350828    5.464658    0.000000
    6          6             0       -7.505577    4.585810    0.000000
    7          6             0       -6.541906    3.558904    0.000000
    8          6             0       -5.188107    3.815746    0.000000
    9          6             0       -4.197481    2.836804    0.000000
   10          6             0       -3.315942    1.990749    0.000000
   11          6             0       -2.330920    0.998531    0.000000
   12          6             0       -0.989594    1.262883    0.000000
   13          6             0        0.000000    0.274252    0.000000
   14          6             0        0.877870   -0.574912    0.000000
   15          6             0        1.866345   -1.566294    0.000000
   16          6             0        3.206553   -1.299273    0.000000
   17          6             0        4.200094   -2.284593    0.000000
   18          6             0        5.081004   -3.130620    0.000000
   19          6             0        6.073735   -4.118632    0.000000
   20          6             0        7.412568   -3.845577    0.000000
   21          6             0        8.414663   -4.822247    0.000000
   22          6             0        9.304569   -5.658804    0.000000
   23          6             0       10.305168   -6.640793    0.000000
   24          6             0       11.638974   -6.350711    0.000000
   25          6             0       12.672050   -7.292925    0.000000
   26          6             0       13.588718   -8.095093    0.000000
   27          7             0      -13.504026    8.962379    0.000000
   28          1             0      -14.482260    8.690647    0.000000
   29          1             0      -13.296673    9.956190    0.000000
   30          1             0      -10.992154    5.212253    0.000000
   31          1             0       -8.950799    7.512545    0.000000
   32          6             0       -7.032538    2.215940    0.000000
   33          7             0       -7.465812    1.133113    0.000000
   34          1             0       -4.880340    4.857349    0.000000
   35          1             0       -2.665272   -0.035903    0.000000
   36          1             0       -0.660600    2.299530    0.000000
   37          1             0        1.537036   -2.602440    0.000000
   38          1             0        3.532107   -0.261463    0.000000
   39          1             0        5.748783   -5.156081    0.000000
   40          1             0        7.731050   -2.805319    0.000000
   41          1             0        9.987941   -7.680383    0.000000
   42          1             0       11.939040   -5.304525    0.000000
   43          7             0       14.582335   -8.967390    0.000000
   44          1             0       15.551184   -8.664372    0.000000
   45          1             0       14.407030   -9.967270    0.000000
 ---------------------------------------------------------------------
 Rotational constants (GHZ):      2.1789284      0.0134230      0.0133408
 Standard basis: CC-pVDZ (5D, 7F)
 There are   360 symmetry adapted basis functions of A'  symmetry.
 There are   135 symmetry adapted basis functions of A"  symmetry.
 Integral buffers will be    131072 words long.
 Raffenetti 2 integral format.
 Two-electron integral symmetry is turned on.
   495 basis functions,  1095 primitive gaussians,   525 cartesian basis functions
    99 alpha electrons       99 beta electrons
       nuclear repulsion energy      1683.1620191998 Hartrees.
 NAtoms=   45 NActive=   45 NUniq=   45 SFac= 7.50D-01 NAtFMM=   80 NAOKFM=F Big=F
 One-electron integrals computed using PRISM.
 NBasis=   495 RedAO= T  NBF=   360   135
 NBsUse=   495 1.00D-06 NBFU=   360   135
 Harris functional with IExCor=  402 diagonalized for initial guess.
 ExpMin= 1.22D-01 ExpMax= 9.05D+03 ExpMxC= 3.09D+02 IAcc=1 IRadAn=         1 AccDes= 1.00D-06
 HarFok:  IExCor= 402 AccDes= 1.00D-06 IRadAn=         1 IDoV=1
 ScaDFX=  1.000000  1.000000  1.000000  1.000000
 Initial guess orbital symmetries:
       Occupied  (A') (A') (A') (A') (A') (A') (A') (A') (A') (A')
                 (A') (A') (A') (A') (A') (A') (A') (A') (A') (A')
                 (A') (A') (A') (A') (A') (A') (A') (A') (A') (A')
                 (A') (A') (A') (A') (A') (A') (A') (A') (A') (A')
                 (A') (A') (A') (A') (A') (A') (A') (A') (A') (A')
                 (A') (A') (A') (A') (A') (A') (A') (A') (A') (A')
                 (A') (A') (A') (A') (A') (A') (A') (A') (A') (A')
                 (A') (A') (A') (A') (A") (A") (A") (A") (A') (A")
                 (A") (A") (A") (A') (A") (A") (A') (A') (A') (A")
                 (A') (A') (A') (A') (A") (A") (A") (A") (A")
       Virtual   (A") (A") (A") (A") (A") (A') (A") (A') (A') (A')
                 (A') (A') (A') (A') (A") (A") (A") (A') (A') (A")
                 (A") (A") (A') (A") (A') (A') (A') (A') (A') (A')
                 (A') (A') (A') (A") (A') (A') (A') (A') (A') (A')
                 (A') (A') (A') (A') (A') (A') (A') (A') (A') (A')
                 (A') (A') (A') (A') (A') (A') (A') (A') (A') (A')
                 (A') (A') (A') (A') (A') (A') (A') (A") (A") (A')
                 (A") (A') (A') (A") (A') (A') (A") (A') (A') (A')
                 (A') (A") (A') (A') (A') (A") (A') (A") (A') (A")
                 (A') (A') (A") (A') (A") (A') (A") (A") (A') (A')
                 (A') (A') (A") (A") (A") (A") (A') (A") (A') (A")
                 (A') (A') (A') (A") (A') (A') (A") (A') (A') (A')
                 (A") (A') (A') (A') (A") (A') (A') (A") (A') (A')
                 (A') (A') (A') (A") (A') (A') (A') (A") (A') (A')
                 (A') (A') (A') (A') (A") (A') (A') (A") (A') (A")
                 (A') (A') (A') (A") (A') (A') (A') (A') (A') (A')
                 (A') (A") (A") (A") (A') (A") (A') (A") (A") (A')
                 (A") (A") (A') (A') (A') (A') (A') (A") (A') (A")
                 (A") (A") (A') (A") (A") (A') (A") (A") (A') (A")
                 (A') (A') (A") (A') (A') (A') (A") (A') (A") (A')
                 (A') (A') (A') (A') (A') (A') (A") (A") (A") (A')
                 (A') (A') (A') (A') (A") (A") (A') (A") (A') (A")
                 (A') (A') (A') (A") (A') (A') (A") (A') (A") (A')
                 (A") (A') (A') (A") (A") (A") (A') (A") (A') (A')
                 (A") (A") (A') (A') (A') (A') (A') (A") (A') (A")
                 (A') (A') (A") (A') (A') (A') (A') (A') (A") (A')
                 (A') (A") (A') (A") (A') (A') (A') (A') (A') (A')
                 (A") (A') (A') (A') (A") (A') (A") (A') (A') (A")
                 (A') (A") (A') (A') (A") (A") (A') (A') (A') (A')
                 (A') (A') (A') (A') (A") (A') (A') (A') (A") (A")
                 (A") (A') (A") (A") (A') (A") (A') (A") (A') (A')
                 (A') (A') (A') (A") (A") (A') (A") (A") (A') (A")
                 (A') (A') (A") (A") (A') (A') (A') (A') (A') (A')
                 (A') (A') (A') (A') (A') (A') (A') (A') (A") (A")
                 (A') (A') (A') (A') (A') (A') (A") (A') (A') (A")
                 (A') (A') (A") (A') (A') (A") (A') (A') (A") (A')
                 (A') (A') (A') (A") (A') (A") (A") (A') (A') (A')
                 (A') (A') (A') (A') (A') (A') (A') (A') (A') (A')
                 (A') (A') (A') (A') (A') (A') (A') (A') (A') (A')
                 (A') (A') (A') (A') (A') (A')
 The electronic state of the initial guess is 1-A'.
 Requested convergence on RMS density matrix=1.00D-08 within 128 cycles.
 Requested convergence on MAX density matrix=1.00D-06.
 Requested convergence on             energy=1.00D-06.
 No special actions if energy rises.
 Integral accuracy reduced to 1.0D-05 until final iterations.
 Initial convergence to 1.7D-05 achieved.  Increase integral accuracy.
 SCF Done:  E(RB+HF-LYP) =  -1201.70448074     A.U. after   27 cycles
             Convg  =    0.4928D-08             -V/T =  2.0066
             S**2   =   0.0000
 ***** Axes restored to original set *****
 -------------------------------------------------------------------
 Center     Atomic                   Forces (Hartrees/Bohr)
 Number     Number              X              Y              Z
 -------------------------------------------------------------------
    1          6          -0.001236896   -0.001811870    0.000000000
    2          6           0.002262615    0.000499090    0.000000000
    3          6           0.007084708   -0.005989250    0.000000000
    4          6          -0.007152592    0.006035234    0.000000000
    5          6          -0.007149111    0.006768334    0.000000000
    6          6           0.006858287   -0.006375529    0.000000000
    7          6           0.000740935    0.004047026    0.000000000
    8          6          -0.000336973   -0.002908084    0.000000000
    9          6          -0.006791306    0.006826815    0.000000000
   10          6           0.007684932   -0.006534424    0.000000000
   11          6           0.000669257    0.001606975    0.000000000
   12          6          -0.000744836   -0.001605262    0.000000000
   13          6          -0.007563349    0.006568639    0.000000000
   14          6           0.007687247   -0.006593601    0.000000000
   15          6           0.000616882    0.001766530    0.000000000
   16          6          -0.000727285   -0.001697811    0.000000000
   17          6          -0.007492667    0.006459204    0.000000000
   18          6           0.007633650   -0.006492103    0.000000000
   19          6           0.000707064    0.001821925    0.000000000
   20          6          -0.000921994   -0.001608952    0.000000000
   21          6          -0.007195308    0.006157174    0.000000000
   22          6           0.007267958   -0.006333647    0.000000000
   23          6           0.001114885    0.001996177    0.000000000
   24          6          -0.002134618   -0.000704202    0.000000000
   25          6          -0.007314755    0.005742118    0.000000000
   26          6           0.007380615   -0.005717573    0.000000000
   27          7          -0.007380746    0.006993661    0.000000000
   28          1           0.002715828   -0.000100689    0.000000000
   29          1           0.000266530   -0.002708286    0.000000000
   30          1          -0.001666080   -0.004678976    0.000000000
   31          1           0.001814300    0.004959316    0.000000000
   32          6          -0.004298187   -0.010235430    0.000000000
   33          7           0.001897712    0.003463164    0.000000000
   34          1           0.001546235    0.004905017    0.000000000
   35          1          -0.001727681   -0.004941923    0.000000000
   36          1           0.001590047    0.004922412    0.000000000
   37          1          -0.001629356   -0.004962310    0.000000000
   38          1           0.001571271    0.004922175    0.000000000
   39          1          -0.001613787   -0.004988137    0.000000000
   40          1           0.001521234    0.004897395    0.000000000
   41          1          -0.001568202   -0.005061553    0.000000000
   42          1           0.001492582    0.004754009    0.000000000
   43          7           0.007578852   -0.006752689    0.000000000
   44          1          -0.002713019    0.000003720    0.000000000
   45          1          -0.000344880    0.002686191    0.000000000
 -------------------------------------------------------------------
 Cartesian Forces:  Max     0.010235430 RMS     0.003892134

 GradGradGradGradGradGradGradGradGradGradGradGradGradGradGradGradGradGrad
 Berny optimization.
 Internal  Forces:  Max     0.015416913 RMS     0.003783843
 Search for a local minimum.
 Step number   1 out of a maximum of 178
 All quantities printed in internal units (Hartrees-Bohrs-Radians)
 Second derivative matrix not updated -- first step.
     Eigenvalues ---    0.00230   0.00230   0.00230   0.00230   0.00230
     Eigenvalues ---    0.00230   0.00230   0.00230   0.00230   0.01297
     Eigenvalues ---    0.01337   0.01373   0.01375   0.01378   0.01380
     Eigenvalues ---    0.01389   0.01391   0.01394   0.01395   0.01399
     Eigenvalues ---    0.01414   0.02380   0.02524   0.02531   0.02533
     Eigenvalues ---    0.02552   0.02554   0.16000   0.16000   0.16000
     Eigenvalues ---    0.16000   0.16000   0.16000   0.16000   0.16000
     Eigenvalues ---    0.16000   0.16000   0.16000   0.16000   0.16000
     Eigenvalues ---    0.16000   0.16000   0.21524   0.21811   0.21822
     Eigenvalues ---    0.21831   0.21832   0.22000   0.22000   0.22000
     Eigenvalues ---    0.22000   0.22000   0.22000   0.22000   0.22000
     Eigenvalues ---    0.22000   0.22000   0.22000   0.23137   0.23153
     Eigenvalues ---    0.24642   0.24663   0.24665   0.24665   0.24665
     Eigenvalues ---    0.25000   0.25000   0.25000   0.25000   0.25000
     Eigenvalues ---    0.25000   0.25000   0.25000   0.25000   0.25000
     Eigenvalues ---    0.25000   0.25000   0.25000   0.25000   0.25000
     Eigenvalues ---    0.25000   0.25000   0.25000   0.25000   0.25000
     Eigenvalues ---    0.35000   0.35002   0.35054   0.35083   0.35091
     Eigenvalues ---    0.35136   0.35144   0.35147   0.35172   0.35213
     Eigenvalues ---    0.35265   0.41021   0.44279   0.45101   0.45111
     Eigenvalues ---    0.45124   0.45124   0.45254   0.45297   0.45521
     Eigenvalues ---    0.45625   0.45734   0.45740   0.45817   0.45917
     Eigenvalues ---    0.45932   0.46057   0.46849   0.49479   0.51533
     Eigenvalues ---    0.51645   0.51676   0.51952   0.51980   0.61390
     Eigenvalues ---    0.61569   0.94568   0.94775   0.94776   0.94781
     Eigenvalues ---    0.95670   0.96182   0.96233   1.237621000.00000
     Eigenvalues --- 1000.000001000.000001000.000001000.000001000.00000
     Eigenvalues --- 1000.000001000.000001000.000001000.000001000.00000
     Eigenvalues --- 1000.000001000.000001000.000001000.000001000.00000
     Eigenvalues --- 1000.000001000.000001000.000001000.000001000.00000
     Eigenvalues --- 1000.000001000.000001000.000001000.000001000.00000
     Eigenvalues --- 1000.000001000.000001000.000001000.000001000.00000
     Eigenvalues --- 1000.000001000.000001000.000001000.000001000.00000
     Eigenvalues --- 1000.000001000.000001000.00000
 RFO step:  Lambda=-3.68427901D-03.
 Linear search not attempted -- first point.
 Iteration  1 RMS(Cart)=  0.05277359 RMS(Int)=  0.00001228
 Iteration  2 RMS(Cart)=  0.00003267 RMS(Int)=  0.00000000
 Iteration  3 RMS(Cart)=  0.00000001 RMS(Int)=  0.00000000
 Variable       Old X    -DE/DX   Delta X   Delta X   Delta X     New X
                                 (Linear)    (Quad)   (Total)
    R1        2.57919   0.00380   0.00000   0.00726   0.00726   2.58645
    R2        2.64982   0.00459   0.00000   0.01005   0.01005   2.65987
    R3        2.05331   0.00528   0.00000   0.01484   0.01484   2.06815
    R4        2.64067   0.00615   0.00000   0.01325   0.01325   2.65392
    R5        2.05675   0.00497   0.00000   0.01404   0.01404   2.07079
    R6        2.30208   0.01542   0.00000   0.01597   0.01597   2.31805
    R7        2.49720   0.00607   0.00000   0.00980   0.00980   2.50700
    R8        2.30424   0.01442   0.00000   0.01502   0.01502   2.31926
    R9        2.66123   0.00507   0.00000   0.01136   0.01136   2.67258
   R10        2.60394   0.00499   0.00000   0.01001   0.01001   2.61395
   R11        2.70189   0.00718   0.00000   0.01736   0.01736   2.71925
   R12        2.63186   0.00488   0.00000   0.01034   0.01034   2.64220
   R13        2.05247   0.00514   0.00000   0.01443   0.01443   2.06690
   R14        2.30896   0.01452   0.00000   0.01529   0.01529   2.32426
   R15        2.64208   0.00445   0.00000   0.00961   0.00961   2.65170
   R16        2.58350   0.00415   0.00000   0.00800   0.00800   2.59150
   R17        2.05437   0.00523   0.00000   0.01474   0.01474   2.06911
   R18        2.64338   0.00459   0.00000   0.00994   0.00994   2.65332
   R19        2.05527   0.00517   0.00000   0.01459   0.01459   2.06985
   R20        2.30805   0.01459   0.00000   0.01534   0.01534   2.32339
   R21        2.64556   0.00448   0.00000   0.00975   0.00975   2.65531
   R22        2.58240   0.00418   0.00000   0.00803   0.00803   2.59043
   R23        2.05454   0.00522   0.00000   0.01471   0.01471   2.06925
   R24        2.64425   0.00462   0.00000   0.01003   0.01003   2.65428
   R25        2.05541   0.00517   0.00000   0.01457   0.01457   2.06998
   R26        2.30807   0.01450   0.00000   0.01524   0.01524   2.32331
   R27        2.64675   0.00450   0.00000   0.00981   0.00981   2.65656
   R28        2.58211   0.00409   0.00000   0.00786   0.00786   2.58997
   R29        2.05441   0.00524   0.00000   0.01476   0.01476   2.06918
   R30        2.64432   0.00481   0.00000   0.01043   0.01043   2.65475
   R31        2.05587   0.00513   0.00000   0.01448   0.01448   2.07035
   R32        2.30807   0.01427   0.00000   0.01500   0.01500   2.32306
   R33        2.64933   0.00463   0.00000   0.01014   0.01014   2.65947
   R34        2.57945   0.00386   0.00000   0.00737   0.00737   2.58682
   R35        2.05397   0.00530   0.00000   0.01491   0.01491   2.06888
   R36        2.64225   0.00611   0.00000   0.01320   0.01320   2.65545
   R37        2.05672   0.00498   0.00000   0.01408   0.01408   2.07080
   R38        2.30186   0.01540   0.00000   0.01594   0.01594   2.31780
   R39        2.49857   0.00608   0.00000   0.00984   0.00984   2.50841
   R40        1.91859  -0.00259   0.00000  -0.00570  -0.00570   1.91289
   R41        1.91847  -0.00260   0.00000  -0.00571  -0.00571   1.91276
   R42        2.20398  -0.00392   0.00000  -0.00316  -0.00316   2.20082
   R43        1.91832  -0.00259   0.00000  -0.00569  -0.00569   1.91263
   R44        1.91832  -0.00259   0.00000  -0.00568  -0.00568   1.91264
    A1        2.14729   0.00068   0.00000   0.00304   0.00304   2.15034
    A2        2.08516  -0.00027   0.00000  -0.00108  -0.00108   2.08409
    A3        2.05073  -0.00041   0.00000  -0.00197  -0.00197   2.04876
    A4        2.18818   0.00072   0.00000   0.00320   0.00320   2.19138
    A5        2.06400  -0.00022   0.00000  -0.00079  -0.00079   2.06321
    A6        2.03101  -0.00049   0.00000  -0.00241  -0.00241   2.02860
    A7        2.13695   0.00128   0.00000   0.00504   0.00504   2.14199
    A8        2.03768  -0.00002   0.00000  -0.00009  -0.00009   2.03759
    A9        2.10856  -0.00126   0.00000  -0.00495  -0.00495   2.10360
   A10        2.17464   0.00155   0.00000   0.00692   0.00692   2.18155
   A11        2.04559  -0.00068   0.00000  -0.00287  -0.00287   2.04271
   A12        2.06296  -0.00087   0.00000  -0.00404  -0.00404   2.05892
   A13        2.15797   0.00049   0.00000   0.00219   0.00219   2.16016
   A14        2.04721  -0.00037   0.00000  -0.00187  -0.00187   2.04534
   A15        2.07801  -0.00012   0.00000  -0.00032  -0.00032   2.07769
   A16        2.16209   0.00071   0.00000   0.00317   0.00317   2.16526
   A17        2.07269  -0.00033   0.00000  -0.00142  -0.00142   2.07128
   A18        2.04840  -0.00038   0.00000  -0.00175  -0.00175   2.04665
   A19        2.15806   0.00060   0.00000   0.00269   0.00269   2.16075
   A20        2.04994  -0.00035   0.00000  -0.00166  -0.00166   2.04828
   A21        2.07518  -0.00025   0.00000  -0.00103  -0.00103   2.07415
   A22        2.16369   0.00074   0.00000   0.00329   0.00329   2.16698
   A23        2.07143  -0.00034   0.00000  -0.00148  -0.00148   2.06995
   A24        2.04807  -0.00039   0.00000  -0.00181  -0.00181   2.04626
   A25        2.15739   0.00061   0.00000   0.00275   0.00275   2.16014
   A26        2.05027  -0.00036   0.00000  -0.00168  -0.00168   2.04859
   A27        2.07553  -0.00026   0.00000  -0.00107  -0.00107   2.07446
   A28        2.16785   0.00077   0.00000   0.00343   0.00343   2.17128
   A29        2.06908  -0.00036   0.00000  -0.00158  -0.00158   2.06750
   A30        2.04625  -0.00041   0.00000  -0.00185  -0.00185   2.04440
   A31        2.15143   0.00079   0.00000   0.00354   0.00354   2.15497
   A32        2.05064  -0.00042   0.00000  -0.00191  -0.00191   2.04872
   A33        2.08112  -0.00037   0.00000  -0.00163  -0.00163   2.07949
   A34        2.18801   0.00073   0.00000   0.00327   0.00327   2.19128
   A35        2.06427  -0.00024   0.00000  -0.00085  -0.00085   2.06341
   A36        2.03091  -0.00049   0.00000  -0.00241  -0.00241   2.02849
   A37        2.11751  -0.00053   0.00000  -0.00326  -0.00326   2.11425
   A38        2.11824  -0.00051   0.00000  -0.00314  -0.00314   2.11510
   A39        2.04744   0.00105   0.00000   0.00640   0.00640   2.05384
   A40        2.11800  -0.00053   0.00000  -0.00322  -0.00322   2.11478
   A41        2.11770  -0.00051   0.00000  -0.00310  -0.00310   2.11460
   A42        2.04748   0.00103   0.00000   0.00632   0.00632   2.05380
   A43        3.11803  -0.00091   0.00000  -0.00360  -0.00360   3.11443
   A44        3.14119  -0.00009   0.00000  -0.00037  -0.00037   3.14082
   A45        3.15390   0.00053   0.00000   0.00210   0.00210   3.15599
   A46        3.12932  -0.00089   0.00000  -0.00350  -0.00350   3.12582
   A47        3.15620   0.00031   0.00000   0.00124   0.00124   3.15744
   A48        3.11742  -0.00085   0.00000  -0.00335  -0.00335   3.11407
   A49        3.12546  -0.00069   0.00000  -0.00274  -0.00274   3.12272
   A50        3.12350  -0.00072   0.00000  -0.00284  -0.00284   3.12067
   A51        3.12555  -0.00070   0.00000  -0.00277  -0.00277   3.12278
   A52        3.12378  -0.00072   0.00000  -0.00286  -0.00286   3.12092
   A53        3.12355  -0.00071   0.00000  -0.00281  -0.00281   3.12074
   A54        3.12009  -0.00051   0.00000  -0.00200  -0.00200   3.11809
   A55        3.12104  -0.00094   0.00000  -0.00371  -0.00371   3.11733
   A56        3.14000  -0.00016   0.00000  -0.00062  -0.00062   3.13938
   A57        3.11124   0.00105   0.00000   0.00413   0.00413   3.11537
   A58        3.14159   0.00000   0.00000   0.00000   0.00000   3.14159
   A59        3.14159   0.00000   0.00000   0.00000   0.00000   3.14159
   A60        3.14159   0.00000   0.00000   0.00000   0.00000   3.14159
   A61        3.14159   0.00000   0.00000   0.00000   0.00000   3.14159
   A62        3.14159   0.00000   0.00000   0.00000   0.00000   3.14159
   A63        3.14159   0.00000   0.00000   0.00000   0.00000   3.14159
   A64        3.14159   0.00000   0.00000   0.00000   0.00000   3.14159
   A65        3.14159   0.00000   0.00000   0.00000   0.00000   3.14159
   A66        3.14159   0.00000   0.00000   0.00000   0.00000   3.14159
   A67        3.14159   0.00000   0.00000   0.00000   0.00000   3.14159
   A68        3.14159   0.00000   0.00000   0.00000   0.00000   3.14159
   A69        3.14159   0.00000   0.00000   0.00000   0.00000   3.14159
   A70        3.14159   0.00000   0.00000   0.00000   0.00000   3.14159
   A71        3.14159   0.00000   0.00000   0.00000   0.00000   3.14159
   A72        3.14159   0.00000   0.00000   0.00000   0.00000   3.14159
    D1        3.14159   0.00000   0.00000   0.00000   0.00000   3.14159
    D2        0.00000   0.00000   0.00000   0.00000   0.00000   0.00000
    D3        0.00000   0.00000   0.00000   0.00000   0.00000   0.00000
    D4        3.14159   0.00000   0.00000   0.00000   0.00000   3.14159
    D5        3.14159   0.00000   0.00000   0.00000   0.00000   3.14159
    D6        0.00000   0.00000   0.00000   0.00000   0.00000   0.00000
    D7        0.00000   0.00000   0.00000   0.00000   0.00000   0.00000
    D8        3.14159   0.00000   0.00000   0.00000   0.00000   3.14159
    D9        3.14159   0.00000   0.00000   0.00000   0.00000   3.14159
   D10        0.00000   0.00000   0.00000   0.00000   0.00000   0.00000
   D11        0.00000   0.00000   0.00000   0.00000   0.00000   0.00000
   D12        3.14159   0.00000   0.00000   0.00000   0.00000   3.14159
   D13        3.14159   0.00000   0.00000   0.00000   0.00000   3.14159
   D14        0.00000   0.00000   0.00000   0.00000   0.00000   0.00000
   D15        0.00000   0.00000   0.00000   0.00000   0.00000   0.00000
   D16        3.14159   0.00000   0.00000   0.00000   0.00000   3.14159
   D17        3.14159   0.00000   0.00000   0.00000   0.00000   3.14159
   D18        0.00000   0.00000   0.00000   0.00000   0.00000   0.00000
   D19        0.00000   0.00000   0.00000   0.00000   0.00000   0.00000
   D20        3.14159   0.00000   0.00000   0.00000   0.00000   3.14159
   D21        3.14159   0.00000   0.00000   0.00000   0.00000   3.14159
   D22        0.00000   0.00000   0.00000   0.00000   0.00000   0.00000
   D23        0.00000   0.00000   0.00000   0.00000   0.00000   0.00000
   D24        3.14159   0.00000   0.00000   0.00000   0.00000   3.14159
   D25        3.14159   0.00000   0.00000   0.00000   0.00000   3.14159
   D26        0.00000   0.00000   0.00000   0.00000   0.00000   0.00000
   D27        0.00000   0.00000   0.00000   0.00000   0.00000   0.00000
   D28        3.14159   0.00000   0.00000   0.00000   0.00000   3.14159
   D29        3.14159   0.00000   0.00000   0.00000   0.00000   3.14159
   D30        0.00000   0.00000   0.00000   0.00000   0.00000   0.00000
   D31        0.00000   0.00000   0.00000   0.00000   0.00000   0.00000
   D32        3.14159   0.00000   0.00000   0.00000   0.00000   3.14159
   D33        3.14159   0.00000   0.00000   0.00000   0.00000   3.14159
   D34        0.00000   0.00000   0.00000   0.00000   0.00000   0.00000
   D35        0.00000   0.00000   0.00000   0.00000   0.00000   0.00000
   D36        3.14159   0.00000   0.00000   0.00000   0.00000   3.14159
   D37        3.14159   0.00000   0.00000   0.00000   0.00000   3.14159
   D38        0.00000   0.00000   0.00000   0.00000   0.00000   0.00000
   D39        0.00000   0.00000   0.00000   0.00000   0.00000   0.00000
   D40        3.14159   0.00000   0.00000   0.00000   0.00000   3.14159
   D41        3.14159   0.00000   0.00000   0.00000   0.00000   3.14159
   D42        0.00000   0.00000   0.00000   0.00000   0.00000   0.00000
   D43        0.00000   0.00000   0.00000   0.00000   0.00000   0.00000
   D44        3.14159   0.00000   0.00000   0.00000   0.00000   3.14159
   D45        3.14159   0.00000   0.00000   0.00000   0.00000   3.14159
   D46        0.00000   0.00000   0.00000   0.00000   0.00000   0.00000
   D47        0.00000   0.00000   0.00000   0.00000   0.00000   0.00000
   D48        3.14159   0.00000   0.00000   0.00000   0.00000   3.14159
   D49        3.14159   0.00000   0.00000   0.00000   0.00000   3.14159
   D50        0.00000   0.00000   0.00000   0.00000   0.00000   0.00000
   D51        0.00000   0.00000   0.00000   0.00000   0.00000   0.00000
   D52        3.14159   0.00000   0.00000   0.00000   0.00000   3.14159
         Item               Value     Threshold  Converged?
 Maximum Force            0.015417     0.000450     NO 
 RMS     Force            0.003784     0.000300     NO 
 Maximum Displacement     0.156781     0.001800     NO 
 RMS     Displacement     0.052790     0.001200     NO 
 Predicted change in Energy=-1.854875D-03
 GradGradGradGradGradGradGradGradGradGradGradGradGradGradGradGradGradGrad

                          Input orientation:                          
 ---------------------------------------------------------------------
 Center     Atomic     Atomic              Coordinates (Angstroms)
 Number     Number      Type              X           Y           Z
 ---------------------------------------------------------------------
    1          6             0       -9.359386    6.523726    0.000000
    2          6             0      -10.707296    6.286141    0.000000
    3          6             0      -11.709895    7.269561    0.000000
    4          6             0      -12.608617    8.104417    0.000000
    5          6             0       -8.395830    5.497698    0.000000
    6          6             0       -7.542867    4.615248    0.000000
    7          6             0       -6.576123    3.582985    0.000000
    8          6             0       -5.215586    3.832589    0.000000
    9          6             0       -4.220218    2.850663    0.000000
   10          6             0       -3.331048    2.000875    0.000000
   11          6             0       -2.343679    1.003820    0.000000
   12          6             0       -0.997296    1.264372    0.000000
   13          6             0       -0.004244    0.271763    0.000000
   14          6             0        0.881572   -0.580856    0.000000
   15          6             0        1.873326   -1.576254    0.000000
   16          6             0        3.218513   -1.312514    0.000000
   17          6             0        4.216055   -2.301336    0.000000
   18          6             0        5.105343   -3.150278    0.000000
   19          6             0        6.101906   -4.141797    0.000000
   20          6             0        7.445521   -3.871396    0.000000
   21          6             0        8.452388   -4.851074    0.000000
   22          6             0        9.351144   -5.689792    0.000000
   23          6             0       10.357195   -6.673885    0.000000
   24          6             0       11.695362   -6.385510    0.000000
   25          6             0       12.734896   -7.331008    0.000000
   26          6             0       13.662003   -8.134031    0.000000
   27          7             0      -13.579901    9.008076    0.000000
   28          1             0      -14.553297    8.730284    0.000000
   29          1             0      -13.373808    9.999063    0.000000
   30          1             0      -11.049860    5.245248    0.000000
   31          1             0       -8.995630    7.555922    0.000000
   32          6             0       -7.071387    2.231935    0.000000
   33          7             0       -7.500757    1.149351    0.000000
   34          1             0       -4.902326    4.880526    0.000000
   35          1             0       -2.683673   -0.036981    0.000000
   36          1             0       -0.663865    2.307708    0.000000
   37          1             0        1.539548   -2.619146    0.000000
   38          1             0        3.548020   -0.267863    0.000000
   39          1             0        5.773024   -5.186200    0.000000
   40          1             0        7.767303   -2.824137    0.000000
   41          1             0       10.037386   -7.720936    0.000000
   42          1             0       11.998580   -5.332476    0.000000
   43          7             0       14.663428   -9.005308    0.000000
   44          1             0       15.627057   -8.695785    0.000000
   45          1             0       14.489995  -10.002461    0.000000
 ---------------------------------------------------------------------
                    Distance matrix (angstroms):
                    1          2          3          4          5
     1  C    0.000000
     2  C    1.368689   0.000000
     3  C    2.466001   1.404393   0.000000
     4  C    3.613321   2.630808   1.226657   0.000000
     5  C    1.407541   2.442236   3.757994   4.954044   0.000000
     6  C    2.634773   3.578477   4.940597   6.151108   1.227300
     7  C    4.049014   4.936967   6.320321   7.538855   2.641489
     8  C    4.940982   6.014882   7.347709   8.538468   3.589784
     9  C    6.316838   7.340620   8.696086   9.897837   4.943939
    10  C    7.536381   8.530682   9.897683  11.105247   6.154656
    11  C    8.926898   9.892068  11.268785  12.481484   7.538135
    12  C    9.878530  10.931709  12.280963  13.476238   8.524046
    13  C   11.251921  12.277136  13.637868  14.839835   9.885804
    14  C   12.464040  13.470616  14.838264  16.044288  11.091394
    15  C   13.848592  14.835407  16.209637  17.419589  12.469818
    16  C   14.819251  15.864038  17.219447  18.416749  13.463728
    17  C   16.191798  17.217758  18.580580  19.782550  14.828506
    18  C   17.401573  18.414276  19.781943  20.986962  16.033377
    19  C   18.783103  19.781081  21.153708  22.361875  17.409889
    20  C   19.760148  20.801450  22.159668  23.357837  18.404574
    21  C   21.133986  22.161477  23.525039  24.726720  19.772697
    22  C   22.343992  23.361592  24.728772  25.932823  20.978919
    23  C   23.725946  24.732065  26.103182  27.309828  22.356730
    24  C   24.697182  25.738101  27.097361  28.295607  23.342379
    25  C   26.078937  27.110203  28.473223  29.673996  24.720099
    26  C   27.291651  28.316146  29.681709  30.884182  25.930138
    27  N    4.897422   3.957371   2.553303   1.326647   6.260778
    28  H    5.643191   4.556924   3.196662   2.042912   6.954423
    29  H    5.309760   4.571223   3.196684   2.043331   6.711374
    30  H    2.119483   1.095814   2.129199   3.256466   2.666009
    31  H    1.094415   2.131230   2.729328   3.654384   2.143838
    32  C    4.863581   5.445771   6.847878   8.071367   3.524112
    33  N    5.686687   6.055452   7.427907   8.629205   4.439513
    34  H    4.750314   5.972723   7.214601   8.353466   3.547601
    35  H    9.359916  10.215694  11.612848  12.836934   7.953705
    36  H    9.663690  10.802705  12.109284  13.277008   8.364169
    37  H   14.225992  15.142302  16.532823  17.752897  12.829454
    38  H   14.585157  15.689773  17.018129  18.197032  13.262626
    39  H   19.134058  20.080227  21.466215  22.683148  17.745481
    40  H   19.511689  20.598737  21.937273  23.121666  18.179654
    41  H   24.065435  25.030781  26.413239  27.627581  22.682939
    42  H   24.428103  25.505863  26.849638  28.036837  23.091657
    43  N   28.605008  29.622661  30.990700  32.194831  27.240899
    44  H   29.256723  30.297793  31.657561  32.855747  27.902582
    45  H   29.015648  30.003700  31.380837  32.591315  27.640838
                    6          7          8          9         10
     6  C    0.000000
     7  C    1.414271   0.000000
     8  C    2.455360   1.383244   0.000000
     9  C    3.762148   2.467101   1.398190   0.000000
    10  C    4.957254   3.610206   2.628052   1.229944   0.000000
    11  C    6.330401   4.956377   4.031102   2.632913   1.403217
    12  C    7.353425   6.041463   4.938593   3.592150   2.447209
    13  C    8.700385   7.358926   6.311701   4.942182   3.749327
    14  C    9.898013   8.541357   7.526873   6.148462   4.940799
    15  C   11.269400   9.900047   8.916740   7.531857   6.315169
    16  C   12.285994  10.949922   9.879580   8.524480   7.339979
    17  C   13.642265  12.292125  11.250817   9.885029   8.687220
    18  C   14.841854  13.483081  12.461220  11.089517   9.884689
    19  C   16.213133  14.846033  13.844727  12.467588  11.256689
    20  C   17.224253  15.879997  14.820762  13.463860  12.272653
    21  C   18.586539  17.233383  16.193193  14.829420  13.630795
    22  C   19.788923  18.429927  17.403027  16.035000  14.831869
    23  C   21.162626  19.797490  18.785566  17.413155  16.205537
    24  C   22.161366  20.813891  19.758281  18.401428  17.208267
    25  C   23.535095  22.181765  21.138725  19.777318  18.579521
    26  C   24.742486  23.385256  22.350914  20.986599  19.785856
    27  N    7.466104   8.859149   9.836028  11.203455  12.415307
    28  H    8.128939   9.493681  10.544205  11.888754  13.085252
    29  H    7.936330   9.347437  10.226534  11.614122  12.838537
    30  H    3.563131   4.772572   6.002863   7.237268   8.372934
    31  H    3.279951   4.651692   5.305841   6.704030   7.933854
    32  C    2.429502   1.438966   2.450733   2.917532   3.747469
    33  N    3.466153   2.603367   3.524453   3.695457   4.255769
    34  H    2.653832   2.117831   1.093757   2.141405   3.280443
    35  H    6.727184   5.315573   4.624300   3.271002   2.138212
    36  H    7.255716   6.048233   4.800357   3.597561   2.684774
    37  H   11.611490  10.214232   9.341130   7.943154   6.713218
    38  H   12.118273  10.831772   9.675457   8.370825   7.243531
    39  H   16.534247  15.145957  14.215768  12.824041  11.599058
    40  H   17.021920  15.709395  14.589976  13.262881  12.101824
    41  H   21.476655  20.094459  19.134708  17.749309  16.529629
    42  H   21.927730  20.603520  19.501946  18.166264  16.993396
    43  N   26.050702  24.689748  23.664039  22.296998  21.093535
    44  H   26.721321  25.372217  24.318221  22.961593  21.767597
    45  H   26.440961  25.066824  24.077344  22.699666  21.486499
                   11         12         13         14         15
    11  C    0.000000
    12  C    1.371362   0.000000
    13  C    2.451298   1.404075   0.000000
    14  C    3.593527   2.633441   1.229483   0.000000
    15  C    4.943674   4.038518   2.634470   1.405131   0.000000
    16  C    6.025228   4.940991   3.591113   2.448799   1.370798
    17  C    7.345350   6.316115   4.942850   3.752177   2.452371
    18  C    8.529036   7.532021   6.149654   4.943903   3.594925
    19  C    9.889655   8.923304   7.534227   6.319193   4.945999
    20  C   10.936003   9.882170   8.524363   7.342553   6.026362
    21  C   12.281484  11.255897   9.887269   8.692067   7.349048
    22  C   13.474914  12.467984  11.093395   9.891152   8.534574
    23  C   14.841137  13.854255  12.474030  11.265542   9.897569
    24  C   15.864957  14.819726  13.461057  12.273226  10.936240
    25  C   17.228836  16.200422  14.835357  13.640596  12.291904
    26  C   18.430468  17.413358  16.044428  14.845534  13.489898
    27  N   13.795681  14.774535  16.143780  17.351709  18.730463
    28  H   14.448980  15.475948  16.829186  18.025884  19.392232
    29  H   14.232995  15.148362  16.533772  17.752480  19.143225
    30  H    9.684385  10.812096  12.113678  13.277897  14.613063
    31  H    9.336942  10.176293  11.571689  12.797120  14.196156
    32  C    4.884618   6.150671   7.333947   8.435718   9.721635
    33  N    5.159131   6.504478   7.547706   8.559033   9.762292
    34  H    4.644947   5.322202   6.725467   7.954884   9.359459
    35  H    1.094925   2.130114   2.697158   3.606490   4.809948
    36  H    2.126476   1.095320   2.140134   3.276000   4.639235
    37  H    5.310869   4.638673   3.277292   2.141858   1.095002
    38  H    6.027378   4.796628   3.593017   2.684755   2.125203
    39  H   10.207703   9.351316   7.947715   6.718295   5.314071
    40  H   10.811346   9.671303   8.365497   7.241934   6.024631
    41  H   15.146357  14.230248  12.834234  11.610756  10.218072
    42  H   15.679573  14.574333  13.246708  12.089903  10.799536
    43  N   19.733837  18.727643  17.355248  16.152738  14.791131
[...]
    18  C   17.406022  18.417506  19.784982  20.991402  16.038032
    19  C   18.785254  19.781611  21.154149  22.363618  17.412141
    20  C   19.767873  20.807239  22.165568  23.365679  18.412109
    21  C   21.139328  22.164544  23.528299  24.731816  19.777767
    22  C   22.349683  23.365249  24.732511  25.938210  20.984481
    23  C   23.729489  24.733274  26.104535  27.312735  22.360082
    24  C   24.705877  25.744246  27.103847  28.304205  23.350612
    25  C   26.085808  27.114255  28.477672  29.680481  24.726449
    26  C   27.298563  28.320448  29.686308  30.890668  25.936656
    27  N    4.900039   3.956359   2.552939   1.327224   6.261799
    28  H    5.642657   4.553115   3.195492   2.041306   6.951616
    29  H    5.310174   4.567521   3.192034   2.041765   6.710754
    30  H    2.119669   1.095634   2.127150   3.249256   2.667531
    31  H    1.094265   2.130522   2.728828   3.660138   2.142123
    32  C    4.856639   5.440933   6.842709   8.064532   3.517280
    33  N    5.686337   6.058905   7.431602   8.630134   4.438040
    34  H    4.759893   5.982189   7.223172   8.364996   3.558194
    35  H    9.352652  10.208334  11.605016  12.828860   7.947129
    36  H    9.674248  10.812548  12.118784  13.289172   8.374974
    37  H   14.220455  15.135779  16.525967  17.746339  12.824401
    38  H   14.597670  15.701025  17.029322  18.210774  13.275073
    39  H   19.128597  20.073016  21.458852  22.676469  17.740251
    40  H   19.527149  20.612337  21.951077  23.138035  18.194756
    41  H   24.061916  25.024805  26.407313  27.622669  22.679382
    42  H   24.445541  25.520858  26.865078  28.054928  23.108466
    43  N   28.612389  29.627393  30.995715  32.201642  27.247908
    44  H   29.261651  30.300163  31.660273  32.860591  27.907043
    45  H   29.019282  30.004599  31.381932  32.593786  27.644232
                    6          7          8          9         10
     6  C    0.000000
     7  C    1.412798   0.000000
     8  C    2.454631   1.381926   0.000000
     9  C    3.760581   2.466046   1.397234   0.000000
    10  C    4.957425   3.612372   2.626269   1.229247   0.000000
    11  C    6.328898   4.956443   4.028526   2.631303   1.402550
    12  C    7.354473   6.043731   4.939788   3.594876   2.446337
    13  C    8.699735   7.359377   6.311314   4.942969   3.747843
    14  C    9.899061   8.544042   7.527312   6.150417   4.941660
    15  C   11.268502   9.900589   8.915511   7.531886   6.314377
    16  C   12.288373  10.953503   9.882188   8.528361   7.341510
    17  C   13.642618  12.293563  11.251550   9.886849   8.687057
    18  C   14.843576  13.486192  12.462864  11.092461   9.886200
    19  C   16.212616  14.846756  13.844369  12.468360  11.256194
    20  C   17.228059  15.884812  14.825059  13.469193  12.275723
    21  C   18.588056  17.235801  16.195381  14.832509  13.631816
    22  C   19.791234  18.433325  17.405770  16.038780  14.833919
    23  C   21.162869  19.798733  18.786417  17.414944  16.205735
    24  C   22.165704  20.819017  19.763403  18.407366  17.211855
    25  C   23.537669  22.185051  21.142234  19.781557  18.581533
    26  C   24.745457  23.389096  22.354640  20.991177  19.788452
    27  N    7.468165   8.858365   9.841433  11.206439  12.418571
    28  H    8.127971   9.489062  10.545434  11.886974  13.084019
    29  H    7.935596   9.344694  10.230665  11.616421  12.840672
    30  H    3.572098   4.776912   6.009728   7.241059   8.378898
    31  H    3.273432   4.645399   5.306508   6.703728   7.932735
    32  C    2.429343   1.439748   2.448083   2.914052   3.751023
    33  N    3.471385   2.604165   3.516792   3.681837   4.248371
    34  H    2.654791   2.116855   1.093788   2.139463   3.273867
    35  H    6.720830   5.310692   4.616746   3.263798   2.136372
    36  H    7.260779   6.054287   4.806154   3.605155   2.684730
    37  H   11.605311  10.209480   9.334458   7.937472   6.708243
    38  H   12.125823  10.840422   9.683482   8.380249   7.249061
    39  H   16.527188  15.140174  14.208841  12.818145  11.592865
    40  H   17.032352  15.720741  14.600966  13.274937  12.110634
    41  H   21.470758  20.089634  19.129460  17.744987  16.524455
    42  H   21.939883  20.616363  19.514851  18.179969  17.004013
    43  N   26.054302  24.694241  23.668391  22.302209  21.096900
    44  H   26.721926  25.373690  24.319531  22.963777  21.767541
    45  H   26.441517  25.068343  24.078680  22.701872  21.487382
                   11         12         13         14         15
    11  C    0.000000
    12  C    1.370564   0.000000
    13  C    2.450273   1.403308   0.000000
    14  C    3.596207   2.631824   1.228816   0.000000
    15  C    4.944154   4.036066   2.632830   1.404374   0.000000
    16  C    6.028066   4.942410   3.594264   2.447918   1.369998
    17  C    7.346226   6.315902   4.943881   3.750564   2.451204
    18  C    8.531981   7.532534   6.151716   4.944546   3.597379
    19  C    9.890316   8.922107   7.534260   6.318105   4.946169
    20  C   10.940176   9.885274   8.528785   7.344127   6.029124
    21  C   12.283414  11.257103   9.889553   8.691899   7.349812
    22  C   13.478073  12.469775  11.096441   9.892301   8.537030
    23  C   14.842294  13.854364  12.475229  11.265068   9.898199
    24  C   15.869430  14.823624  13.466012  12.275405  10.939448
    25  C   17.231610  16.202874  14.838731  13.641404  12.293596
    26  C   18.433991  17.416091  16.048238  14.847135  13.492633
    27  N   13.796612  14.781203  16.147956  17.356557  18.732831
    28  H   14.444810  15.477417  16.827704  18.025315  19.388743
    29  H   14.233417  15.154974  16.538333  17.757310  19.146007
    30  H    9.687024  10.818217  12.116851  13.283200  14.615329
    31  H    9.335031  10.179800  11.573742  12.799173  14.196740
    32  C    4.884569   6.151721   7.332568   8.438391   9.721357
    33  N    5.146094   6.491799   7.531621   8.548128   9.747731
    34  H    4.638973   5.320254   6.722625   7.951439   9.355081
    35  H    1.094767   2.129952   2.697524   3.614639   4.814895
    36  H    2.125968   1.095181   2.138659   3.269320   4.633125
    37  H    5.306650   4.631562   3.270008   2.140158   1.094865
    38  H    6.034387   4.802959   3.601662   2.684993   2.124829
    39  H   10.202429   9.344140   7.941379   6.712563   5.309164
    40  H   10.821374   9.680529   8.376271   7.248129   6.032092
    41  H   15.142041  14.224853  12.829774  11.605728  10.213980
    42  H   15.691132  14.585417  13.258947  12.098271  10.809005
    43  N   19.738135  18.731085  17.359765  16.155243  14.794788
    44  H   20.422269  19.379795  18.022193  16.829678  15.487197
    45  H   20.114214  19.152811  17.768176  16.552146  15.173316
                   16         17         18         19         20
    16  C    0.000000
    17  C    1.403824   0.000000
    18  C    2.632295   1.228769   0.000000
    19  C    4.037226   2.633473   1.405065   0.000000
    20  C    4.942875   3.594204   2.447933   1.369692   0.000000
    21  C    6.317894   4.945693   3.752881   2.454021   1.404134
    22  C    7.535144   6.154319   4.947794   3.601291   2.632412
    23  C    8.926937   7.539106   6.323553   4.952092   4.038929
    24  C    9.881302   8.525467   7.342124   6.028756   4.938526
    25  C   11.261005   9.895094   8.699655   7.360660   6.319999
    26  C   12.475455  11.104437   9.903072   8.551772   7.537454
    27  N   19.723612  21.091013  22.298773  23.673900  24.666475
    28  H   20.415312  21.770425  22.969732  24.334691  25.355839
    29  H   20.090144  21.470635  22.686971  24.072592  25.028088
    30  H   15.709428  17.032620  18.211355  19.554227  20.626793
    31  H   15.100040  16.487842  17.709120  19.101496  20.030820
    32  C   10.885342  12.163158  13.315288  14.633269  15.750327
    33  N   10.985622  12.198477  13.306769  14.579539  15.754097
    34  H   10.212646  11.605511  12.830068  14.227211  15.137045
    35  H    6.044753   7.265713   8.395549   9.701629  10.837989
    36  H    5.306446   6.709637   7.938399   9.342919  10.195651
    37  H    2.127082   2.695017   3.612419   4.813606   6.042666
    38  H    1.095250   2.138931   3.269567   4.634045   5.306630
    39  H    4.632792   3.270739   2.140849   1.094830   2.126986
    40  H    4.800406   3.598675   2.682373   2.123307   1.095443
    41  H    9.351994   7.948831   6.720069   5.316210   4.634527
    42  H    9.665489   8.362377   7.236172   6.022860   4.788308
    43  N   13.792315  12.416907  11.210737   9.849880   8.858159
    44  H   14.437589  13.080625  11.891422  10.557414   9.494935
    45  H   14.232500  12.841024  11.620407  10.234318   9.337496
                   21         22         23         24         25
    21  C    0.000000
    22  C    1.228602   0.000000
    23  C    2.634876   1.406652   0.000000
    24  C    3.590145   2.444362   1.367798   0.000000
    25  C    4.949717   3.759474   2.465781   1.404776   0.000000
    26  C    6.159281   4.955926   3.615011   2.629970   1.225595
    27  N   26.035893  27.244393  28.621374  29.604757  30.983439
    28  H   26.715674  27.917525  29.286285  30.293637  31.665359
    29  H   26.408036  27.623549  29.009338  29.961678  31.348060
    30  H   21.964227  23.151218  24.503192  25.552650  26.908799
    31  H   21.415970  22.635106  24.025930  24.959741  26.349433
    32  C   17.062985  18.234535  19.570783  20.652793  21.993925
    33  N   17.028039  18.172605  19.479244  20.607883  21.924177
    34  H   16.524758  17.745802  19.139513  20.063686  21.454423
    35  H   12.136709  13.302817  14.636727  15.725219  17.061859
    36  H   11.590165  12.815357  14.215052  15.112186  16.506260
    37  H    7.267125   8.399284   9.708759  10.837292  12.150209
    38  H    6.710299   7.938863   9.345089  10.188287  11.587220
    39  H    2.699989   3.620146   4.823875   6.047671   7.288286
    40  H    2.138038   3.267703   4.633593   5.299170   6.703938
    41  H    3.271894   2.142309   1.094679   2.128124   2.725106
    42  H    3.587722   2.673087   2.120014   1.095653   2.127660
    43  N    7.474485   6.263433   4.899899   3.957910   2.553564
    44  H    8.138934   6.956128   5.644251   4.556448   3.196954
    45  H    7.936220   6.708655   5.307500   4.567162   3.191658
                   26         27         28         29         30
    26  C    0.000000
    27  N   32.195144   0.000000
    28  H   32.872407   1.012130   0.000000
    29  H   32.564693   1.012077   1.735853   0.000000
    30  H   28.105617   4.527169   4.930432   5.282752   0.000000
    31  H   27.568239   4.816098   5.685219   5.018744   3.091767
    32  C   23.181211   9.389164   9.898998   9.994558   4.990268
    33  N   23.094221   9.936735  10.350834  10.620701   5.427748
    34  H   22.674016   9.622289  10.399847   9.909407   6.170851
    35  H   18.247556  14.154006  14.743659  14.655377   9.889583
    36  H   17.727913  14.564638  15.311738  14.869930  10.805547
    37  H   13.323488  19.067841  19.680708  19.530370  14.839289
    38  H   12.811400  19.494265  20.224738  19.809480  15.617082
    39  H    8.428186  23.994970  24.621759  24.433533  19.788446
    40  H    7.929009  24.425724  25.146353  24.746325  20.488826
    41  H    3.654518  28.938653  29.575555  29.359984  24.749020
    42  H    3.250480  29.344804  30.059780  29.667636  25.374904
    43  N    1.327990  33.507665  34.179994  33.882439  29.402901
    44  H    2.042122  34.160774  34.849888  34.513836  30.102452
    45  H    2.042193  33.905950  34.557250  34.306229  29.746071
                   31         32         33         34         35
    31  H    0.000000
    32  C    5.652215   0.000000
    33  N    6.575909   1.164484   0.000000
    34  H    4.897040   3.421815   4.541404   0.000000
    35  H    9.865516   4.934089   4.941802   5.385110   0.000000
    36  H    9.856504   6.412699   6.926016   4.960585   3.094490
    37  H   14.640707   9.877550   9.774088   9.877138   4.949936
    38  H   14.795987  10.916842  11.131831   9.900239   6.246059
    39  H   19.500765  14.825016  14.685548  14.663995   9.899280
    40  H   19.732673  15.685607  15.770342  14.837108  10.829355
    41  H   24.403417  19.785614  19.630367  19.537715  14.860182
    42  H   24.653556  20.525343  20.542177  19.758340  15.622200
    43  N   28.888427  24.469461  24.365196  23.995177  19.535382
    44  H   29.508884  25.190659  25.118855  24.612054  20.258776
    45  H   29.328779  24.789126  24.639274  24.444988  19.860154
                   36         37         38         39         40
    36  H    0.000000
    37  H    5.387535   0.000000
    38  H    4.939676   3.092048   0.000000
    39  H    9.869000   4.949350   5.388522   0.000000
    40  H    9.876535   6.240851   4.936869   3.091123   0.000000
    41  H   14.658389   9.910306   9.874113   4.961023   5.388357
    42  H   14.797755  10.817040   9.858158   6.237127   4.921375
    43  N   19.051391  14.601755  14.137650   9.683749   9.256797
    44  H   19.656517  15.345390  14.723924  10.464734   9.802538
    45  H   19.522504  14.911742  14.642616   9.964956   9.828993
                   41         42         43         44         45
    41  H    0.000000
    42  H    3.090473   0.000000
    43  N    4.809082   4.530144   0.000000
    44  H    5.679551   4.935785   1.011989   0.000000
    45  H    5.008984   5.283917   1.012006   1.735639   0.000000
 Stoichiometry    C27H15N3
 Framework group  CS[SG(C27H15N3)]
 Deg. of freedom    87
 Full point group                 CS
 Largest Abelian subgroup         CS      NOp   2
 Largest concise Abelian subgroup C1      NOp   1
                         Standard orientation:                         
 ---------------------------------------------------------------------
 Center     Atomic     Atomic              Coordinates (Angstroms)
 Number     Number      Type              X           Y           Z
 ---------------------------------------------------------------------
    1          6             0        1.249694  -11.342264    0.000000
    2          6             0        0.395540  -12.410392    0.000000
    3          6             0        0.777270  -13.761443    0.000000
    4          6             0        1.066532  -14.952549    0.000000
    5          6             0        0.812793  -10.004998    0.000000
    6          6             0        0.460890   -8.829913    0.000000
    7          6             0        0.016960   -7.488673    0.000000
    8          6             0        0.883106   -6.411867    0.000000
    9          6             0        0.495437   -5.069490    0.000000
   10          6             0        0.184599   -3.880193    0.000000
   11          6             0       -0.222473   -2.538016    0.000000
   12          6             0        0.646046   -1.477771    0.000000
   13          6             0        0.245489   -0.132845    0.000000
   14          6             0       -0.069430    1.054933    0.000000
   15          6             0       -0.474144    2.399728    0.000000
   16          6             0        0.395540    3.458286    0.000000
   17          6             0       -0.001215    4.804877    0.000000
   18          6             0       -0.312790    5.993487    0.000000
   19          6             0       -0.713893    7.340084    0.000000
   20          6             0        0.159116    8.395503    0.000000
   21          6             0       -0.227384    9.745396    0.000000
   22          6             0       -0.528261   10.936587    0.000000
   23          6             0       -0.918815   12.287934    0.000000
   24          6             0       -0.033165   13.330284    0.000000
   25          6             0       -0.374656   14.692922    0.000000
   26          6             0       -0.630796   15.891452    0.000000
   27          7             0        1.387560  -16.240363    0.000000
   28          1             0        0.670998  -16.955168    0.000000
   29          1             0        2.355488  -16.536026    0.000000
   30          1             0       -0.682370  -12.214118    0.000000
   31          1             0        2.329861  -11.517347    0.000000
   32          6             0       -1.407107   -7.276757    0.000000
   33          7             0       -2.561254   -7.121943    0.000000
   34          1             0        1.953943   -6.634757    0.000000
   35          1             0       -1.299881   -2.343832    0.000000
   36          1             0        1.722474   -1.679576    0.000000
   37          1             0       -1.550582    2.599751    0.000000
   38          1             0        1.471517    3.253721    0.000000
   39          1             0       -1.789693    7.543322    0.000000
   40          1             0        1.234119    8.184879    0.000000
   41          1             0       -1.992719   12.500189    0.000000
   42          1             0        1.038520   13.102365    0.000000
   43          7             0       -0.918815   17.187832    0.000000
   44          1             0       -0.184534   17.884218    0.000000
   45          1             0       -1.878881   17.507879    0.000000
 ---------------------------------------------------------------------
 Rotational constants (GHZ):      2.1991589      0.0132790      0.0131993
 1\1\GINC-NODE008\FOpt\RB3LYP\CC-pVDZ\C27H15N3\PETERLI\03-Feb-2008\0\\#
 B3LYP/cc-pVDZ OPT Pop=NONE\\Generated from file 1-NH2-4-CN-14-NH2-all-
 trans-6-mer-nbo-del-merge-end.xml\\0,1\C,-9.3656271843,6.5212344365,0.
 \C,-10.7121219537,6.2815923952,0.\C,-11.716329841,7.2627257313,0.\C,-1
 2.6242540206,8.0861816412,0.\C,-8.3999004779,5.4982325663,0.\C,-7.5359
 923804,4.6274141067,0.\C,-6.5701350881,3.5963374048,0.\C,-5.210285875,
 3.8423656636,0.\C,-4.2165359251,2.8601618377,0.\C,-3.320514554,2.01861
 92324,0.\C,-2.3362153986,1.0194692619,0.\C,-0.9897773304,1.2754980612,
 0.\C,0.0000510465,0.2807551504,0.\C,0.8927870202,-0.5636451233,0.\C,1.
 8805133224,-1.5619759132,0.\C,3.2260259081,-1.30411737,0.\C,4.21913388
 98,-2.2963162995,0.\C,5.114199363,-3.1381774285,0.\C,6.105234092,-4.13
 41977305,0.\C,7.4495796078,-3.8719188729,0.\C,8.4504906956,-4.85668800
 28,0.\C,9.3529367011,-5.6903866297,0.\C,10.3531859916,-6.6794119901,0.
 \C,11.6920957461,-6.3997819375,0.\C,12.7257161891,-7.3511103542,0.\C,1
 3.6559944632,-8.1490234915,0.\N,-13.6019350915,8.9837687326,0.\H,-14.5
 723179495,8.6960793626,0.\H,-13.3989300565,9.9752771771,0.\H,-11.05499
 89793,5.2409919934,0.\H,-9.003058073,7.5536871781,0.\C,-7.0647473051,2
 .2442156953,0.\N,-7.4804855275,1.1564727637,0.\H,-4.8941676819,4.88947
 62059,0.\H,-2.6806891389,-0.0196907563,0.\H,-0.6524661411,2.3174394487
 ,0.\H,1.5416318183,-2.6030755186,0.\H,3.560696989,-0.2612522449,0.\H,5
 .7694819901,-5.1762739462,0.\H,7.7784634551,-2.827011713,0.\H,10.02626
 08039,-7.7241327745,0.\H,12.0042019692,-5.3495226923,0.\N,14.656979258
 1,-9.0217122846,0.\H,15.6196535591,-8.7096544671,0.\H,14.4791500946,-1
 0.0179715056,0.\\Version=AM64L-G03RevD.01\HF=-1201.7061963\RMSD=4.838e
 -09\RMSF=5.174e-05\Thermal=0.\Dipole=1.4440689,0.9130505,0.\PG=CS [SG(
 C27H15N3)]\\@


      TO SUSPECT YOUR OWN MORTALITY IS TO KNOW THE BEGINNING OF TERROR.
      TO LEARN IRREFUTABLY THAT YOU ARE MORTAL IS TO KNOW THE END
      OF TERROR.

                                                  -- JESSICA
                                                     CHILDREN OF DUNE
                                                     BY FRANK HERBERT
 Job cpu time:  0 days 21 hours 52 minutes 42.3 seconds.
 File lengths (MBytes):  RWF=    167 Int=      0 D2E=      0 Chk=     20 Scr=      1
 Normal termination of Gaussian 03 at Sun Feb  3 13:42:12 2008.
