<?xml version="1.0" encoding="UTF-8"?>
<module cmlx:templateRef="gaussian.log" xmlns="http://www.xml-cml.org/schema" xmlns:cmlx="http://www.xml-cml.org/schema/cmlx"> Entering Gaussian System, Link 0=/usr/local/Gaussian/g03/g03 Initial command: /usr/local/Gaussian/g03/l1.exe /export/scratch//webmo/3306/Gau-577.inp -scrdir=/export/scratch//webmo/3306/ Entering Link 1 = /usr/local/Gaussian/g03/l1.exe PID=       582.  <module cmlx:lineCount="60" cmlx:templateRef="l1.legal"><scalar dataType="xsd:string" dictRef="g:l1.legal">Copyright (c) 1988,1990,1992,1993,1995,1998,2003, Gaussian, Inc.</scalar></module>  <module cmlx:lineCount="20" cmlx:templateRef="l1.citation"><list cmlx:templateRef="citation"><scalar dataType="xsd:string" dictRef="g:l1.citation">Cite this work as:</scalar></list></module> <module cmlx:lineCount="25" cmlx:templateRef="l1.end"><scalar dataType="xsd:string" dictRef="cc:run.date">1-Sep-2006</scalar><scalar dataType="xsd:string" dictRef="cc:program">Gaussian 03</scalar><scalar dataType="xsd:string" dictRef="cc:version">Sun64-SVR4-Unix-G03RevB.04</scalar><scalar dataType="xsd:string" dictRef="cc:program.date">2-Jun-2003</scalar><list cmlx:templateRef="control"><scalar dataType="xsd:string" dictRef="g:control">1/14=-1,18=20,26=3,38=1/1,3</scalar><scalar dataType="xsd:string" dictRef="g:control">2/9=110,17=6,18=5,40=1/2</scalar><scalar dataType="xsd:string" dictRef="g:control">3/5=4,6=6,7=111,11=2,16=1,25=1,30=1,74=-5/1,2,3</scalar><scalar dataType="xsd:string" dictRef="g:control">4//1</scalar><scalar dataType="xsd:string" dictRef="g:control">5/5=2,38=5/2</scalar><scalar dataType="xsd:string" dictRef="g:control">6/7=2,8=2,9=2,10=2,28=1/1</scalar><scalar dataType="xsd:string" dictRef="g:control">7//1,2,3,16</scalar><scalar dataType="xsd:string" dictRef="g:control">1/14=-1,18=20/3(1)</scalar><scalar dataType="xsd:string" dictRef="g:control">99//99</scalar><scalar dataType="xsd:string" dictRef="g:control">2/9=110/2</scalar><scalar dataType="xsd:string" dictRef="g:control">3/5=4,6=6,7=111,11=2,16=1,25=1,30=1,74=-5/1,2,3</scalar><scalar dataType="xsd:string" dictRef="g:control">4/5=5,16=3/1</scalar><scalar dataType="xsd:string" dictRef="g:control">5/5=2,38=5/2</scalar><scalar dataType="xsd:string" dictRef="g:control">7//1,2,3,16</scalar><scalar dataType="xsd:string" dictRef="g:control">1/14=-1,18=20/3(-5)</scalar><scalar dataType="xsd:string" dictRef="g:control">2/9=110/2</scalar><scalar dataType="xsd:string" dictRef="g:control">6/7=2,8=2,9=2,10=2,19=2,28=1/1</scalar><scalar dataType="xsd:string" dictRef="g:control">99/9=1/99</scalar></list></module><module cmlx:lineCount="3" cmlx:templateRef="l101.title"><scalar dataType="xsd:string" dictRef="cc:title" cmlx:templateRef="title">phenol basis2</scalar></module><module cmlx:lineCount="50" cmlx:templateRef="l101"><list cmlx:templateRef="rest"><scalar dataType="xsd:string" dictRef="x:l101"/></list></module>                    Isotopes and Nuclear Properties:<module cmlx:lineCount="8" cmlx:templateRef="l101.isotope">  Atom         1           2           3           4           5           6           7           8           9          10 IAtWgt=          12          12          12          12          12          12           1           1           1           1 AtmWgt=  12.0000000  12.0000000  12.0000000  12.0000000  12.0000000  12.0000000   1.0078250   1.0078250   1.0078250   1.0078250 IAtSpn=           0           0           0           0           0           0           1           1           1           1 AtZEff=   0.0000000   0.0000000   0.0000000   0.0000000   0.0000000   0.0000000   0.0000000   0.0000000   0.0000000   0.0000000 AtQMom=   0.0000000   0.0000000   0.0000000   0.0000000   0.0000000   0.0000000   0.0000000   0.0000000   0.0000000   0.0000000 AtGFac=   0.0000000   0.0000000   0.0000000   0.0000000   0.0000000   0.0000000   2.7928460   2.7928460   2.7928460   2.7928460</module><module cmlx:lineCount="8" cmlx:templateRef="l101.isotope">  Atom        11          12          13 IAtWgt=          16           1           1 AtmWgt=  15.9949146   1.0078250   1.0078250 IAtSpn=           0           1           1 AtZEff=   0.0000000   0.0000000   0.0000000 AtQMom=   0.0000000   0.0000000   0.0000000 AtGFac=   0.0000000   2.7928460   2.7928460</module><module cmlx:lineCount="71" cmlx:templateRef="l103"><list cmlx:templateRef="berny"><scalar dataType="xsd:string" dictRef="g:optimization">Initialization pass.</scalar></list><module cmlx:lineCount="64" cmlx:templateRef="l103.init"><list cmlx:templateRef="length"><array dataType="xsd:string" size="13" dictRef="g:symbol">R1 R2 R3 R4 R5 R6 R7 R8 R9 R10 R11 R12 R13</array><array dataType="xsd:integer" size="13" dictRef="g:atom1">1 1 1 2 2 3 3 4 4 5 5 6 11</array><array dataType="xsd:integer" size="13" dictRef="g:atom2">2 6 7 3 8 4 9 5 10 6 11 12 13</array><array dataType="xsd:double" size="13" dictRef="cc:distance">1.3897 1.391 1.0842 1.393 1.0832 1.3876 1.0842 1.3948 1.0831 1.3944 1.3642 1.0863 0.9617</array><array delimiter="|" dataType="xsd:string" size="13" dictRef="g:deriv">|estimate D2E/DX2|estimate D2E/DX2|estimate D2E/DX2|estimate D2E/DX2|estimate D2E/DX2|estimate D2E/DX2|estimate D2E/DX2|estimate D2E/DX2|estimate D2E/DX2|estimate D2E/DX2|estimate D2E/DX2|estimate D2E/DX2|estimate D2E/DX2|</array></list><list cmlx:templateRef="angle"><array dataType="xsd:string" size="19" dictRef="g:symbol">A1 A2 A3 A4 A5 A6 A7 A8 A9 A10 A11 A12 A13 A14 A15 A16 A17 A18 A19</array><array dataType="xsd:integer" size="19" dictRef="g:atom1">2 2 6 1 1 3 2 2 4 3 3 5 4 4 6 1 1 5 5</array><array dataType="xsd:integer" size="19" dictRef="g:atom2">1 1 1 2 2 2 3 3 3 4 4 4 5 5 5 6 6 6 11</array><array dataType="xsd:integer" size="19" dictRef="g:atom3">6 7 7 3 8 8 4 9 9 5 10 10 6 11 11 5 12 12 13</array><array dataType="xsd:double" size="19" dictRef="cc:angle">120.5296 120.1509 119.3195 119.2535 120.3574 120.3891 120.7586 119.9706 119.2708 119.7157 121.5225 118.7618 119.8725 117.4387 122.6888 119.8702 120.1932 119.9366 109.3783</array><array delimiter="|" dataType="xsd:string" size="19" dictRef="g:deriv">|estimate D2E/DX2|estimate D2E/DX2|estimate D2E/DX2|estimate D2E/DX2|estimate D2E/DX2|estimate D2E/DX2|estimate D2E/DX2|estimate D2E/DX2|estimate D2E/DX2|estimate D2E/DX2|estimate D2E/DX2|estimate D2E/DX2|estimate D2E/DX2|estimate D2E/DX2|estimate D2E/DX2|estimate D2E/DX2|estimate D2E/DX2|estimate D2E/DX2|estimate D2E/DX2|</array></list><list cmlx:templateRef="dihed"><array dataType="xsd:string" size="25" dictRef="g:symbol">D1 D2 D3 D4 D5 D6 D7 D8 D9 D10 D11 D12 D13 D14 D15 D16 D17 D18 D19 D20 D21 D22 D23 D24 D25</array><array dataType="xsd:integer" size="25" dictRef="g:atom1">6 6 7 7 2 2 7 7 1 1 8 8 2 2 9 9 3 3 10 10 4 4 11 11 4</array><array dataType="xsd:integer" size="25" dictRef="g:atom2">1 1 1 1 1 1 1 1 2 2 2 2 3 3 3 3 4 4 4 4 5 5 5 5 5</array><array dataType="xsd:integer" size="25" dictRef="g:atom3">2 2 2 2 6 6 6 6 3 3 3 3 4 4 4 4 5 5 5 5 6 6 6 6 11</array><array dataType="xsd:integer" size="25" dictRef="g:atom4">3 8 3 8 5 12 5 12 4 9 4 9 5 10 5 10 6 11 6 11 1 12 1 12 13</array><array dataType="xsd:double" size="25" dictRef="cc:dihed">0.0054 179.9884 -179.9991 -0.0161 -4.0E-4 -179.9971 -179.9959 0.0074 -0.0070 179.9997 -179.99 0.0168 0.0035 -179.9951 179.9968 -0.0018 0.0016 179.9931 -179.9997 -0.0083 -0.0032 179.9935 -179.9942 0.0026 179.9596</array><array delimiter="|" dataType="xsd:string" size="25" dictRef="g:deriv">|estimate D2E/DX2|estimate D2E/DX2|estimate D2E/DX2|estimate D2E/DX2|estimate D2E/DX2|estimate D2E/DX2|estimate D2E/DX2|estimate D2E/DX2|estimate D2E/DX2|estimate D2E/DX2|estimate D2E/DX2|estimate D2E/DX2|estimate D2E/DX2|estimate D2E/DX2|estimate D2E/DX2|estimate D2E/DX2|estimate D2E/DX2|estimate D2E/DX2|estimate D2E/DX2|estimate D2E/DX2|estimate D2E/DX2|estimate D2E/DX2|estimate D2E/DX2|estimate D2E/DX2|estimate D2E/DX2|</array></list> ! D26   D(6,5,11,13)           -0.0492         estimate D2E/DX2                !</module> --------------------------------------------------------------------------------<module cmlx:lineCount="2" cmlx:templateRef="l103.trust"><scalar dataType="xsd:double" dictRef="g:trustrad">0.3</scalar><scalar dataType="xsd:double" dictRef="g:fncerr">1.0E-7</scalar><scalar dataType="xsd:double" dictRef="g:grderr">1.0E-6</scalar><scalar dataType="xsd:integer" dictRef="g:nstep">68</scalar><scalar dataType="xsd:integer" dictRef="g:allowedstep">100</scalar></module> GradGradGradGradGradGradGradGradGradGradGradGradGradGradGradGradGradGrad</module><module cmlx:lineCount="19" cmlx:templateRef="l202.orient"><molecule id="mol.l202.orient" cmlx:templateRef="atom"><atomArray><atom id="a1" elementType="C" x3="0.0" y3="0.0" z3="0.0"><scalar dataType="xsd:integer" dictRef="cc:serial">1</scalar><scalar dataType="xsd:integer" dictRef="g:atomicType">0</scalar><scalar dataType="xsd:integer" dictRef="compchem:atomicNumber">6</scalar></atom><atom id="a2" elementType="C" x3="0.0" y3="0.0" z3="1.389734"><scalar dataType="xsd:integer" dictRef="cc:serial">2</scalar><scalar dataType="xsd:integer" dictRef="g:atomicType">0</scalar><scalar dataType="xsd:integer" dictRef="compchem:atomicNumber">6</scalar></atom><atom id="a3" elementType="C" x3="1.215377" y3="0.0" z3="2.070474"><scalar dataType="xsd:integer" dictRef="cc:serial">3</scalar><scalar dataType="xsd:integer" dictRef="g:atomicType">0</scalar><scalar dataType="xsd:integer" dictRef="compchem:atomicNumber">6</scalar></atom><atom id="a4" elementType="C" x3="2.417221" y3="-1.46E-4" z3="1.376925"><scalar dataType="xsd:integer" dictRef="cc:serial">4</scalar><scalar dataType="xsd:integer" dictRef="g:atomicType">0</scalar><scalar dataType="xsd:integer" dictRef="compchem:atomicNumber">6</scalar></atom><atom id="a5" elementType="C" x3="2.410594" y3="-2.21E-4" z3="-0.017824"><scalar dataType="xsd:integer" dictRef="cc:serial">5</scalar><scalar dataType="xsd:integer" dictRef="g:atomicType">0</scalar><scalar dataType="xsd:integer" dictRef="compchem:atomicNumber">6</scalar></atom><atom id="a6" elementType="C" x3="1.198148" y3="-1.14E-4" z3="-0.706596"><scalar dataType="xsd:integer" dictRef="cc:serial">6</scalar><scalar dataType="xsd:integer" dictRef="g:atomicType">0</scalar><scalar dataType="xsd:integer" dictRef="compchem:atomicNumber">6</scalar></atom><atom id="a7" elementType="H" x3="-0.937483" y3="1.5E-5" z3="-0.544553"><scalar dataType="xsd:integer" dictRef="cc:serial">7</scalar><scalar dataType="xsd:integer" dictRef="g:atomicType">0</scalar><scalar dataType="xsd:integer" dictRef="compchem:atomicNumber">1</scalar></atom><atom id="a8" elementType="H" x3="-0.934684" y3="2.78E-4" z3="1.937177"><scalar dataType="xsd:integer" dictRef="cc:serial">8</scalar><scalar dataType="xsd:integer" dictRef="g:atomicType">0</scalar><scalar dataType="xsd:integer" dictRef="compchem:atomicNumber">1</scalar></atom><atom id="a9" elementType="H" x3="1.228947" y3="4.0E-6" z3="3.154599"><scalar dataType="xsd:integer" dictRef="cc:serial">9</scalar><scalar dataType="xsd:integer" dictRef="g:atomicType">0</scalar><scalar dataType="xsd:integer" dictRef="compchem:atomicNumber">1</scalar></atom><atom id="a10" elementType="H" x3="3.369148" y3="-2.28E-4" z3="1.893555"><scalar dataType="xsd:integer" dictRef="cc:serial">10</scalar><scalar dataType="xsd:integer" dictRef="g:atomicType">0</scalar><scalar dataType="xsd:integer" dictRef="compchem:atomicNumber">1</scalar></atom><atom id="a11" elementType="O" x3="3.618297" y3="-2.18E-4" z3="-0.652177"><scalar dataType="xsd:integer" dictRef="cc:serial">11</scalar><scalar dataType="xsd:integer" dictRef="g:atomicType">0</scalar><scalar dataType="xsd:integer" dictRef="compchem:atomicNumber">8</scalar></atom><atom id="a12" elementType="H" x3="1.191769" y3="-6.5E-5" z3="-1.792893"><scalar dataType="xsd:integer" dictRef="cc:serial">12</scalar><scalar dataType="xsd:integer" dictRef="g:atomicType">0</scalar><scalar dataType="xsd:integer" dictRef="compchem:atomicNumber">1</scalar></atom><atom id="a13" elementType="H" x3="3.478923" y3="-9.13E-4" z3="-1.603749"><scalar dataType="xsd:integer" dictRef="cc:serial">13</scalar><scalar dataType="xsd:integer" dictRef="g:atomicType">0</scalar><scalar dataType="xsd:integer" dictRef="compchem:atomicNumber">1</scalar></atom></atomArray><formula formalCharge="0" concise="C 6 H 6 O 1"><atomArray elementType="C H O" count="6.0 6.0 1.0"/></formula><bondArray><bond atomRefs2="a1 a2" id="a1_a2" order="2"/><bond atomRefs2="a1 a6" id="a1_a6" order="S"/><bond atomRefs2="a1 a7" id="a1_a7" order="S"/><bond atomRefs2="a2 a3" id="a2_a3" order="S"/><bond atomRefs2="a2 a8" id="a2_a8" order="S"/><bond atomRefs2="a3 a4" id="a3_a4" order="2"/><bond atomRefs2="a3 a9" id="a3_a9" order="S"/><bond atomRefs2="a4 a5" id="a4_a5" order="S"/><bond atomRefs2="a4 a10" id="a4_a10" order="S"/><bond atomRefs2="a5 a6" id="a5_a6" order="2"/><bond atomRefs2="a5 a11" id="a5_a11" order="S"/><bond atomRefs2="a6 a12" id="a6_a12" order="S"/><bond atomRefs2="a11 a13" id="a11_a13" order="S"/></bondArray><property dictRef="cml:molmass"><scalar dataType="xsd:double" units="unit:dalton" xmlns:unit="http://www.xml-cml.org/unit/si/">94.11124</scalar></property></molecule></module><module cmlx:lineCount="28" cmlx:templateRef="l202.distmat"><array dataType="xsd:double" size="85" dictRef="cc:distance">0.0 1.389734 0.0 2.400834 1.393035 0.0 2.781884 2.417255 1.387602 0.0 2.41066 2.791448 2.406145 1.394765 0.0 1.390984 2.414572 2.777123 2.413959 1.394429 0.0 1.084165 2.149498 3.387207 3.866021 3.389257 2.14177 0.0 2.150881 1.083203 2.154189 3.398404 3.87465 3.396838 2.481732 0.0 3.385529 2.150595 1.084209 2.138251 3.385344 3.861317 4.286857 2.482623 0.0 3.864804 3.40661 2.161025 1.083084 2.138269 3.387333 4.948883 4.304053 2.484087 0.0 3.676603 4.154693 3.631371 2.357932 1.364167 2.420761 4.557052 5.237785 4.494501 2.557895 2.152854 3.398445 3.863439 3.398452 2.153231 1.086316 2.468212 4.293626 4.947631 4.281457 3.830786 4.589537 4.315502 3.164116 1.912194 2.450882 4.541646 5.658453 5.263484 3.499026</array></module><module cmlx:lineCount="6" cmlx:templateRef="l202.stoich"><scalar dataType="xsd:string" dictRef="cc:formula" cmlx:templateRef="stoich">C6H6O</scalar><scalar dataType="xsd:string" dictRef="cc:frameworkgroup" cmlx:templateRef="framework">C1[X(C6H6O)]</scalar><scalar dataType="xsd:integer" dictRef="cc:degfreedom" cmlx:templateRef="degfreedom">33</scalar><scalar dataType="xsd:string" dictRef="cc:pointgroup">C1</scalar><scalar dataType="xsd:integer" dictRef="cc:operatorcount">1</scalar><scalar dataType="xsd:string" dictRef="cc:largestabelian">C1</scalar><scalar dataType="xsd:integer" dictRef="cc:operatorcount">1</scalar><scalar dataType="xsd:string" dictRef="cc:largestconciseabelian">C1</scalar><scalar dataType="xsd:integer" dictRef="cc:operatorcount">1</scalar></module><module cmlx:lineCount="19" cmlx:templateRef="l202.orient"><molecule id="a13" cmlx:templateRef="atom"><atomArray><atom id="a1" elementType="C" x3="1.128939" y3="1.21437" z3="-1.1E-5"><scalar dataType="xsd:integer" dictRef="cc:serial">1</scalar><scalar dataType="xsd:integer" dictRef="g:atomicType">0</scalar><scalar dataType="xsd:integer" dictRef="compchem:atomicNumber">6</scalar></atom><atom id="a2" elementType="C" x3="1.851724" y3="0.027381" z3="4.7E-5"><scalar dataType="xsd:integer" dictRef="cc:serial">2</scalar><scalar dataType="xsd:integer" dictRef="g:atomicType">0</scalar><scalar dataType="xsd:integer" dictRef="compchem:atomicNumber">6</scalar></atom><atom id="a3" elementType="C" x3="1.167701" y3="-1.186151" z3="-1.5E-5"><scalar dataType="xsd:integer" dictRef="cc:serial">3</scalar><scalar dataType="xsd:integer" dictRef="g:atomicType">0</scalar><scalar dataType="xsd:integer" dictRef="compchem:atomicNumber">6</scalar></atom><atom id="a4" elementType="C" x3="-0.219516" y3="-1.218848" z3="1.3E-5"><scalar dataType="xsd:integer" dictRef="cc:serial">4</scalar><scalar dataType="xsd:integer" dictRef="g:atomicType">0</scalar><scalar dataType="xsd:integer" dictRef="compchem:atomicNumber">6</scalar></atom><atom id="a5" elementType="C" x3="-0.939249" y3="-0.024129" z3="3.0E-5"><scalar dataType="xsd:integer" dictRef="cc:serial">5</scalar><scalar dataType="xsd:integer" dictRef="g:atomicType">0</scalar><scalar dataType="xsd:integer" dictRef="compchem:atomicNumber">6</scalar></atom><atom id="a6" elementType="C" x3="-0.261906" y3="1.194739" z3="-1.6E-5"><scalar dataType="xsd:integer" dictRef="cc:serial">6</scalar><scalar dataType="xsd:integer" dictRef="g:atomicType">0</scalar><scalar dataType="xsd:integer" dictRef="compchem:atomicNumber">6</scalar></atom><atom id="a7" elementType="H" x3="1.646438" y3="2.167054" z3="2.1E-5"><scalar dataType="xsd:integer" dictRef="cc:serial">7</scalar><scalar dataType="xsd:integer" dictRef="g:atomicType">0</scalar><scalar dataType="xsd:integer" dictRef="compchem:atomicNumber">1</scalar></atom><atom id="a8" elementType="H" x3="2.934768" y3="0.045923" z3="-1.39E-4"><scalar dataType="xsd:integer" dictRef="cc:serial">8</scalar><scalar dataType="xsd:integer" dictRef="g:atomicType">0</scalar><scalar dataType="xsd:integer" dictRef="compchem:atomicNumber">1</scalar></atom><atom id="a9" elementType="H" x3="1.719951" y3="-2.119173" z3="2.5E-5"><scalar dataType="xsd:integer" dictRef="cc:serial">9</scalar><scalar dataType="xsd:integer" dictRef="g:atomicType">0</scalar><scalar dataType="xsd:integer" dictRef="compchem:atomicNumber">1</scalar></atom><atom id="a10" elementType="H" x3="-0.763875" y3="-2.155194" z3="4.5E-5"><scalar dataType="xsd:integer" dictRef="cc:serial">10</scalar><scalar dataType="xsd:integer" dictRef="g:atomicType">0</scalar><scalar dataType="xsd:integer" dictRef="compchem:atomicNumber">1</scalar></atom><atom id="a11" elementType="O" x3="-2.300683" y3="-0.110433" z3="-8.9E-5"><scalar dataType="xsd:integer" dictRef="cc:serial">11</scalar><scalar dataType="xsd:integer" dictRef="g:atomicType">0</scalar><scalar dataType="xsd:integer" dictRef="compchem:atomicNumber">8</scalar></atom><atom id="a12" elementType="H" x3="-0.82143" y3="2.125876" z3="-1.09E-4"><scalar dataType="xsd:integer" dictRef="cc:serial">12</scalar><scalar dataType="xsd:integer" dictRef="g:atomicType">0</scalar><scalar dataType="xsd:integer" dictRef="compchem:atomicNumber">1</scalar></atom><atom id="a13" elementType="H" x3="-2.676544" y3="0.774802" z3="5.76E-4"><scalar dataType="xsd:integer" dictRef="cc:serial">13</scalar><scalar dataType="xsd:integer" dictRef="g:atomicType">0</scalar><scalar dataType="xsd:integer" dictRef="compchem:atomicNumber">1</scalar></atom></atomArray><formula formalCharge="0" concise="C 6 H 6 O 1"><atomArray elementType="C H O" count="6.0 6.0 1.0"/></formula><bondArray><bond atomRefs2="a1 a2" id="a1_a2" order="2"/><bond atomRefs2="a1 a6" id="a1_a6" order="S"/><bond atomRefs2="a1 a7" id="a1_a7" order="S"/><bond atomRefs2="a2 a3" id="a2_a3" order="S"/><bond atomRefs2="a2 a8" id="a2_a8" order="S"/><bond atomRefs2="a3 a4" id="a3_a4" order="2"/><bond atomRefs2="a3 a9" id="a3_a9" order="S"/><bond atomRefs2="a4 a5" id="a4_a5" order="S"/><bond atomRefs2="a4 a10" id="a4_a10" order="S"/><bond atomRefs2="a5 a6" id="a5_a6" order="2"/><bond atomRefs2="a5 a11" id="a5_a11" order="S"/><bond atomRefs2="a6 a12" id="a6_a12" order="S"/><bond atomRefs2="a11 a13" id="a11_a13" order="S"/></bondArray><property dictRef="cml:molmass"><scalar dataType="xsd:double" units="unit:dalton" xmlns:unit="http://www.xml-cml.org/unit/si/">94.11124</scalar></property></molecule></module><module cmlx:lineCount="1" cmlx:templateRef="l202.rotconst"><array dataType="xsd:double" size="3" dictRef="cc:rotconst" cmlx:templateRef="rotconst">5.6912354 2.6276061 1.7976451</array></module><scalar dataType="xsd:integer" dictRef="g:buffer" cmlx:templateRef="buffer">131072</scalar><scalar dataType="xsd:string" dictRef="g:raffenetti" cmlx:templateRef="raff">Raffenetti</scalar><scalar dataType="xsd:string" dictRef="g:twoe" cmlx:templateRef="twoe">Two-electron</scalar><module cmlx:lineCount="12" cmlx:templateRef="l301.basis"><scalar dataType="xsd:string" dictRef="cc:basis">6-311+G(d,p)</scalar><scalar dataType="xsd:string" dictRef="cc:diffuse">(5D, 7F)</scalar><list cmlx:lineCount="1" cmlx:templateRef="symmadapt"><array dataType="xsd:integer" dictRef="cc:adapted" size="1">190</array><array dataType="xsd:string" dictRef="cc:symm" size="1">A</array></list><scalar dataType="xsd:integer" dictRef="cc:basiscount">190</scalar><scalar dataType="xsd:integer" dictRef="g:primbasis">300</scalar><scalar dataType="xsd:integer" dictRef="cc:cartesianbasis">197</scalar><scalar dataType="xsd:integer" dictRef="cc:alphae">25</scalar><scalar dataType="xsd:integer" dictRef="cc:betae">25</scalar> IExCor= 402 DFT=T Ex=B+HF Corr=LYP ExCW=0 ScaHFX=  0.200000 ScaDFX=  0.800000  0.720000  1.000000  0.810000 IRadAn=      0 IRanWt=     -1 IRanGd=            0 ICorTp=0 NAtoms=   13 NActive=   13 NUniq=   13 SFac= 1.00D+00 NAtFMM=   60 Big=F</module> NPDir=0 NMtPBC=     1 NCelOv=     1 NCel=       1 NClECP=     1 NCelD=      1         NCelK=      1 NCelE2=     1 NClLst=     1 CellRange=     0.0.<module cmlx:lineCount="1" cmlx:templateRef="l302.basis"><list cmlx:templateRef="onee"><scalar dataType="xsd:string" dictRef="g:onee">One-electron integrals</scalar></list></module> NBasis=   190 RedAO= T  NBF=   190 NBsUse=   190 1.00D-06 NBFU=   190 Precomputing XC quadrature grid using IXCGrd= 2 IRadAn=           0 IRanWt=          -1 IRanGd=           0. NRdTot=     833 NPtTot=      105622 NUsed=      111506 NTot=      111538 NSgBfM=   197   197   197   197.<module cmlx:lineCount="1" cmlx:templateRef="l303.basis"><list cmlx:templateRef="l303"><scalar dataType="xsd:integer" dictRef="g:dipdrv">1</scalar></list></module> Harris functional with IExCor=  402 diagonalized for initial guess. ExpMin= 4.38D-02 ExpMax= 8.59D+03 ExpMxC= 1.30D+03 IAcc=2 IRadAn=         4 AccDes= 0.00D+00 HarFok:  IExCor= 402 AccDes= 0.00D+00 IRadAn=         4 IDoV=1 ScaDFX=  1.000000  1.000000  1.000000  1.000000 Harris En= -307.686189607494     Initial guess orbital symmetries:       Occupied  (A) (A) (A) (A) (A) (A) (A) (A) (A) (A) (A) (A)                 (A) (A) (A) (A) (A) (A) (A) (A) (A) (A) (A) (A)                 (A)       Virtual   (A) (A) (A) (A) (A) (A) (A) (A) (A) (A) (A) (A)                 (A) (A) (A) (A) (A) (A) (A) (A) (A) (A) (A) (A)                 (A) (A) (A) (A) (A) (A) (A) (A) (A) (A) (A) (A)                 (A) (A) (A) (A) (A) (A) (A) (A) (A) (A) (A) (A)                 (A) (A) (A) (A) (A) (A) (A) (A) (A) (A) (A) (A)                 (A) (A) (A) (A) (A) (A) (A) (A) (A) (A) (A) (A)                 (A) (A) (A) (A) (A) (A) (A) (A) (A) (A) (A) (A)                 (A) (A) (A) (A) (A) (A) (A) (A) (A) (A) (A) (A)                 (A) (A) (A) (A) (A) (A) (A) (A) (A) (A) (A) (A)                 (A) (A) (A) (A) (A) (A) (A) (A) (A) (A) (A) (A)                 (A) (A) (A) (A) (A) (A) (A) (A) (A) (A) (A) (A)                 (A) (A) (A) (A) (A) (A) (A) (A) (A) (A) (A) (A)                 (A) (A) (A) (A) (A) (A) (A) (A) (A) (A) (A) (A)                 (A) (A) (A) (A) (A) (A) (A) (A) (A) The electronic state of the initial guess is 1-A.<module cmlx:lineCount="207" cmlx:templateRef="l502"><list cmlx:templateRef="l502.type"><scalar dataType="xsd:string" dictRef="g:l502.type">Closed</scalar></list> Requested convergence on RMS density matrix=1.00D-08 within 128 cycles. Requested convergence on MAX density matrix=1.00D-06. Requested convergence on             energy=1.00D-06. No special actions if energy rises. Using DIIS extrapolation, IDIIS=  1040. Integral symmetry usage will be decided dynamically.       111505 words used for storage of precomputed grid. IEnd=    266795 IEndB=    266795 NGot=   6291456 MDV=   6080308 LenX=   6080308 Fock matrices will be formed incrementally for  20 cycles.<module cmlx:lineCount="190" cmlx:templateRef="l502.cycle"><list cmlx:templateRef="cycle"><list><scalar dataType="xsd:integer" dictRef="cc:cycle">1</scalar><scalar dataType="xsd:integer" dictRef="g:pass">1</scalar><scalar dataType="xsd:integer" dictRef="g:idiag">1</scalar></list></list><module cmlx:lineCount="1" cmlx:templateRef="l502.e"><list cmlx:templateRef="l502.e"><scalar dataType="xsd:double" dictRef="g:l502.e">-307.301325367432</scalar></list></module> Cycle   2  Pass 1  IDiag  1:<module cmlx:lineCount="1" cmlx:templateRef="l502.ediff"><list cmlx:templateRef="l502.ediff"><list><scalar dataType="xsd:double" dictRef="g:l502.e">-307.40648506912</scalar><scalar dataType="xsd:double" dictRef="g:l502.deltae">-0.105159701688</scalar></list></list></module> Cycle   3  Pass 1  IDiag  1:<module cmlx:lineCount="1" cmlx:templateRef="l502.ediff"><list cmlx:templateRef="l502.ediff"><list><scalar dataType="xsd:double" dictRef="g:l502.e">-307.553450997043</scalar><scalar dataType="xsd:double" dictRef="g:l502.deltae">-0.146965927923</scalar></list></list></module> Cycle   4  Pass 1  IDiag  1:<module cmlx:lineCount="1" cmlx:templateRef="l502.ediff"><list cmlx:templateRef="l502.ediff"><list><scalar dataType="xsd:double" dictRef="g:l502.e">-307.556000566196</scalar><scalar dataType="xsd:double" dictRef="g:l502.deltae">-0.002549569153</scalar></list></list></module> Cycle   5  Pass 1  IDiag  1:<module cmlx:lineCount="1" cmlx:templateRef="l502.ediff"><list cmlx:templateRef="l502.ediff"><list><scalar dataType="xsd:double" dictRef="g:l502.e">-307.558486670942</scalar><scalar dataType="xsd:double" dictRef="g:l502.deltae">-0.002486104747</scalar></list></list></module> Cycle   6  Pass 1  IDiag  1:<module cmlx:lineCount="1" cmlx:templateRef="l502.ediff"><list cmlx:templateRef="l502.ediff"><list><scalar dataType="xsd:double" dictRef="g:l502.e">-307.558549890615</scalar><scalar dataType="xsd:double" dictRef="g:l502.deltae">-6.3219672E-5</scalar></list></list></module> Cycle   7  Pass 1  IDiag  1:                    CP:  6.74D-01<module cmlx:lineCount="1" cmlx:templateRef="l502.ediff"><list cmlx:templateRef="l502.ediff"><list><scalar dataType="xsd:double" dictRef="g:l502.e">-307.558555685609</scalar><scalar dataType="xsd:double" dictRef="g:l502.deltae">-5.794994E-6</scalar></list></list></module> Cycle   8  Pass 1  IDiag  1:                    CP:  6.94D-01  8.83D-01<module cmlx:lineCount="1" cmlx:templateRef="l502.ediff"><list cmlx:templateRef="l502.ediff"><list><scalar dataType="xsd:double" dictRef="g:l502.e">-307.558555968025</scalar><scalar dataType="xsd:double" dictRef="g:l502.deltae">-2.82416E-7</scalar></list></list></module> Cycle   9  Pass 1  IDiag  1:                    CP:  6.92D-01  9.13D-01  9.18D-01<module cmlx:lineCount="1" cmlx:templateRef="l502.ediff"><list cmlx:templateRef="l502.ediff"><list><scalar dataType="xsd:double" dictRef="g:l502.e">-307.558555992252</scalar><scalar dataType="xsd:double" dictRef="g:l502.deltae">-2.4227E-8</scalar></list></list></module> Cycle  10  Pass 1  IDiag  1:                    CP:  6.95D-01  9.09D-01  9.54D-01  7.38D-01<module cmlx:lineCount="1" cmlx:templateRef="l502.ediff"><list cmlx:templateRef="l502.ediff"><list><scalar dataType="xsd:double" dictRef="g:l502.e">-307.558555997701</scalar><scalar dataType="xsd:double" dictRef="g:l502.deltae">-5.449E-9</scalar></list></list></module> Cycle  11  Pass 1  IDiag  1:                    CP:  6.94D-01  9.12D-01  9.53D-01  7.85D-01  8.44D-01<module cmlx:lineCount="1" cmlx:templateRef="l502.ediff"><list cmlx:templateRef="l502.ediff"><list><scalar dataType="xsd:double" dictRef="g:l502.e">-307.55855599802</scalar><scalar dataType="xsd:double" dictRef="g:l502.deltae">-3.2E-10</scalar></list></list></module> Cycle  12  Pass 1  IDiag  1:                    CP:  6.94D-01  9.13D-01  9.62D-01  7.90D-01  8.86D-01                    CP:  6.83D-01<module cmlx:lineCount="1" cmlx:templateRef="l502.ediff"><list cmlx:templateRef="l502.ediff"><list><scalar dataType="xsd:double" dictRef="g:l502.e">-307.558555998084</scalar><scalar dataType="xsd:double" dictRef="g:l502.deltae">-6.3E-11</scalar></list></list></module> Cycle  13  Pass 1  IDiag  1:                    CP:  6.94D-01  9.14D-01  9.62D-01  7.91D-01  8.93D-01                    CP:  7.15D-01  9.67D-01<module cmlx:lineCount="1" cmlx:templateRef="l502.ediff"><list cmlx:templateRef="l502.ediff"><list><scalar dataType="xsd:double" dictRef="g:l502.e">-307.558555998084</scalar><scalar dataType="xsd:double" dictRef="g:l502.deltae">0.0</scalar></list></list></module> RMSDP=3.38D-09 MaxDP=1.05D-07 DE=-1.14D-13 OVMax= 1.34D-07</module><module cmlx:lineCount="4" cmlx:templateRef="l502.footer"><list cmlx:templateRef="l502"><scalar dataType="xsd:string" dictRef="g:l502">SCF Done:  E(RB+HF-LYP) =  -307.558555998     A.U. after   13 cycles</scalar><scalar dataType="xsd:string" dictRef="g:l502">Convg  =    0.3381D-08             -V/T =  2.0040</scalar><scalar dataType="xsd:string" dictRef="g:l502">S**2   =   0.0000</scalar><scalar dataType="xsd:string" dictRef="g:l502">KE= 3.063249568558D+02 PE=-1.259888390476D+03 EE= 3.743608745183D+02</scalar></list></module></module> Copying SCF densities to generalized density rwf, ISCF=0 IROHF=0.<module cmlx:lineCount="158" cmlx:templateRef="l601.popanal"> Orbital symmetries:<module cmlx:lineCount="3" cmlx:templateRef="l4601.occupied"><list cmlx:templateRef="occ"><scalar dataType="xsd:string" dictRef="g:occorbs">(A) (A) (A) (A) (A) (A) (A) (A) (A) (A) (A) (A)</scalar></list><list cmlx:templateRef="occ"><scalar dataType="xsd:string" dictRef="g:occorbs">(A) (A) (A) (A) (A) (A) (A) (A) (A) (A) (A) (A)</scalar><scalar dataType="xsd:string" dictRef="g:occorbs">(A)</scalar></list></module><module cmlx:lineCount="14" cmlx:templateRef="l4601.virtual"><list cmlx:templateRef="virt"><scalar dataType="xsd:string" dictRef="g:virtorbs">(A) (A) (A) (A) (A) (A) (A) (A) (A) (A) (A) (A)</scalar></list><list cmlx:templateRef="virt"><scalar dataType="xsd:string" dictRef="g:virtorbs">(A) (A) (A) (A) (A) (A) (A) (A) (A) (A) (A) (A)</scalar><scalar dataType="xsd:string" dictRef="g:virtorbs">(A) (A) (A) (A) (A) (A) (A) (A) (A) (A) (A) (A)</scalar><scalar dataType="xsd:string" dictRef="g:virtorbs">(A) (A) (A) (A) (A) (A) (A) (A) (A) (A) (A) (A)</scalar><scalar dataType="xsd:string" dictRef="g:virtorbs">(A) (A) (A) (A) (A) (A) (A) (A) (A) (A) (A) (A)</scalar><scalar dataType="xsd:string" dictRef="g:virtorbs">(A) (A) (A) (A) (A) (A) (A) (A) (A) (A) (A) (A)</scalar><scalar dataType="xsd:string" dictRef="g:virtorbs">(A) (A) (A) (A) (A) (A) (A) (A) (A) (A) (A) (A)</scalar><scalar dataType="xsd:string" dictRef="g:virtorbs">(A) (A) (A) (A) (A) (A) (A) (A) (A) (A) (A) (A)</scalar><scalar dataType="xsd:string" dictRef="g:virtorbs">(A) (A) (A) (A) (A) (A) (A) (A) (A) (A) (A) (A)</scalar><scalar dataType="xsd:string" dictRef="g:virtorbs">(A) (A) (A) (A) (A) (A) (A) (A) (A) (A) (A) (A)</scalar><scalar dataType="xsd:string" dictRef="g:virtorbs">(A) (A) (A) (A) (A) (A) (A) (A) (A) (A) (A) (A)</scalar><scalar dataType="xsd:string" dictRef="g:virtorbs">(A) (A) (A) (A) (A) (A) (A) (A) (A) (A) (A) (A)</scalar><scalar dataType="xsd:string" dictRef="g:virtorbs">(A) (A) (A) (A) (A) (A) (A) (A) (A) (A) (A) (A)</scalar><scalar dataType="xsd:string" dictRef="g:virtorbs">(A) (A) (A) (A) (A) (A) (A) (A) (A)</scalar></list></module><module cmlx:lineCount="1" cmlx:templateRef="l601.state"><scalar dataType="xsd:string" dictRef="g:l601.state">1-A.</scalar></module><array dataType="xsd:double" size="25" dictRef="g:alphaocc">-19.16158 -10.24148 -10.18236 -10.18033 -10.18031 -10.17408 -10.17231 -1.07462 -0.86054 -0.75807 -0.7473 -0.63461 -0.61138 -0.55535 -0.50743 -0.47594 -0.44701 -0.43209 -0.42019 -0.40005 -0.37056 -0.34913 -0.34729 -0.26376 -0.23467</array><array dataType="xsd:double" size="165" dictRef="g:alphavirt">-0.02014 -0.00511 -0.00503 0.01031 0.02433 0.03791 0.04794 0.06183 0.06768 0.07659 0.08675 0.09177 0.09576 0.1298 0.1305 0.1355 0.13835 0.13855 0.14221 0.14508 0.15857 0.17229 0.18369 0.19567 0.19767 0.20286 0.20534 0.21391 0.216 0.22821 0.23691 0.25079 0.25539 0.26155 0.27747 0.28858 0.30909 0.31903 0.34388 0.35099 0.36319 0.36561 0.45652 0.48492 0.51111 0.52461 0.52724 0.5397 0.55829 0.56226 0.57044 0.57454 0.589 0.61046 0.61493 0.61954 0.66849 0.6775 0.69412 0.72052 0.72222 0.74102 0.78805 0.82097 0.82325 0.82604 0.84904 0.85346 0.85575 0.88616 0.90517 0.96606 1.00096 1.00129 1.01741 1.0606 1.07549 1.1072 1.11681 1.13062 1.2127 1.22626 1.28481 1.32955 1.4012 1.46984 1.48876 1.50394 1.55069 1.56264 1.56843 1.57917 1.61054 1.64415 1.65875 1.67856 1.73259 1.73492 1.76957 1.79842 1.81428 1.87593 1.91425 1.92609 1.93222 1.95048 1.95544 1.97235 1.99636 2.00686 2.05568 2.07847 2.09225 2.26971 2.31581 2.33524 2.37559 2.3892 2.40486 2.47061 2.57541 2.62881 2.62895 2.65201 2.67309 2.7082 2.73126 2.74535 2.74617 2.75932 2.78391 2.81558 2.82802 2.86898 2.88225 2.93357 3.07243 3.08615 3.09153 3.12943 3.17649 3.32156 3.36222 3.44038 3.49089 3.50522 3.60043 3.66968 3.8962 3.97959 4.02883 4.11987 4.14294 4.15418 4.84532 4.98404 5.43466 5.74732 23.55566 23.92808 23.95939 24.07551 24.10602 24.20404 49.92414</array><module cmlx:lineCount="38" cmlx:templateRef="l601.alphabetaeigen"/><module cmlx:lineCount="42" cmlx:templateRef="l601.condensed"><array dataType="xsd:double" size="13" dictRef="x:floatArr">5.081111 0.555988 0.032313 -0.227605 0.119507 0.218431 0.368822 -0.006676 0.001075 0.007002 -0.005619 0.097452 0.005183</array><array dataType="xsd:double" size="13" dictRef="x:floatArr">0.555988 4.901827 0.525672 0.003689 -0.200339 0.00882 -0.028022 0.380188 -0.013062 -0.013091 0.010522 -0.013134 -0.001677</array><array dataType="xsd:double" size="13" dictRef="x:floatArr">0.032313 0.525672 4.955125 0.140294 0.191602 -0.072436 -0.003412 -0.007535 0.404335 0.017589 0.023556 0.014619 -0.008899</array><array dataType="xsd:double" size="13" dictRef="x:floatArr">-0.227605 0.003689 0.140294 6.274354 -0.029025 -0.373479 -9.36E-4 -0.015174 -0.049967 0.356965 -0.269219 -0.06823 0.089102</array><array dataType="xsd:double" size="13" dictRef="x:floatArr">0.119507 -0.200339 0.191602 -0.029025 5.941201 -0.147295 0.025663 0.010099 0.007152 0.030005 0.293117 -0.043203 0.061337</array><array dataType="xsd:double" size="13" dictRef="x:floatArr">0.218431 0.00882 -0.072436 -0.373479 -0.147295 6.121883 -0.012881 -0.009155 -6.16E-4 -0.036933 -0.006945 0.363833 -0.136566</array><array dataType="xsd:double" size="13" dictRef="x:floatArr">0.368822 -0.028022 -0.003412 -9.36E-4 0.025663 -0.012881 0.541563 -0.007915 -3.17E-4 6.1E-5 -7.84E-4 -0.008306 -1.0E-5</array><array dataType="xsd:double" size="13" dictRef="x:floatArr">-0.006676 0.380188 -0.007535 -0.015174 0.010099 -0.009155 -0.007915 0.542102 -0.007879 -2.09E-4 1.13E-4 -2.5E-4 -5.0E-6</array><array dataType="xsd:double" size="13" dictRef="x:floatArr">0.001075 -0.013062 0.404335 -0.049967 0.007152 -6.16E-4 -3.17E-4 -0.007879 0.539231 -0.007737 -7.64E-4 6.7E-5 2.2E-5</array><array dataType="xsd:double" size="13" dictRef="x:floatArr">0.007002 -0.013091 0.017589 0.356965 0.030005 -0.036933 6.1E-5 -2.09E-4 -0.007737 0.526414 -0.008627 -1.52E-4 1.22E-4</array><array dataType="xsd:double" size="13" dictRef="x:floatArr">-0.005619 0.010522 0.023556 -0.269219 0.293117 -0.006945 -7.84E-4 1.13E-4 -7.64E-4 -0.008627 8.012058 -0.014375 0.236937</array><array dataType="xsd:double" size="13" dictRef="x:floatArr">0.097452 -0.013134 0.014619 -0.06823 -0.043203 0.363833 -0.008306 -2.5E-4 6.7E-5 -1.52E-4 -0.014375 0.561029 0.007605</array><array dataType="xsd:double" size="12" dictRef="x:floatArr">0.005183 -0.001677 -0.008899 0.089102 0.061337 -0.136566 -1.0E-5 -5.0E-6 2.2E-5 1.22E-4 0.236937 0.007605</array></module><list cmlx:templateRef="popanal"><scalar dataType="xsd:string" dictRef="x:popanal">13  H    0.501306</scalar></list><module cmlx:lineCount="34" cmlx:templateRef="mulliken"><module cmlx:lineCount="16" cmlx:templateRef="l601.mullik"><scalar dataType="xsd:string" dictRef="g:title">Mulliken atomic charges:</scalar><scalar dataType="xsd:integer" dictRef="cc:serial">1</scalar><list cmlx:lineCount="13" cmlx:templateRef="row"><array dataType="xsd:integer" dictRef="cc:serial" size="13">1 2 3 4 5 6 7 8 9 10 11 12 13</array><array dataType="xsd:string" dictRef="cc:elementType" size="13">C C C C C C H H H H O H H</array><array dataType="xsd:double" dictRef="x:charge" size="13">-0.246983 -0.117382 -0.212823 0.169231 -0.259821 0.083339 0.126474 0.122295 0.12846 0.128593 -0.269972 0.103044 0.245543</array></list><scalar dataType="xsd:string" dictRef="x:type">Mulliken</scalar><scalar dataType="xsd:double" dictRef="x:charge.sum">0.0</scalar></module><module cmlx:lineCount="16" cmlx:templateRef="l601.mullik"><scalar dataType="xsd:string" dictRef="g:title">Atomic charges with hydrogens summed into heavy atoms:</scalar><scalar dataType="xsd:integer" dictRef="cc:serial">1</scalar><list cmlx:lineCount="13" cmlx:templateRef="row"><array dataType="xsd:integer" dictRef="cc:serial" size="13">1 2 3 4 5 6 7 8 9 10 11 12 13</array><array dataType="xsd:string" dictRef="cc:elementType" size="13">C C C C C C H H H H O H H</array><array dataType="xsd:double" dictRef="x:charge" size="13">-0.120509 0.004913 -0.084363 0.297824 -0.259821 0.186383 0.0 0.0 0.0 0.0 -0.024428 0.0 0.0</array></list><scalar dataType="xsd:string" dictRef="x:type">Mulliken</scalar><scalar dataType="xsd:double" dictRef="x:charge.sum">0.0</scalar></module><scalar dataType="xsd:double" dictRef="g:electextent2">664.989</scalar> Charge=     0.0000 electrons</module><module cmlx:lineCount="18" cmlx:templateRef="multipole"><array dataType="xsd:double" size="3" dictRef="cc:dipole">0.0766 1.3807 0.0010</array><scalar dataType="xsd:double" dictRef="x:dipole">1.3828</scalar><array dataType="xsd:double" size="3" dictRef="cc:quadrupole">-38.2077 -36.0655 -45.5399</array><array dataType="xsd:double" size="3" dictRef="cc:quadrupole">-4.5416 -0.0038 8.0E-4</array><array dataType="xsd:double" size="6" dictRef="cc:quadrupole">1.73 3.8722 -5.6022 -4.5416 -0.0038 8.0E-4</array><array dataType="xsd:double" size="10" dictRef="cc:octapole">-7.1735 0.2343 -2.0E-4 -4.8914 13.1296 0.0084 -5.8109 -0.0043 3.0E-4 -0.0028</array><array dataType="xsd:double" size="15" dictRef="cc:hexadecapole">-492.3189 -278.3213 -53.4673 -38.4702 -0.033 -3.0037 -6.0E-4 -0.0020 5.0E-4 -121.5978 -106.5315 -66.8395 0.0079 -0.0013 -0.7261</array></module></module><module cmlx:lineCount="2" cmlx:templateRef="l601.nonmr"> Leave Link  601 at Fri Sep  1 22:01:18 2006, MaxMem=    6291456 cpu:       1.1</module><module cmlx:lineCount="1" cmlx:templateRef="l701"/> ... and contract with generalized density number  0.<module cmlx:lineCount="1" cmlx:templateRef="l702"/><module cmlx:lineCount="1" cmlx:templateRef="l701"/> Integral derivatives from FoFDir, PRISM(SPDF). Symmetry not used in FoFDir. MinBra= 0 MaxBra= 2 Meth= 1. IRaf=       0 NMat=   1 IRICut=       1 DoRegI=T DoRafI=F ISym2E= 0 JSym2E=0.<module cmlx:lineCount="2" cmlx:templateRef="l716.dipole"><array dataType="xsd:double" size="3" dictRef="x:d" cmlx:templateRef="dipole">0.0301405673 0.543197659 3.74167539E-4</array> ***** Axes restored to original set *****</module> ------------------------------------------------------------------- Center     Atomic                   Forces (Hartrees/Bohr) Number     Number              X              Y              Z -------------------------------------------------------------------    1          6          -0.002422200   -0.000010926   -0.001241329    2          6          -0.002248346    0.000022610    0.001491355    3          6          -0.000174452   -0.000011015    0.002732804    4          6           0.003058813   -0.000003430   -0.000115427    5          6          -0.002880228    0.000013034    0.002430827    6          6           0.001214927   -0.000001848   -0.002834753    7          1          -0.000086755    0.000003991   -0.000101663    8          1          -0.000138003   -0.000009874    0.000072304    9          1           0.000005939    0.000003581    0.000142801   10          1           0.000111097    0.000001405    0.000393329   11          8           0.002879132   -0.000009300   -0.001462334   12          1          -0.000048172   -0.000001775   -0.000186239   13          1           0.000728250    0.000003547   -0.001321673 ------------------------------------------------------------------- Cartesian Forces:  Max     0.003058813 RMS     0.001322825<module cmlx:lineCount="91" cmlx:templateRef="l103"><list cmlx:templateRef="berny"><scalar dataType="xsd:string" dictRef="g:optimization">Internal  Forces:  Max     0.004488911 RMS     0.001068102</scalar></list> Search for a local minimum. Step number   1 out of a maximum of  68 All quantities printed in internal units (Hartrees-Bohrs-Radians) Second derivative matrix not updated -- first step.     Eigenvalues ---    0.02161   0.02166   0.02170   0.02185   0.02197     Eigenvalues ---    0.02201   0.02210   0.02213   0.02217   0.02227     Eigenvalues ---    0.16000   0.16000   0.16000   0.16000   0.16000     Eigenvalues ---    0.16000   0.22000   0.22000   0.23485   0.25000     Eigenvalues ---    0.35242   0.35490   0.35496   0.35610   0.35624     Eigenvalues ---    0.42545   0.42707   0.46647   0.46754   0.47188     Eigenvalues ---    0.47536   0.52114   0.551041000.000001000.00000     Eigenvalues --- 1000.000001000.000001000.000001000.000001000.00000     Eigenvalues --- 1000.000001000.000001000.000001000.000001000.00000     Eigenvalues --- 1000.000001000.000001000.000001000.000001000.00000     Eigenvalues --- 1000.000001000.000001000.000001000.000001000.00000     Eigenvalues --- 1000.000001000.000001000.00000<module cmlx:lineCount="5" cmlx:templateRef="rfo"><list cmlx:templateRef="rfo"><scalar dataType="xsd:double" dictRef="g:lambda">-1.49893497E-4</scalar></list><list cmlx:templateRef="nolinear"><scalar dataType="xsd:string" dictRef="g:linear">Linear search</scalar></list><list cmlx:lineCount="3" cmlx:templateRef="iteration"><array dataType="xsd:integer" dictRef="cc:serial" size="3">1 2 3</array><array dataType="xsd:double" dictRef="g:rmscart" size="3">0.00462089 9.18E-6 0.0</array><array dataType="xsd:double" dictRef="g:rmsint" size="3">1.065E-5 9.0E-8 9.0E-8</array></list></module><module cmlx:lineCount="60" cmlx:templateRef="l103.deltas"><list cmlx:lineCount="58" cmlx:templateRef="delta"><array dataType="xsd:string" dictRef="cc:variable" size="58">R1 R2 R3 R4 R5 R6 R7 R8 R9 R10 R11 R12 R13 A1 A2 A3 A4 A5 A6 A7 A8 A9 A10 A11 A12 A13 A14 A15 A16 A17 A18 A19 D1 D2 D3 D4 D5 D6 D7 D8 D9 D10 D11 D12 D13 D14 D15 D16 D17 D18 D19 D20 D21 D22 D23 D24 D25 D26</array><array dataType="xsd:double" dictRef="g:lastval" size="58">2.62622 2.62858 2.04877 2.63246 2.04696 2.62219 2.04886 2.63572 2.04673 2.63509 2.5779 2.05284 1.8174 2.10364 2.09703 2.08252 2.08137 2.10063 2.10119 2.10763 2.09388 2.08167 2.08943 2.12097 2.07278 2.09217 2.04969 2.14132 2.09213 2.09777 2.09329 1.90901 9.0E-5 3.14139 -3.14158 -2.8E-4 -1.0E-5 -3.14154 -3.14152 1.3E-4 -1.2E-4 3.14159 -3.14142 2.9E-4 6.0E-5 -3.14151 3.14154 -3.0E-5 3.0E-5 3.14147 -3.14159 -1.5E-4 -6.0E-5 3.14148 -3.14149 5.0E-5 3.14089 -8.6E-4</array><array dataType="xsd:double" dictRef="cc:deriv" size="58">0.00291 0.00293 1.3E-4 0.00276 1.6E-4 0.0030 1.4E-4 0.00181 2.9E-4 0.00187 0.00449 1.9E-4 0.0012 -9.0E-5 9.0E-5 0.0 -9.0E-5 3.0E-5 5.0E-5 -8.0E-5 4.0E-5 4.0E-5 -2.2E-4 -1.9E-4 4.1E-4 7.1E-4 -1.8E-4 -5.3E-4 -2.3E-4 7.0E-5 1.6E-4 0.00166 0.0 0.0 0.0 1.0E-5 0.0 0.0 0.0 0.0 0.0 0.0 0.0 -1.0E-5 0.0 0.0 0.0 0.0 0.0 0.0 0.0 0.0 0.0 0.0 0.0 0.0 0.0 1.0E-5</array><array dataType="xsd:double" dictRef="cc:delta.linear" size="58">0.0 0.0 0.0 0.0 0.0 0.0 0.0 0.0 0.0 0.0 0.0 0.0 0.0 0.0 0.0 0.0 0.0 0.0 0.0 0.0 0.0 0.0 0.0 0.0 0.0 0.0 0.0 0.0 0.0 0.0 0.0 0.0 0.0 0.0 0.0 0.0 0.0 0.0 0.0 0.0 0.0 0.0 0.0 0.0 0.0 0.0 0.0 0.0 0.0 0.0 0.0 0.0 0.0 0.0 0.0 0.0 0.0 0.0</array><array dataType="xsd:double" dictRef="cc:delta.quad" size="58">0.00622 0.00622 3.6E-4 0.00599 4.4E-4 0.00629 4.0E-4 0.00381 8.0E-4 0.00392 0.00861 5.3E-4 0.00218 -1.5E-4 3.7E-4 -2.2E-4 5.0E-5 -9.0E-5 4.0E-5 -1.3E-4 8.0E-5 5.0E-5 -0.00115 -0.00131 0.00246 0.00255 -5.6E-4 -0.00199 -0.00118 3.0E-4 8.8E-4 0.01037 -1.4E-4 1.5E-4 -6.0E-5 2.4E-4 3.0E-5 0.0 -5.0E-5 -9.0E-5 1.5E-4 5.0E-5 -1.5E-4 -2.5E-4 -4.0E-5 -7.0E-5 6.0E-5 3.0E-5 -7.0E-5 9.0E-5 -4.0E-5 1.1E-4 7.0E-5 1.1E-4 -9.0E-5 -5.0E-5 8.0E-5 2.4E-4</array><array dataType="xsd:double" dictRef="cc:delta.total" size="58">0.00622 0.00622 3.6E-4 0.00599 4.4E-4 0.00629 4.0E-4 0.00381 8.0E-4 0.00392 0.00861 5.3E-4 0.00218 -1.5E-4 3.7E-4 -2.2E-4 5.0E-5 -9.0E-5 4.0E-5 -1.3E-4 8.0E-5 5.0E-5 -0.00115 -0.00131 0.00246 0.00255 -5.6E-4 -0.00199 -0.00118 3.0E-4 8.8E-4 0.01037 -1.4E-4 1.5E-4 -6.0E-5 2.4E-4 3.0E-5 0.0 -5.0E-5 -9.0E-5 1.5E-4 5.0E-5 -1.5E-4 -2.5E-4 -4.0E-5 -7.0E-5 6.0E-5 3.0E-5 -7.0E-5 9.0E-5 -4.0E-5 1.1E-4 7.0E-5 1.1E-4 -9.0E-5 -5.0E-5 8.0E-5 2.4E-4</array><array dataType="xsd:double" dictRef="cc:newval" size="58">2.63244 2.6348 2.04913 2.63844 2.04739 2.62847 2.04926 2.63953 2.04753 2.63901 2.58651 2.05337 1.81957 2.10349 2.0974 2.0823 2.08142 2.10055 2.10122 2.1075 2.09396 2.08172 2.08829 2.11966 2.07524 2.09472 2.04913 2.13933 2.09095 2.09806 2.09417 1.91938 -5.0E-5 3.14154 3.14155 -4.0E-5 3.0E-5 -3.14155 -3.14157 4.0E-5 2.0E-5 -3.14155 -3.14157 4.0E-5 2.0E-5 -3.14158 -3.14159 0.0 -4.0E-5 3.14156 3.14156 -3.0E-5 1.0E-5 3.14159 -3.14158 -1.0E-5 3.14097 -6.2E-4</array></list></module><module cmlx:lineCount="5" cmlx:templateRef="l103.itemconverge"><list cmlx:lineCount="4" cmlx:templateRef="row"><array dataType="xsd:string" dictRef="g:item"/><array dataType="xsd:double" dictRef="g:value" size="4">4.5E-4 3.0E-4 0.0018 0.0012</array><array dataType="xsd:double" dictRef="g:threshold" size="4">0.0 0.0 0.0 0.0</array><array dataType="xsd:string" dictRef="g:converged" size="4">NO NO NO NO</array></list></module><module cmlx:lineCount="1" cmlx:templateRef="preddelta"><list cmlx:templateRef="predicted"><scalar dataType="xsd:double" dictRef="g:predchange">-7.497609E-5</scalar></list></module> GradGradGradGradGradGradGradGradGradGradGradGradGradGradGradGradGradGrad</module><module cmlx:lineCount="19" cmlx:templateRef="l202.orient"><molecule id="a13" cmlx:templateRef="atom"><atomArray><atom id="a1" elementType="C" x3="-0.004045" y3="3.0E-6" z3="-7.05E-4"><scalar dataType="xsd:integer" dictRef="cc:serial">1</scalar><scalar dataType="xsd:integer" dictRef="g:atomicType">0</scalar><scalar dataType="xsd:integer" dictRef="compchem:atomicNumber">6</scalar></atom><atom id="a2" elementType="C" x3="-0.00355" y3="8.2E-5" z3="1.392321"><scalar dataType="xsd:integer" dictRef="cc:serial">2</scalar><scalar dataType="xsd:integer" dictRef="g:atomicType">0</scalar><scalar dataType="xsd:integer" dictRef="compchem:atomicNumber">6</scalar></atom><atom id="a3" elementType="C" x3="1.214799" y3="-1.0E-5" z3="2.074238"><scalar dataType="xsd:integer" dictRef="cc:serial">3</scalar><scalar dataType="xsd:integer" dictRef="g:atomicType">0</scalar><scalar dataType="xsd:integer" dictRef="compchem:atomicNumber">6</scalar></atom><atom id="a4" elementType="C" x3="2.41922" y3="-1.52E-4" z3="1.3785"><scalar dataType="xsd:integer" dictRef="cc:serial">4</scalar><scalar dataType="xsd:integer" dictRef="g:atomicType">0</scalar><scalar dataType="xsd:integer" dictRef="compchem:atomicNumber">6</scalar></atom><atom id="a5" elementType="C" x3="2.410371" y3="-1.8E-4" z3="-0.018252"><scalar dataType="xsd:integer" dictRef="cc:serial">5</scalar><scalar dataType="xsd:integer" dictRef="g:atomicType">0</scalar><scalar dataType="xsd:integer" dictRef="compchem:atomicNumber">6</scalar></atom><atom id="a6" elementType="C" x3="1.196791" y3="-1.11E-4" z3="-0.709222"><scalar dataType="xsd:integer" dictRef="cc:serial">6</scalar><scalar dataType="xsd:integer" dictRef="g:atomicType">0</scalar><scalar dataType="xsd:integer" dictRef="compchem:atomicNumber">6</scalar></atom><atom id="a7" elementType="H" x3="-0.941683" y3="3.5E-5" z3="-0.545366"><scalar dataType="xsd:integer" dictRef="cc:serial">7</scalar><scalar dataType="xsd:integer" dictRef="g:atomicType">0</scalar><scalar dataType="xsd:integer" dictRef="compchem:atomicNumber">1</scalar></atom><atom id="a8" elementType="H" x3="-0.938286" y3="2.17E-4" z3="1.940133"><scalar dataType="xsd:integer" dictRef="cc:serial">8</scalar><scalar dataType="xsd:integer" dictRef="g:atomicType">0</scalar><scalar dataType="xsd:integer" dictRef="compchem:atomicNumber">1</scalar></atom><atom id="a9" elementType="H" x3="1.228789" y3="1.1E-5" z3="3.15857"><scalar dataType="xsd:integer" dictRef="cc:serial">9</scalar><scalar dataType="xsd:integer" dictRef="g:atomicType">0</scalar><scalar dataType="xsd:integer" dictRef="compchem:atomicNumber">1</scalar></atom><atom id="a10" elementType="H" x3="3.371068" y3="-2.41E-4" z3="1.896161"><scalar dataType="xsd:integer" dictRef="cc:serial">10</scalar><scalar dataType="xsd:integer" dictRef="g:atomicType">0</scalar><scalar dataType="xsd:integer" dictRef="compchem:atomicNumber">1</scalar></atom><atom id="a11" elementType="O" x3="3.621456" y3="-2.81E-4" z3="-0.655966"><scalar dataType="xsd:integer" dictRef="cc:serial">11</scalar><scalar dataType="xsd:integer" dictRef="g:atomicType">0</scalar><scalar dataType="xsd:integer" dictRef="compchem:atomicNumber">8</scalar></atom><atom id="a12" elementType="H" x3="1.190508" y3="-1.28E-4" z3="-1.7958"><scalar dataType="xsd:integer" dictRef="cc:serial">12</scalar><scalar dataType="xsd:integer" dictRef="g:atomicType">0</scalar><scalar dataType="xsd:integer" dictRef="compchem:atomicNumber">1</scalar></atom><atom id="a13" elementType="H" x3="3.49082" y3="-8.52E-4" z3="-1.60994"><scalar dataType="xsd:integer" dictRef="cc:serial">13</scalar><scalar dataType="xsd:integer" dictRef="g:atomicType">0</scalar><scalar dataType="xsd:integer" dictRef="compchem:atomicNumber">1</scalar></atom></atomArray><formula formalCharge="0" concise="C 6 H 6 O 1"><atomArray elementType="C H O" count="6.0 6.0 1.0"/></formula><bondArray><bond atomRefs2="a1 a2" id="a1_a2" order="2"/><bond atomRefs2="a1 a6" id="a1_a6" order="S"/><bond atomRefs2="a1 a7" id="a1_a7" order="S"/><bond atomRefs2="a2 a3" id="a2_a3" order="S"/><bond atomRefs2="a2 a8" id="a2_a8" order="S"/><bond atomRefs2="a3 a4" id="a3_a4" order="2"/><bond atomRefs2="a3 a9" id="a3_a9" order="S"/><bond atomRefs2="a4 a5" id="a4_a5" order="S"/><bond atomRefs2="a4 a10" id="a4_a10" order="S"/><bond atomRefs2="a5 a6" id="a5_a6" order="2"/><bond atomRefs2="a5 a11" id="a5_a11" order="S"/><bond atomRefs2="a6 a12" id="a6_a12" order="S"/><bond atomRefs2="a11 a13" id="a11_a13" order="S"/></bondArray><property dictRef="cml:molmass"><scalar dataType="xsd:double" units="unit:dalton" xmlns:unit="http://www.xml-cml.org/unit/si/">94.11124</scalar></property></molecule></module><module cmlx:lineCount="28" cmlx:templateRef="l202.distmat"><array dataType="xsd:double" size="85" dictRef="cc:distance">0.0 1.393026 0.0 2.406443 1.396203 0.0 2.788264 2.422809 1.390929 0.0 2.41448 2.795842 2.40996 1.39678 0.0 1.394275 2.420186 2.783519 2.41928 1.396502 0.0 1.084353 2.152842 3.393043 3.872587 3.393246 2.144742 0.0 2.153986 1.083434 2.157257 3.404156 3.879275 3.402592 2.485502 0.0 3.391297 2.153669 1.084422 2.141442 3.389445 3.867925 4.293028 2.486121 0.0 3.871626 3.412022 2.16361 1.083507 2.141942 3.39345 4.955893 4.309578 2.486571 0.0 3.68424 4.16367 3.639507 2.363138 1.368724 2.42525 4.564479 5.246997 4.502837 2.564381 2.156229 3.404393 3.870114 3.403809 2.155863 1.086596 2.471806 4.299879 4.954518 4.287822 3.84756 4.606972 4.330525 3.17476 1.923757 2.464521 4.558553 5.676266 5.277828 3.508146</array></module><module cmlx:lineCount="6" cmlx:templateRef="l202.stoich"><scalar dataType="xsd:string" dictRef="cc:formula" cmlx:templateRef="stoich">C6H6O</scalar><scalar dataType="xsd:string" dictRef="cc:frameworkgroup" cmlx:templateRef="framework">C1[X(C6H6O)]</scalar><scalar dataType="xsd:integer" dictRef="cc:degfreedom" cmlx:templateRef="degfreedom">33</scalar><scalar dataType="xsd:string" dictRef="cc:pointgroup">C1</scalar><scalar dataType="xsd:integer" dictRef="cc:operatorcount">1</scalar><scalar dataType="xsd:string" dictRef="cc:largestabelian">C1</scalar><scalar dataType="xsd:integer" dictRef="cc:operatorcount">1</scalar><scalar dataType="xsd:string" dictRef="cc:largestconciseabelian">C1</scalar><scalar dataType="xsd:integer" dictRef="cc:operatorcount">1</scalar></module><module cmlx:lineCount="19" cmlx:templateRef="l202.orient"><molecule id="a13" cmlx:templateRef="atom"><atomArray><atom id="a1" elementType="C" x3="1.131041" y3="1.217512" z3="9.0E-6"><scalar dataType="xsd:integer" dictRef="cc:serial">1</scalar><scalar dataType="xsd:integer" dictRef="g:atomicType">0</scalar><scalar dataType="xsd:integer" dictRef="compchem:atomicNumber">6</scalar></atom><atom id="a2" elementType="C" x3="1.855859" y3="0.027906" z3="-6.0E-6"><scalar dataType="xsd:integer" dictRef="cc:serial">2</scalar><scalar dataType="xsd:integer" dictRef="g:atomicType">0</scalar><scalar dataType="xsd:integer" dictRef="compchem:atomicNumber">6</scalar></atom><atom id="a3" elementType="C" x3="1.17067" y3="-1.188605" z3="1.1E-5"><scalar dataType="xsd:integer" dictRef="cc:serial">3</scalar><scalar dataType="xsd:integer" dictRef="g:atomicType">0</scalar><scalar dataType="xsd:integer" dictRef="compchem:atomicNumber">6</scalar></atom><atom id="a4" elementType="C" x3="-0.219867" y3="-1.221641" z3="1.4E-5"><scalar dataType="xsd:integer" dictRef="cc:serial">4</scalar><scalar dataType="xsd:integer" dictRef="g:atomicType">0</scalar><scalar dataType="xsd:integer" dictRef="compchem:atomicNumber">6</scalar></atom><atom id="a5" elementType="C" x3="-0.939492" y3="-0.024505" z3="-2.2E-5"><scalar dataType="xsd:integer" dictRef="cc:serial">5</scalar><scalar dataType="xsd:integer" dictRef="g:atomicType">0</scalar><scalar dataType="xsd:integer" dictRef="compchem:atomicNumber">6</scalar></atom><atom id="a6" elementType="C" x3="-0.263086" y3="1.197254" z3="-1.6E-5"><scalar dataType="xsd:integer" dictRef="cc:serial">6</scalar><scalar dataType="xsd:integer" dictRef="g:atomicType">0</scalar><scalar dataType="xsd:integer" dictRef="compchem:atomicNumber">6</scalar></atom><atom id="a7" elementType="H" x3="1.648022" y3="2.170692" z3="3.5E-5"><scalar dataType="xsd:integer" dictRef="cc:serial">7</scalar><scalar dataType="xsd:integer" dictRef="g:atomicType">0</scalar><scalar dataType="xsd:integer" dictRef="compchem:atomicNumber">1</scalar></atom><atom id="a8" elementType="H" x3="2.939127" y3="0.046836" z3="-3.3E-5"><scalar dataType="xsd:integer" dictRef="cc:serial">8</scalar><scalar dataType="xsd:integer" dictRef="g:atomicType">0</scalar><scalar dataType="xsd:integer" dictRef="compchem:atomicNumber">1</scalar></atom><atom id="a9" elementType="H" x3="1.723252" y3="-2.121677" z3="3.8E-5"><scalar dataType="xsd:integer" dictRef="cc:serial">9</scalar><scalar dataType="xsd:integer" dictRef="g:atomicType">0</scalar><scalar dataType="xsd:integer" dictRef="compchem:atomicNumber">1</scalar></atom><atom id="a10" elementType="H" x3="-0.763036" y3="-2.159166" z3="4.2E-5"><scalar dataType="xsd:integer" dictRef="cc:serial">10</scalar><scalar dataType="xsd:integer" dictRef="g:atomicType">0</scalar><scalar dataType="xsd:integer" dictRef="compchem:atomicNumber">1</scalar></atom><atom id="a11" elementType="O" x3="-2.305508" y3="-0.11055" z3="-5.7E-5"><scalar dataType="xsd:integer" dictRef="cc:serial">11</scalar><scalar dataType="xsd:integer" dictRef="g:atomicType">0</scalar><scalar dataType="xsd:integer" dictRef="compchem:atomicNumber">8</scalar></atom><atom id="a12" elementType="H" x3="-0.823419" y3="2.128231" z3="-4.8E-5"><scalar dataType="xsd:integer" dictRef="cc:serial">12</scalar><scalar dataType="xsd:integer" dictRef="g:atomicType">0</scalar><scalar dataType="xsd:integer" dictRef="compchem:atomicNumber">1</scalar></atom><atom id="a13" elementType="H" x3="-2.690633" y3="0.771953" z3="4.81E-4"><scalar dataType="xsd:integer" dictRef="cc:serial">13</scalar><scalar dataType="xsd:integer" dictRef="g:atomicType">0</scalar><scalar dataType="xsd:integer" dictRef="compchem:atomicNumber">1</scalar></atom></atomArray><formula formalCharge="0" concise="C 6 H 6 O 1"><atomArray elementType="C H O" count="6.0 6.0 1.0"/></formula><bondArray><bond atomRefs2="a1 a2" id="a1_a2" order="2"/><bond atomRefs2="a1 a6" id="a1_a6" order="S"/><bond atomRefs2="a1 a7" id="a1_a7" order="S"/><bond atomRefs2="a2 a3" id="a2_a3" order="S"/><bond atomRefs2="a2 a8" id="a2_a8" order="S"/><bond atomRefs2="a3 a4" id="a3_a4" order="2"/><bond atomRefs2="a3 a9" id="a3_a9" order="S"/><bond atomRefs2="a4 a5" id="a4_a5" order="S"/><bond atomRefs2="a4 a10" id="a4_a10" order="S"/><bond atomRefs2="a5 a6" id="a5_a6" order="2"/><bond atomRefs2="a5 a11" id="a5_a11" order="S"/><bond atomRefs2="a6 a12" id="a6_a12" order="S"/><bond atomRefs2="a11 a13" id="a11_a13" order="S"/></bondArray><property dictRef="cml:molmass"><scalar dataType="xsd:double" units="unit:dalton" xmlns:unit="http://www.xml-cml.org/unit/si/">94.11124</scalar></property></molecule></module><module cmlx:lineCount="1" cmlx:templateRef="l202.rotconst"><array dataType="xsd:double" size="3" dictRef="cc:rotconst" cmlx:templateRef="rotconst">5.6678677 2.6165104 1.7901205</array></module><scalar dataType="xsd:integer" dictRef="g:buffer" cmlx:templateRef="buffer">131072</scalar><scalar dataType="xsd:string" dictRef="g:raffenetti" cmlx:templateRef="raff">Raffenetti</scalar><scalar dataType="xsd:string" dictRef="g:twoe" cmlx:templateRef="twoe">Two-electron</scalar><module cmlx:lineCount="12" cmlx:templateRef="l301.basis"><scalar dataType="xsd:string" dictRef="cc:basis">6-311+G(d,p)</scalar><scalar dataType="xsd:string" dictRef="cc:diffuse">(5D, 7F)</scalar><list cmlx:lineCount="1" cmlx:templateRef="symmadapt"><array dataType="xsd:integer" dictRef="cc:adapted" size="1">190</array><array dataType="xsd:string" dictRef="cc:symm" size="1">A</array></list><scalar dataType="xsd:integer" dictRef="cc:basiscount">190</scalar><scalar dataType="xsd:integer" dictRef="g:primbasis">300</scalar><scalar dataType="xsd:integer" dictRef="cc:cartesianbasis">197</scalar><scalar dataType="xsd:integer" dictRef="cc:alphae">25</scalar><scalar dataType="xsd:integer" dictRef="cc:betae">25</scalar> IExCor= 402 DFT=T Ex=B+HF Corr=LYP ExCW=0 ScaHFX=  0.200000 ScaDFX=  0.800000  0.720000  1.000000  0.810000 IRadAn=      0 IRanWt=     -1 IRanGd=            0 ICorTp=0 NAtoms=   13 NActive=   13 NUniq=   13 SFac= 1.00D+00 NAtFMM=   60 Big=F</module> NPDir=0 NMtPBC=     1 NCelOv=     1 NCel=       1 NClECP=     1 NCelD=      1         NCelK=      1 NCelE2=     1 NClLst=     1 CellRange=     0.0.<module cmlx:lineCount="1" cmlx:templateRef="l302.basis"><list cmlx:templateRef="onee"><scalar dataType="xsd:string" dictRef="g:onee">One-electron integrals</scalar></list></module> NBasis=   190 RedAO= T  NBF=   190 NBsUse=   190 1.00D-06 NBFU=   190 Precomputing XC quadrature grid using IXCGrd= 2 IRadAn=           0 IRanWt=          -1 IRanGd=           0. NRdTot=     833 NPtTot=      105622 NUsed=      111506 NTot=      111538 NSgBfM=   197   197   197   197.<module cmlx:lineCount="1" cmlx:templateRef="l303.basis"><list cmlx:templateRef="l303"><scalar dataType="xsd:integer" dictRef="g:dipdrv">1</scalar></list></module> Initial guess read from the read-write file: Guess basis will be translated and rotated to current coordinates. Initial guess orbital symmetries:       Occupied  (A) (A) (A) (A) (A) (A) (A) (A) (A) (A) (A) (A)                 (A) (A) (A) (A) (A) (A) (A) (A) (A) (A) (A) (A)                 (A)       Virtual   (A) (A) (A) (A) (A) (A) (A) (A) (A) (A) (A) (A)                 (A) (A) (A) (A) (A) (A) (A) (A) (A) (A) (A) (A)                 (A) (A) (A) (A) (A) (A) (A) (A) (A) (A) (A) (A)                 (A) (A) (A) (A) (A) (A) (A) (A) (A) (A) (A) (A)                 (A) (A) (A) (A) (A) (A) (A) (A) (A) (A) (A) (A)                 (A) (A) (A) (A) (A) (A) (A) (A) (A) (A) (A) (A)                 (A) (A) (A) (A) (A) (A) (A) (A) (A) (A) (A) (A)                 (A) (A) (A) (A) (A) (A) (A) (A) (A) (A) (A) (A)                 (A) (A) (A) (A) (A) (A) (A) (A) (A) (A) (A) (A)                 (A) (A) (A) (A) (A) (A) (A) (A) (A) (A) (A) (A)                 (A) (A) (A) (A) (A) (A) (A) (A) (A) (A) (A) (A)                 (A) (A) (A) (A) (A) (A) (A) (A) (A) (A) (A) (A)                 (A) (A) (A) (A) (A) (A) (A) (A) (A) (A) (A) (A)                 (A) (A) (A) (A) (A) (A) (A) (A) (A) The electronic state of the initial guess is 1-A. Generating alternative initial guess. Harris functional with IExCor=  402 diagonalized for initial guess. ExpMin= 4.38D-02 ExpMax= 8.59D+03 ExpMxC= 1.30D+03 IAcc=2 IRadAn=         4 AccDes= 0.00D+00 HarFok:  IExCor= 402 AccDes= 0.00D+00 IRadAn=         4 IDoV=1 ScaDFX=  1.000000  1.000000  1.000000  1.000000 Harris En= -307.683941865695    <module cmlx:lineCount="153" cmlx:templateRef="l502"><list cmlx:templateRef="l502.type"><scalar dataType="xsd:string" dictRef="g:l502.type">Closed</scalar></list> Requested convergence on RMS density matrix=1.00D-08 within 128 cycles. Requested convergence on MAX density matrix=1.00D-06. Requested convergence on             energy=1.00D-06. No special actions if energy rises. Using DIIS extrapolation, IDIIS=  1040. Integral symmetry usage will be decided dynamically.       111505 words used for storage of precomputed grid. IEnd=    266795 IEndB=    266795 NGot=   6291456 MDV=   6080308 LenX=   6080308 Fock matrices will be formed incrementally for  20 cycles.<module cmlx:lineCount="136" cmlx:templateRef="l502.cycle"><list cmlx:templateRef="cycle"><list><scalar dataType="xsd:integer" dictRef="cc:cycle">1</scalar><scalar dataType="xsd:integer" dictRef="g:pass">1</scalar><scalar dataType="xsd:integer" dictRef="g:idiag">1</scalar></list></list><module cmlx:lineCount="1" cmlx:templateRef="l502.e"><list cmlx:templateRef="l502.e"><scalar dataType="xsd:double" dictRef="g:l502.e">-307.558592296985</scalar></list></module> Cycle   2  Pass 1  IDiag  1:<module cmlx:lineCount="1" cmlx:templateRef="l502.ediff"><list cmlx:templateRef="l502.ediff"><list><scalar dataType="xsd:double" dictRef="g:l502.e">-307.558622529078</scalar><scalar dataType="xsd:double" dictRef="g:l502.deltae">-3.0232093E-5</scalar></list></list></module> Cycle   3  Pass 1  IDiag  1:<module cmlx:lineCount="1" cmlx:templateRef="l502.ediff"><list cmlx:templateRef="l502.ediff"><list><scalar dataType="xsd:double" dictRef="g:l502.e">-307.558623514143</scalar><scalar dataType="xsd:double" dictRef="g:l502.deltae">-9.85065E-7</scalar></list></list></module> Cycle   4  Pass 1  IDiag  1:<module cmlx:lineCount="1" cmlx:templateRef="l502.ediff"><list cmlx:templateRef="l502.ediff"><list><scalar dataType="xsd:double" dictRef="g:l502.e">-307.558626189632</scalar><scalar dataType="xsd:double" dictRef="g:l502.deltae">-2.675489E-6</scalar></list></list></module> Cycle   5  Pass 1  IDiag  1:<module cmlx:lineCount="1" cmlx:templateRef="l502.ediff"><list cmlx:templateRef="l502.ediff"><list><scalar dataType="xsd:double" dictRef="g:l502.e">-307.558626269823</scalar><scalar dataType="xsd:double" dictRef="g:l502.deltae">-8.0191E-8</scalar></list></list></module> Cycle   6  Pass 1  IDiag  1:<module cmlx:lineCount="1" cmlx:templateRef="l502.ediff"><list cmlx:templateRef="l502.ediff"><list><scalar dataType="xsd:double" dictRef="g:l502.e">-307.558626278986</scalar><scalar dataType="xsd:double" dictRef="g:l502.deltae">-9.163E-9</scalar></list></list></module> Cycle   7  Pass 1  IDiag  1:                    CP:  8.91D-01<module cmlx:lineCount="1" cmlx:templateRef="l502.ediff"><list cmlx:templateRef="l502.ediff"><list><scalar dataType="xsd:double" dictRef="g:l502.e">-307.558626279396</scalar><scalar dataType="xsd:double" dictRef="g:l502.deltae">-4.1E-10</scalar></list></list></module> Cycle   8  Pass 1  IDiag  1:                    CP:  8.94D-01  7.46D-01<module cmlx:lineCount="1" cmlx:templateRef="l502.ediff"><list cmlx:templateRef="l502.ediff"><list><scalar dataType="xsd:double" dictRef="g:l502.e">-307.558626279612</scalar><scalar dataType="xsd:double" dictRef="g:l502.deltae">-2.16E-10</scalar></list></list></module> Cycle   9  Pass 1  IDiag  1:                    CP:  8.99D-01  7.77D-01  9.98D-01<module cmlx:lineCount="1" cmlx:templateRef="l502.ediff"><list cmlx:templateRef="l502.ediff"><list><scalar dataType="xsd:double" dictRef="g:l502.e">-307.558626279614</scalar><scalar dataType="xsd:double" dictRef="g:l502.deltae">-1.0E-12</scalar></list></list></module> Cycle  10  Pass 1  IDiag  1:                    CP:  9.01D-01  7.78D-01  1.04D+00  6.99D-01<module cmlx:lineCount="1" cmlx:templateRef="l502.ediff"><list cmlx:templateRef="l502.ediff"><list><scalar dataType="xsd:double" dictRef="g:l502.e">-307.558626279594</scalar><scalar dataType="xsd:double" dictRef="g:l502.deltae">2.0E-11</scalar></list></list></module> RMSDP=1.39D-09 MaxDP=4.16D-08 DE= 1.97D-11 OVMax= 9.98D-08</module><module cmlx:lineCount="4" cmlx:templateRef="l502.footer"><list cmlx:templateRef="l502"><scalar dataType="xsd:string" dictRef="g:l502">SCF Done:  E(RB+HF-LYP) =  -307.558626280     A.U. after   10 cycles</scalar><scalar dataType="xsd:string" dictRef="g:l502">Convg  =    0.1386D-08             -V/T =  2.0042</scalar><scalar dataType="xsd:string" dictRef="g:l502">S**2   =   0.0000</scalar><scalar dataType="xsd:string" dictRef="g:l502">KE= 3.062666302647D+02 PE=-1.258740361302D+03 EE= 3.738241689999D+02</scalar></list></module></module><module cmlx:lineCount="1" cmlx:templateRef="l701"/> ... and contract with generalized density number  0.<module cmlx:lineCount="1" cmlx:templateRef="l702"/><module cmlx:lineCount="1" cmlx:templateRef="l701"/> Integral derivatives from FoFDir, PRISM(SPDF). Symmetry not used in FoFDir. MinBra= 0 MaxBra= 2 Meth= 1. IRaf=       0 NMat=   1 IRICut=       1 DoRegI=T DoRafI=F ISym2E= 0 JSym2E=0.<module cmlx:lineCount="2" cmlx:templateRef="l716.dipole"><array dataType="xsd:double" size="3" dictRef="x:d" cmlx:templateRef="dipole">0.033313626 0.54340148 3.4594821E-4</array> ***** Axes restored to original set *****</module> ------------------------------------------------------------------- Center     Atomic                   Forces (Hartrees/Bohr) Number     Number              X              Y              Z -------------------------------------------------------------------    1          6           0.000051463    0.000000800    0.000153893    2          6           0.000229196   -0.000000800   -0.000064784    3          6          -0.000219131    0.000001038   -0.000147300    4          6           0.000626662    0.000002152   -0.000614835    5          6          -0.001647252   -0.000003372    0.000587081    6          6           0.000368749   -0.000000071   -0.000187020    7          1           0.000049484    0.000001254    0.000032938    8          1           0.000046903   -0.000001648   -0.000029877    9          1           0.000009979    0.000000751   -0.000071045   10          1          -0.000132672   -0.000000038    0.000044045   11          8           0.000973472   -0.000003119   -0.000069877   12          1          -0.000022247   -0.000000631    0.000160532   13          1          -0.000334607    0.000003683    0.000206250 ------------------------------------------------------------------- Cartesian Forces:  Max     0.001647252 RMS     0.000369241<module cmlx:lineCount="91" cmlx:templateRef="l103"><list cmlx:templateRef="berny"><scalar dataType="xsd:string" dictRef="g:optimization">Internal  Forces:  Max     0.000682834 RMS     0.000188830</scalar></list> Search for a local minimum. Step number   2 out of a maximum of  68 All quantities printed in internal units (Hartrees-Bohrs-Radians) Update second derivatives using D2CorX and points  1  2<module cmlx:lineCount="1" cmlx:templateRef="l103.trust"> Trust test= 9.37D-01 RLast= 1.98D-02 DXMaxT set to 3.00D-01</module>     Eigenvalues ---    0.02161   0.02166   0.02170   0.02185   0.02197     Eigenvalues ---    0.02201   0.02210   0.02213   0.02217   0.02227     Eigenvalues ---    0.15886   0.16000   0.16000   0.16000   0.16000     Eigenvalues ---    0.17149   0.21990   0.22001   0.22647   0.25076     Eigenvalues ---    0.35247   0.35493   0.35503   0.35613   0.35654     Eigenvalues ---    0.41535   0.42675   0.46416   0.46724   0.47165     Eigenvalues ---    0.49683   0.52249   0.557611000.000001000.00000     Eigenvalues --- 1000.000001000.000001000.000001000.000001000.00000     Eigenvalues --- 1000.000001000.000001000.000001000.000001000.00000     Eigenvalues --- 1000.000001000.000001000.000001000.000001000.00000     Eigenvalues --- 1000.000001000.000001000.000001000.000001000.00000     Eigenvalues --- 1000.000001000.000001000.00000<module cmlx:lineCount="4" cmlx:templateRef="rfo"> Quartic linear search produced a step of -0.05547. Iteration  1 RMS(Cart)=  0.00084045 RMS(Int)=  0.00000092 Iteration  2 RMS(Cart)=  0.00000098 RMS(Int)=  0.00000009</module><module cmlx:lineCount="60" cmlx:templateRef="l103.deltas"><list cmlx:lineCount="58" cmlx:templateRef="delta"><array dataType="xsd:string" dictRef="cc:variable" size="58">R1 R2 R3 R4 R5 R6 R7 R8 R9 R10 R11 R12 R13 A1 A2 A3 A4 A5 A6 A7 A8 A9 A10 A11 A12 A13 A14 A15 A16 A17 A18 A19 D1 D2 D3 D4 D5 D6 D7 D8 D9 D10 D11 D12 D13 D14 D15 D16 D17 D18 D19 D20 D21 D22 D23 D24 D25 D26</array><array dataType="xsd:double" dictRef="g:lastval" size="58">2.63244 2.6348 2.04913 2.63844 2.04739 2.62847 2.04926 2.63953 2.04753 2.63901 2.58651 2.05337 1.81957 2.10349 2.0974 2.0823 2.08142 2.10055 2.10122 2.1075 2.09396 2.08172 2.08829 2.11966 2.07524 2.09472 2.04913 2.13933 2.09095 2.09806 2.09417 1.91938 -5.0E-5 3.14154 3.14155 -4.0E-5 3.0E-5 -3.14155 -3.14157 4.0E-5 2.0E-5 -3.14155 -3.14157 4.0E-5 2.0E-5 -3.14158 3.14159 0.0 -4.0E-5 3.14156 3.14156 -3.0E-5 1.0E-5 3.14159 -3.14158 -1.0E-5 3.14097 -6.2E-4</array><array dataType="xsd:double" dictRef="cc:deriv" size="58">-2.0E-4 -1.4E-4 -6.0E-5 -2.4E-4 -6.0E-5 -6.0E-5 -7.0E-5 -6.8E-4 -1.0E-4 -4.2E-4 5.0E-4 -1.6E-4 -1.6E-4 -6.0E-5 3.0E-5 3.0E-5 4.0E-5 -2.0E-5 -1.0E-5 1.0E-5 1.0E-5 -1.0E-5 -2.3E-4 1.0E-5 2.2E-4 4.4E-4 -4.4E-4 0.0 -1.9E-4 8.0E-5 1.2E-4 -6.5E-4 0.0 0.0 0.0 0.0 0.0 0.0 0.0 0.0 0.0 0.0 0.0 0.0 0.0 0.0 0.0 0.0 0.0 0.0 0.0 0.0 0.0 0.0 0.0 0.0 0.0 0.0</array><array dataType="xsd:double" dictRef="cc:delta.linear" size="58">-3.5E-4 -3.5E-4 -2.0E-5 -3.3E-4 -2.0E-5 -3.5E-4 -2.0E-5 -2.1E-4 -4.0E-5 -2.2E-4 -4.8E-4 -3.0E-5 -1.2E-4 1.0E-5 -2.0E-5 1.0E-5 0.0 0.0 0.0 1.0E-5 0.0 0.0 6.0E-5 7.0E-5 -1.4E-4 -1.4E-4 3.0E-5 1.1E-4 7.0E-5 -2.0E-5 -5.0E-5 -5.8E-4 1.0E-5 -1.0E-5 0.0 -1.0E-5 0.0 0.0 0.0 0.0 -1.0E-5 0.0 1.0E-5 1.0E-5 0.0 0.0 0.0 0.0 0.0 0.0 0.0 -1.0E-5 0.0 -1.0E-5 1.0E-5 0.0 0.0 -1.0E-5</array><array dataType="xsd:double" dictRef="cc:delta.quad" size="58">2.2E-4 3.1E-4 -1.2E-4 1.0E-4 -1.1E-4 4.7E-4 -1.5E-4 -0.00105 -1.8E-4 -4.9E-4 0.00173 -3.8E-4 -7.0E-5 -1.8E-4 1.1E-4 7.0E-5 2.8E-4 -1.7E-4 -1.1E-4 8.0E-5 2.0E-5 -1.0E-4 -0.00111 -2.5E-4 0.00136 0.00187 -0.0017 -1.7E-4 -9.4E-4 3.1E-4 6.3E-4 -0.00287 3.0E-5 5.0E-5 4.0E-5 5.0E-5 -1.0E-5 -2.0E-5 -1.0E-5 -2.0E-5 -3.0E-5 -3.0E-5 -4.0E-5 -5.0E-5 0.0 0.0 0.0 0.0 3.0E-5 -1.0E-5 3.0E-5 -2.0E-5 -3.0E-5 -1.0E-5 2.0E-5 3.0E-5 1.7E-4 1.3E-4</array><array dataType="xsd:double" dictRef="cc:delta.total" size="58">-1.3E-4 -3.0E-5 -1.4E-4 -2.3E-4 -1.3E-4 1.2E-4 -1.7E-4 -0.00126 -2.2E-4 -7.1E-4 0.00126 -4.1E-4 -1.9E-4 -1.7E-4 8.0E-5 8.0E-5 2.8E-4 -1.6E-4 -1.1E-4 9.0E-5 1.0E-5 -1.0E-4 -0.00105 -1.8E-4 0.00122 0.00173 -0.00166 -6.0E-5 -8.7E-4 2.9E-4 5.8E-4 -0.00344 4.0E-5 4.0E-5 4.0E-5 4.0E-5 -1.0E-5 -2.0E-5 -1.0E-5 -2.0E-5 -4.0E-5 -4.0E-5 -4.0E-5 -3.0E-5 0.0 0.0 0.0 0.0 3.0E-5 -2.0E-5 3.0E-5 -2.0E-5 -3.0E-5 -2.0E-5 3.0E-5 4.0E-5 1.7E-4 1.1E-4</array><array dataType="xsd:double" dictRef="cc:newval" size="58">2.63231 2.63477 2.04899 2.63821 2.04726 2.62859 2.04909 2.63828 2.04731 2.6383 2.58777 2.05296 1.81939 2.10332 2.09748 2.08238 2.08169 2.10038 2.10111 2.10759 2.09397 2.08162 2.08724 2.11948 2.07646 2.09645 2.04747 2.13927 2.09008 2.09836 2.09474 1.91593 0.0 3.14158 3.14159 -1.0E-5 2.0E-5 -3.14156 -3.14158 2.0E-5 -2.0E-5 -3.14159 3.14158 1.0E-5 2.0E-5 -3.14157 3.14159 0.0 0.0 3.14154 3.14159 -5.0E-5 -2.0E-5 3.14157 -3.14156 3.0E-5 3.14114 -5.0E-4</array></list></module><module cmlx:lineCount="5" cmlx:templateRef="l103.itemconverge"><list cmlx:lineCount="4" cmlx:templateRef="row"><array dataType="xsd:string" dictRef="g:item"/><array dataType="xsd:double" dictRef="g:value" size="4">4.5E-4 3.0E-4 0.0018 0.0012</array><array dataType="xsd:double" dictRef="g:threshold" size="4">0.0 0.0 0.0 0.0</array><array dataType="xsd:string" dictRef="g:converged" size="4">NO YES NO YES</array></list></module><module cmlx:lineCount="1" cmlx:templateRef="preddelta"><list cmlx:templateRef="predicted"><scalar dataType="xsd:double" dictRef="g:predchange">-3.271935E-6</scalar></list></module> GradGradGradGradGradGradGradGradGradGradGradGradGradGradGradGradGradGrad</module><module cmlx:lineCount="19" cmlx:templateRef="l202.orient"><molecule id="a13" cmlx:templateRef="atom"><atomArray><atom id="a1" elementType="C" x3="-0.003922" y3="1.0E-5" z3="-0.001003"><scalar dataType="xsd:integer" dictRef="cc:serial">1</scalar><scalar dataType="xsd:integer" dictRef="g:atomicType">0</scalar><scalar dataType="xsd:integer" dictRef="compchem:atomicNumber">6</scalar></atom><atom id="a2" elementType="C" x3="-0.003089" y3="7.8E-5" z3="1.391956"><scalar dataType="xsd:integer" dictRef="cc:serial">2</scalar><scalar dataType="xsd:integer" dictRef="g:atomicType">0</scalar><scalar dataType="xsd:integer" dictRef="compchem:atomicNumber">6</scalar></atom><atom id="a3" elementType="C" x3="1.215131" y3="0.0" z3="2.073853"><scalar dataType="xsd:integer" dictRef="cc:serial">3</scalar><scalar dataType="xsd:integer" dictRef="g:atomicType">0</scalar><scalar dataType="xsd:integer" dictRef="compchem:atomicNumber">6</scalar></atom><atom id="a4" elementType="C" x3="2.41969" y3="-1.62E-4" z3="1.378228"><scalar dataType="xsd:integer" dictRef="cc:serial">4</scalar><scalar dataType="xsd:integer" dictRef="g:atomicType">0</scalar><scalar dataType="xsd:integer" dictRef="compchem:atomicNumber">6</scalar></atom><atom id="a5" elementType="C" x3="2.409549" y3="-2.25E-4" z3="-0.017851"><scalar dataType="xsd:integer" dictRef="cc:serial">5</scalar><scalar dataType="xsd:integer" dictRef="g:atomicType">0</scalar><scalar dataType="xsd:integer" dictRef="compchem:atomicNumber">6</scalar></atom><atom id="a6" elementType="C" x3="1.196846" y3="-1.3E-4" z3="-0.709601"><scalar dataType="xsd:integer" dictRef="cc:serial">6</scalar><scalar dataType="xsd:integer" dictRef="g:atomicType">0</scalar><scalar dataType="xsd:integer" dictRef="compchem:atomicNumber">6</scalar></atom><atom id="a7" elementType="H" x3="-0.941581" y3="6.8E-5" z3="-0.545478"><scalar dataType="xsd:integer" dictRef="cc:serial">7</scalar><scalar dataType="xsd:integer" dictRef="g:atomicType">0</scalar><scalar dataType="xsd:integer" dictRef="compchem:atomicNumber">1</scalar></atom><atom id="a8" elementType="H" x3="-0.937722" y3="1.95E-4" z3="1.939807"><scalar dataType="xsd:integer" dictRef="cc:serial">8</scalar><scalar dataType="xsd:integer" dictRef="g:atomicType">0</scalar><scalar dataType="xsd:integer" dictRef="compchem:atomicNumber">1</scalar></atom><atom id="a9" elementType="H" x3="1.229097" y3="4.6E-5" z3="3.158094"><scalar dataType="xsd:integer" dictRef="cc:serial">9</scalar><scalar dataType="xsd:integer" dictRef="g:atomicType">0</scalar><scalar dataType="xsd:integer" dictRef="compchem:atomicNumber">1</scalar></atom><atom id="a10" elementType="H" x3="3.371281" y3="-2.43E-4" z3="1.896115"><scalar dataType="xsd:integer" dictRef="cc:serial">10</scalar><scalar dataType="xsd:integer" dictRef="g:atomicType">0</scalar><scalar dataType="xsd:integer" dictRef="compchem:atomicNumber">1</scalar></atom><atom id="a11" elementType="O" x3="3.62169" y3="-3.21E-4" z3="-0.654983"><scalar dataType="xsd:integer" dictRef="cc:serial">11</scalar><scalar dataType="xsd:integer" dictRef="g:atomicType">0</scalar><scalar dataType="xsd:integer" dictRef="compchem:atomicNumber">8</scalar></atom><atom id="a12" elementType="H" x3="1.190802" y3="-1.56E-4" z3="-1.795964"><scalar dataType="xsd:integer" dictRef="cc:serial">12</scalar><scalar dataType="xsd:integer" dictRef="g:atomicType">0</scalar><scalar dataType="xsd:integer" dictRef="compchem:atomicNumber">1</scalar></atom><atom id="a13" elementType="H" x3="3.488485" y3="-7.67E-4" z3="-1.608501"><scalar dataType="xsd:integer" dictRef="cc:serial">13</scalar><scalar dataType="xsd:integer" dictRef="g:atomicType">0</scalar><scalar dataType="xsd:integer" dictRef="compchem:atomicNumber">1</scalar></atom></atomArray><formula formalCharge="0" concise="C 6 H 6 O 1"><atomArray elementType="C H O" count="6.0 6.0 1.0"/></formula><bondArray><bond atomRefs2="a1 a2" id="a1_a2" order="2"/><bond atomRefs2="a1 a6" id="a1_a6" order="S"/><bond atomRefs2="a1 a7" id="a1_a7" order="S"/><bond atomRefs2="a2 a3" id="a2_a3" order="S"/><bond atomRefs2="a2 a8" id="a2_a8" order="S"/><bond atomRefs2="a3 a4" id="a3_a4" order="2"/><bond atomRefs2="a3 a9" id="a3_a9" order="S"/><bond atomRefs2="a4 a5" id="a4_a5" order="S"/><bond atomRefs2="a4 a10" id="a4_a10" order="S"/><bond atomRefs2="a5 a6" id="a5_a6" order="2"/><bond atomRefs2="a5 a11" id="a5_a11" order="S"/><bond atomRefs2="a6 a12" id="a6_a12" order="S"/><bond atomRefs2="a11 a13" id="a11_a13" order="S"/></bondArray><property dictRef="cml:molmass"><scalar dataType="xsd:double" units="unit:dalton" xmlns:unit="http://www.xml-cml.org/unit/si/">94.11124</scalar></property></molecule></module><module cmlx:lineCount="28" cmlx:templateRef="l202.distmat"><array dataType="xsd:double" size="85" dictRef="cc:distance">0.0 1.39296 0.0 2.406475 1.396081 0.0 2.788579 2.422817 1.390991 0.0 2.41353 2.794347 2.408705 1.396115 0.0 1.394258 2.419997 2.783514 2.419582 1.396126 0.0 1.084277 2.15277 3.392978 3.872827 3.392413 2.144716 0.0 2.15377 1.083365 2.157022 3.404054 3.877711 3.402314 2.485288 0.0 3.391199 2.153491 1.084331 2.141362 3.388228 3.867829 4.292818 2.485826 0.0 3.871829 3.411825 2.163464 1.08339 2.142007 3.393806 4.956022 4.309225 2.486271 0.0 3.684122 4.162809 3.638416 2.361938 1.369388 2.425459 4.564585 5.246062 4.501561 2.563357 2.156212 3.404146 3.869893 3.403771 2.155697 1.08638 2.471998 4.299604 4.954205 4.287882 3.844601 4.603675 4.327571 3.172203 1.922049 2.461632 4.555821 5.6729 5.274965 3.506574</array></module><module cmlx:lineCount="6" cmlx:templateRef="l202.stoich"><scalar dataType="xsd:string" dictRef="cc:formula" cmlx:templateRef="stoich">C6H6O</scalar><scalar dataType="xsd:string" dictRef="cc:frameworkgroup" cmlx:templateRef="framework">C1[X(C6H6O)]</scalar><scalar dataType="xsd:integer" dictRef="cc:degfreedom" cmlx:templateRef="degfreedom">33</scalar><scalar dataType="xsd:string" dictRef="cc:pointgroup">C1</scalar><scalar dataType="xsd:integer" dictRef="cc:operatorcount">1</scalar><scalar dataType="xsd:string" dictRef="cc:largestabelian">C1</scalar><scalar dataType="xsd:integer" dictRef="cc:operatorcount">1</scalar><scalar dataType="xsd:string" dictRef="cc:largestconciseabelian">C1</scalar><scalar dataType="xsd:integer" dictRef="cc:operatorcount">1</scalar></module><module cmlx:lineCount="19" cmlx:templateRef="l202.orient"><molecule id="a13" cmlx:templateRef="atom"><atomArray><atom id="a1" elementType="C" x3="1.131456" y3="1.217204" z3="0.0"><scalar dataType="xsd:integer" dictRef="cc:serial">1</scalar><scalar dataType="xsd:integer" dictRef="g:atomicType">0</scalar><scalar dataType="xsd:integer" dictRef="compchem:atomicNumber">6</scalar></atom><atom id="a2" elementType="C" x3="1.855365" y3="0.027124" z3="3.0E-6"><scalar dataType="xsd:integer" dictRef="cc:serial">2</scalar><scalar dataType="xsd:integer" dictRef="g:atomicType">0</scalar><scalar dataType="xsd:integer" dictRef="compchem:atomicNumber">6</scalar></atom><atom id="a3" elementType="C" x3="1.169679" y3="-1.188967" z3="0.0"><scalar dataType="xsd:integer" dictRef="cc:serial">3</scalar><scalar dataType="xsd:integer" dictRef="g:atomicType">0</scalar><scalar dataType="xsd:integer" dictRef="compchem:atomicNumber">6</scalar></atom><atom id="a4" elementType="C" x3="-0.220932" y3="-1.221489" z3="1.1E-5"><scalar dataType="xsd:integer" dictRef="cc:serial">4</scalar><sc
[...]
1.0E-5 0.0 -1.2E-4 1.1E-4 1.8E-4 -1.3E-4 -5.0E-5 -1.1E-4 -6.0E-5 1.7E-4 -2.6E-4 -5.0E-5 3.1E-4 5.4E-4 -1.7E-4 -3.7E-4 -3.5E-4 1.0E-4 2.5E-4 -5.1E-4 0.0 1.0E-5 0.0 1.0E-5 -2.0E-5 -3.0E-5 -2.0E-5 -2.0E-5 2.0E-5 -1.0E-5 1.0E-5 -1.0E-5 -2.0E-5 -2.0E-5 0.0 0.0 0.0 5.0E-5 1.0E-5 5.0E-5 2.0E-5 2.0E-5 -4.0E-5 -3.0E-5 4.5E-4 5.0E-4</array><array dataType="xsd:double" dictRef="cc:newval" size="58">2.63209 2.63469 2.04897 2.63786 2.04727 2.62865 2.04908 2.63782 2.04715 2.63786 2.58901 2.05283 1.81938 2.10333 2.09737 2.08249 2.08187 2.10026 2.10106 2.10748 2.09392 2.08179 2.08698 2.11943 2.07677 2.09698 2.0473 2.1389 2.08974 2.09845 2.095 1.91543 0.0 -3.14159 -3.14159 0.0 0.0 -3.14159 3.14159 0.0 0.0 3.14159 3.14159 0.0 0.0 -3.14159 -3.14159 0.0 0.0 3.14159 3.14159 0.0 0.0 3.14159 -3.14159 0.0 3.14159 0.0</array></list></module><module cmlx:lineCount="5" cmlx:templateRef="l103.itemconverge"><list cmlx:lineCount="4" cmlx:templateRef="row"><array dataType="xsd:string" dictRef="g:item"/><array dataType="xsd:double" dictRef="g:value" size="4">4.5E-4 3.0E-4 0.0018 0.0012</array><array dataType="xsd:double" dictRef="g:threshold" size="4">0.0 0.0 0.0 0.0</array><array dataType="xsd:string" dictRef="g:converged" size="4">YES YES YES YES</array></list></module><module cmlx:lineCount="1" cmlx:templateRef="preddelta"><list cmlx:templateRef="predicted"><scalar dataType="xsd:double" dictRef="g:predchange">-4.364747E-7</scalar></list></module><module cmlx:lineCount="66" cmlx:templateRef="l103.optimizedparam"><list cmlx:templateRef="completed"><scalar dataType="xsd:string" dictRef="g:optimization">Optimization completed.</scalar><scalar dataType="xsd:string" dictRef="g:optimization">-- Stationary point found.</scalar></list><list cmlx:templateRef="length"><array dataType="xsd:string" size="13" dictRef="g:symbol">R1 R2 R3 R4 R5 R6 R7 R8 R9 R10 R11 R12 R13</array><array dataType="xsd:integer" size="13" dictRef="g:atom1">1 1 1 2 2 3 3 4 4 5 5 6 11</array><array dataType="xsd:integer" size="13" dictRef="g:atom2">2 6 7 3 8 4 9 5 10 6 11 12 13</array><array dataType="xsd:double" size="13" dictRef="cc:distance">1.393 1.3943 1.0843 1.3961 1.0834 1.391 1.0843 1.3961 1.0834 1.3961 1.3694 1.0864 0.9628</array><array delimiter="|" dataType="xsd:string" size="13" dictRef="g:deriv">|-DE/DX =   -0.0001|-DE/DX =   -0.0001|-DE/DX =    0.0|-DE/DX =   -0.0002|-DE/DX =    0.0|-DE/DX =    0.0|-DE/DX =    0.0|-DE/DX =   -0.0001|-DE/DX =    0.0|-DE/DX =   -0.0002|-DE/DX =    0.0004|-DE/DX =    0.0|-DE/DX =    0.0|</array></list><list cmlx:templateRef="angle"><array dataType="xsd:string" size="19" dictRef="g:symbol">A1 A2 A3 A4 A5 A6 A7 A8 A9 A10 A11 A12 A13 A14 A15 A16 A17 A18 A19</array><array dataType="xsd:integer" size="19" dictRef="g:atom1">2 2 6 1 1 3 2 2 4 3 3 5 4 4 6 1 1 5 5</array><array dataType="xsd:integer" size="19" dictRef="g:atom2">1 1 1 2 2 2 3 3 3 4 4 4 5 5 5 6 6 6 11</array><array dataType="xsd:integer" size="19" dictRef="g:atom3">6 7 7 3 8 8 4 9 9 5 10 10 6 11 11 5 12 12 13</array><array dataType="xsd:double" size="19" dictRef="cc:angle">120.5114 120.1769 119.3116 119.2722 120.3431 120.3847 120.756 119.9759 119.2682 119.59 121.4374 118.9726 120.1175 117.3114 122.5711 119.753 120.227 120.02 109.7749</array><array delimiter="|" dataType="xsd:string" size="19" dictRef="g:deriv">|-DE/DX =    0.0|-DE/DX =    0.0|-DE/DX =    0.0|-DE/DX =    0.0|-DE/DX =    0.0|-DE/DX =    0.0|-DE/DX =    0.0|-DE/DX =    0.0|-DE/DX =    0.0|-DE/DX =    0.0|-DE/DX =    0.0|-DE/DX =    0.0|-DE/DX =    0.0001|-DE/DX =    0.0|-DE/DX =   -0.0001|-DE/DX =    0.0|-DE/DX =    0.0|-DE/DX =    0.0|-DE/DX =    0.0|</array></list><list cmlx:templateRef="dihed"><array dataType="xsd:string" size="25" dictRef="g:symbol">D1 D2 D3 D4 D5 D6 D7 D8 D9 D10 D11 D12 D13 D14 D15 D16 D17 D18 D19 D20 D21 D22 D23 D24 D25</array><array dataType="xsd:integer" size="25" dictRef="g:atom1">6 6 7 7 2 2 7 7 1 1 8 8 2 2 9 9 3 3 10 10 4 4 11 11 4</array><array dataType="xsd:integer" size="25" dictRef="g:atom2">1 1 1 1 1 1 1 1 2 2 2 2 3 3 3 3 4 4 4 4 5 5 5 5 5</array><array dataType="xsd:integer" size="25" dictRef="g:atom3">2 2 2 2 6 6 6 6 3 3 3 3 4 4 4 4 5 5 5 5 6 6 6 6 11</array><array dataType="xsd:integer" size="25" dictRef="g:atom4">3 8 3 8 5 12 5 12 4 9 4 9 5 10 5 10 6 11 6 11 1 12 1 12 13</array><array dataType="xsd:double" size="25" dictRef="cc:dihed">-2.0E-4 -180.0005 -180.0 -3.0E-4 0.0011 -179.9984 180.0009 0.0014 -9.0E-4 180.0004 179.9994 7.0E-4 0.0011 -179.9988 -180.0002 0.0 -2.0E-4 179.997 179.9996 -0.0031 -9.0E-4 179.9986 -179.998 0.0015 179.9741</array><array delimiter="|" dataType="xsd:string" size="25" dictRef="g:deriv">|-DE/DX =    0.0|-DE/DX =    0.0|-DE/DX =    0.0|-DE/DX =    0.0|-DE/DX =    0.0|-DE/DX =    0.0|-DE/DX =    0.0|-DE/DX =    0.0|-DE/DX =    0.0|-DE/DX =    0.0|-DE/DX =    0.0|-DE/DX =    0.0|-DE/DX =    0.0|-DE/DX =    0.0|-DE/DX =    0.0|-DE/DX =    0.0|-DE/DX =    0.0|-DE/DX =    0.0|-DE/DX =    0.0|-DE/DX =    0.0|-DE/DX =    0.0|-DE/DX =    0.0|-DE/DX =    0.0|-DE/DX =    0.0|-DE/DX =    0.0|</array></list> ! D26   D(6,5,11,13)           -0.0288         -DE/DX =    0.0                 !</module> -------------------------------------------------------------------------------- GradGradGradGradGradGradGradGradGradGradGradGradGradGradGradGradGradGrad</module><module cmlx:lineCount="165" cmlx:templateRef="l9999.archive"><scalar dataType="xsd:string" dictRef="cc:hostname">GINC-PUBLIX</scalar><scalar dataType="xsd:string" dictRef="g:operation">Freq</scalar><scalar dataType="xsd:string" dictRef="cc:method">RB3LYP</scalar><scalar dataType="xsd:string" dictRef="cc:basis">6-311+G(d,p)</scalar><scalar dataType="xsd:string" dictRef="cc:jobname">NOBODY</scalar><scalar dataType="xsd:date" dictRef="cc:date">2006-09-02T00:00:00Z</scalar><scalar dataType="xsd:string" dictRef="g:keyword">#P</scalar><scalar dataType="xsd:string" dictRef="g:keyword">GEOM=ALLCHECK</scalar><scalar dataType="xsd:string" dictRef="g:keyword">GUESS=READ</scalar><scalar dataType="xsd:string" dictRef="g:keyword">SCRF=CHECK</scalar><scalar dataType="xsd:string" dictRef="g:keyword">GENCHK</scalar><scalar dataType="xsd:string" dictRef="g:keyword">RB3LYP/6-311+G(D,P)</scalar><scalar dataType="xsd:string" dictRef="g:keyword">FREQ</scalar><scalar dataType="xsd:string" dictRef="cc:title">phenol basis2</scalar><molecule id="a13"><atomArray><atom id="a1" elementType="C" x3="-1.5995045613" y3="1.295318E-4" z3="-0.4509574602"><scalar dataType="xsd:integer" dictRef="compchem:atomicNumber">6</scalar></atom><atom id="a2" elementType="C" x3="-1.5986707037" y3="1.97726E-4" z3="0.9420018051"><scalar dataType="xsd:integer" dictRef="compchem:atomicNumber">6</scalar></atom><atom id="a3" elementType="C" x3="-0.3804512898" y3="1.202136E-4" z3="1.6238989431"><scalar dataType="xsd:integer" dictRef="compchem:atomicNumber">6</scalar></atom><atom id="a4" elementType="C" x3="0.8241076151" y3="-4.16133E-5" z3="0.9282738332"><scalar dataType="xsd:integer" dictRef="compchem:atomicNumber">6</scalar></atom><atom id="a5" elementType="C" x3="0.8139666504" y3="-1.045969E-4" z3="-0.4678046646"><scalar dataType="xsd:integer" dictRef="compchem:atomicNumber">6</scalar></atom><atom id="a6" elementType="C" x3="-0.3987363379" y3="-9.742E-6" z3="-1.1595549476"><scalar dataType="xsd:integer" dictRef="compchem:atomicNumber">6</scalar></atom><atom id="a7" elementType="H" x3="-2.537163444" y3="1.882255E-4" z3="-0.9954321129"><scalar dataType="xsd:integer" dictRef="compchem:atomicNumber">1</scalar></atom><atom id="a8" elementType="H" x3="-2.5333040869" y3="3.1457E-4" z3="1.4898526311"><scalar dataType="xsd:integer" dictRef="compchem:atomicNumber">1</scalar></atom><atom id="a9" elementType="H" x3="-0.3664847526" y3="1.657046E-4" z3="2.7081395196"><scalar dataType="xsd:integer" dictRef="compchem:atomicNumber">1</scalar></atom><atom id="a10" elementType="H" x3="1.7756991126" y3="-1.230725E-4" z3="1.4461604736"><scalar dataType="xsd:integer" dictRef="compchem:atomicNumber">1</scalar></atom><atom id="a11" elementType="O" x3="2.0261077834" y3="-2.013998E-4" z3="-1.1049366148"><scalar dataType="xsd:integer" dictRef="compchem:atomicNumber">8</scalar></atom><atom id="a12" elementType="H" x3="-0.4047798689" y3="-3.60111E-5" z3="-2.2459179165"><scalar dataType="xsd:integer" dictRef="compchem:atomicNumber">1</scalar></atom><atom id="a13" elementType="H" x3="1.8929025351" y3="-6.473335E-4" z3="-2.0584547298"><scalar dataType="xsd:integer" dictRef="compchem:atomicNumber">1</scalar></atom></atomArray><formula formalCharge="0" concise="C 6 H 6 O 1" dictRef="cc:formula.calc"/><bondArray><bond atomRefs2="a1 a2" id="a1_a2" order="2"/><bond atomRefs2="a1 a6" id="a1_a6" order="S"/><bond atomRefs2="a1 a7" id="a1_a7" order="S"/><bond atomRefs2="a2 a3" id="a2_a3" order="S"/><bond atomRefs2="a2 a8" id="a2_a8" order="S"/><bond atomRefs2="a3 a4" id="a3_a4" order="2"/><bond atomRefs2="a3 a9" id="a3_a9" order="S"/><bond atomRefs2="a4 a5" id="a4_a5" order="S"/><bond atomRefs2="a4 a10" id="a4_a10" order="S"/><bond atomRefs2="a5 a6" id="a5_a6" order="2"/><bond atomRefs2="a5 a11" id="a5_a11" order="S"/><bond atomRefs2="a6 a12" id="a6_a12" order="S"/><bond atomRefs2="a11 a13" id="a11_a13" order="S"/></bondArray><property dictRef="cml:molmass"><scalar dataType="xsd:double" units="unit:dalton" xmlns:unit="http://www.xml-cml.org/unit/si/">94.11124</scalar></property><formula concise="C 6 H 6 O 1" dictRef="cc:formula.user"/></molecule><scalar dataType="xsd:string" dictRef="cc:version">Sun64-SVR4-Unix-G03RevB.04</scalar><scalar dataType="xsd:string" dictRef="cc:electronicstate">1-A</scalar><scalar dataType="xsd:double" dictRef="cc:hfenergy" units="nonsi:hartree">-307.5586302</scalar><scalar dataType="xsd:double" dictRef="cc:rmsd" units="nonsi:unknown">2.655E-9</scalar><scalar dataType="xsd:double" dictRef="cc:rmsf" units="nonsi:unknown">1.364E-4</scalar><array dataType="xsd:double" size="3" dictRef="cc:dipole" units="nonsi:debye">-0.3145976 -2.544E-4 -0.4446092</array><array dataType="xsd:double" size="117" dictRef="cc:dipolederiv" units="nonsi:unknown">0.1088296 -2.81E-5 -0.0875291 -2.28E-5 -0.134096 1.47E-5 0.0457093 1.77E-5 0.1760139 -0.0859452 -1.32E-5 -0.0790948 -1.7E-5 -0.1682035 1.85E-5 -0.1044039 7.4E-6 -0.1809189 0.1940122 -2.58E-5 0.0544981 -2.99E-5 -0.1327878 4.8E-6 -0.0345896 1.5E-5 0.1276491 -0.0993029 -2.7E-6 0.0308166 4.16E-5 -0.1597637 -3.02E-5 0.3385151 -2.95E-5 -0.1769965 1.1609308 -1.405E-4 -0.6364716 -1.189E-4 0.0750957 2.57E-5 -0.6706619 4.8E-5 0.4908313 -0.3247365 2.64E-5 0.2396744 2.4E-6 -0.1745727 7.4E-6 -0.1022936 -1.0E-7 0.0295547 -0.0595621 1.51E-5 -0.0721968 1.54E-5 0.1380433 -6.8E-6 -0.0775601 2.1E-6 0.0266636 -0.0605091 2.39E-5 0.0729095 2.36E-5 0.1521195 -1.67E-5 0.073819 -1.36E-5 0.021313 0.0724049 7.2E-6 -0.002613 3.7E-6 0.1365256 -9.2E-6 -9.567E-4 -1.17E-5 -0.1022512 -0.0340055 1.76E-5 -0.0540523 1.93E-5 0.1528944 1.0E-6 -0.0553513 3.1E-6 0.0500885 -1.203105 1.715E-4 0.6381335 6.16E-5 -0.3720869 1.069E-4 0.6475014 1.88E-5 -0.5728225 0.0545875 1.63E-5 0.0361718 9.6E-6 0.1540226 -8.6E-6 0.0331727 -1.39E-5 -0.1208745 0.2764012 -6.78E-5 -0.1402464 1.14E-5 0.3328094 -1.078E-4 -0.0929003 -4.32E-5 0.2317497</array><array dataType="xsd:double" size="6" dictRef="cc:polarizability" units="nonsi:unknown">86.7440731 -0.0046223 43.3076107 -4.4602027 0.0031085 84.6795848</array><scalar dataType="xsd:string" dictRef="cc:pointgroup">C01 [X(C6H6O1)]</scalar><array dataType="xsd:double" size="780" dictRef="x:unknown">0.71104703 -5.101E-5 0.13156817 0.0344877 2.297E-5 0.67831256 -0.12598834 7.35E-6 0.03137194 0.71423197 4.79E-6 -0.06030263 -1.672E-5 -5.729E-5 0.12526047 -0.03121392 -1.093E-5 -0.33175508 -0.04163835 3.179E-5 0.67420124 0.03040254 -5.51E-6 -0.07731627 -0.2779482 1.659E-5 -0.0534066 0.65893796 -3.71E-6 0.00561161 6.32E-6 1.383E-5 -0.06096661 -1.12E-6 -5.132E-5 0.13490266 -0.02921277 8.5E-7 -0.02901026 -0.11589892 5.26E-6 -0.17394997 -0.00235489 2.89E-5 0.73341341 -0.01578367 2.67E-6 0.02790418 -0.0571828 5.37E-6 -0.02003854 -0.2897231 3.011E-5 0.12342522 0.74187622 2.49E-6 -0.00140676 -6.17E-6 8.69E-6 0.00614397 5.35E-6 2.65E-5 -0.05633808 -1.757E-5 -6.581E-5 0.12232655 0.02498553 -4.16E-6 -0.05059764 0.02496651 -1.1E-7 0.06152041 0.06171309 -1.213E-5 -0.18150057 0.01916522 2.185E-5 0.67333231 -0.06006457 7.23E-6 0.02758746 -0.01509552 -5.8E-7 -0.03467692 0.03659092 -2.56E-6 0.03174743 -0.12452746 6.27E-6 0.0150908 0.66611075 4.9E-6 -9.672E-4 -1.25E-6 4.7E-7 -0.00320688 1.67E-6 -6.5E-7 -3.5991E-4 -4.28E-6 2.94E-6 -0.06520851 -1.451E-5 -4.333E-5 0.15088372 -0.02539151 5.7E-6 0.07213327 -0.03461962 7.7E-7 -0.05653543 0.0836752 -9.35E-6 -0.02529366 -0.05669662 -7.26E-6 -0.31001612 0.00960861 4.148E-5 0.69996717 -0.27994609 2.392E-5 0.06034353 0.02978172 9.4E-7 0.07477459 -0.06452357 6.2E-6 -0.00301323 0.03034354 -5.78E-6 -0.06768722 -0.25169716 1.609E-5 -0.04693587 0.66329514 2.553E-5 -0.05446028 -8.83E-6 -1.72E-6 0.00607975 -8.95E-6 6.83E-6 -0.00215136 -2.0E-7 -3.79E-6 0.00543359 6.44E-6 1.497E-5 -0.06146065 -2.48E-6 -5.11E-5 0.11600585 0.12224442 -1.685E-5 -0.17838596 0.02812537 -4.14E-6 -0.02810597 0.00174286 -3.4E-7 -0.00206096 -0.02637912 2.75E-6 -0.02166972 -0.12384387 6.14E-6 -0.1877033 -0.01244483 1.973E-5 0.72696171 -0.26546145 1.509E-5 -0.11979424 0.0035637 1.3E-7 0.00203816 0.00176857 5.2E-7 2.4358E-4 2.0196E-4 -1.2E-7 7.6293E-4 -0.00180194 8.3E-7 0.00396516 -0.01898473 1.54E-6 -0.01543752 0.28071262 1.485E-5 -0.03628959 6.66E-6 -1.43E-6 0.00355669 -1.17E-6 7.7E-7 0.00693985 -6.0E-7 -1.2E-7 -0.00113025 5.0E-8 9.9E-7 0.00735537 -8.7E-7 2.99E-6 0.00309071 1.91E-6 -1.715E-5 0.02518568 -0.12008848 6.58E-6 -0.12859687 -0.02883785 1.96E-6 -0.00976065 0.00107869 -6.9E-7 -0.00589363 9.2941E-4 -5.0E-8 -5.9112E-4 0.00318637 -6.3E-7 -9.8857E-4 0.01524389 -1.21E-6 0.01104494 0.12905912 -6.52E-6 0.13303408 0.00379242 -3.5E-7 -0.00257894 -0.26576659 2.822E-5 0.1217084 -0.01849954 2.73E-6 0.01621424 -0.00277524 6.9E-7 -0.00392037 9.074E-5 -1.4E-7 -0.00112132 0.00169108 4.8E-7 -5.3465E-4 6.9359E-4 -4.3E-7 4.4949E-4 0.28066539 1.26E-6 0.00178967 -5.4E-7 2.845E-5 -0.03293761 -1.655E-5 9.5E-7 0.00177454 -9.9E-7 9.1E-7 0.00644489 -1.0E-7 -1.1E-7 -3.9172E-4 2.0E-8 1.6E-7 0.00668354 -3.8E-7 -4.8E-7 -0.00400966 2.2E-7 -3.091E-5 0.02446363 0.02876131 -3.43E-6 -0.01108814 0.12161287 -1.652E-5 -0.12952357 -0.01505778 1.87E-6 0.01146973 -0.00302877 -5.0E-8 -8.2071E-4 -9.6153E-4 7.0E-8 -0.00112395 -0.00139106 -4.6E-7 -0.00511408 -3.9943E-4 3.0E-7 0.00101118 -0.13079031 1.805E-5 0.13434298 -0.00459627 8.8E-7 -0.00258231 0.00472669 -1.35E-6 -0.02809555 -0.0591296 1.99E-6 -0.00390418 0.00409353 1.06E-6 0.02828076 -0.00410843 1.16E-6 0.00188218 -0.0011525 1.3E-7 2.4522E-4 2.598E-5 -6.0E-8 -0.00141855 9.115E-4 -4.2E-7 5.8228E-4 0.0584114 7.7E-7 0.00668259 1.4E-7 -3.4E-7 0.00359939 1.58E-6 2.26E-6 -0.03737453 -1.227E-5 0.0 0.00355401 -3.58E-6 1.55E-6 0.00783196 -5.7E-7 4.0E-8 -9.7821E-4 4.0E-8 0.0 9.665E-5 9.0E-8 -4.6E-7 -0.00383666 1.8E-7 -2.99E-6 0.02564374 -0.00331774 7.0E-8 5.0137E-4 0.00274842 -8.6E-7 -0.01101996 -0.00353871 -1.279E-5 -0.33491462 -0.00244841 -3.3E-7 -0.01193861 0.00239654 -5.6E-7 0.00143809 9.555E-5 5.0E-8 7.4719E-4 1.6067E-4 -6.0E-8 -6.7055E-4 -2.885E-4 2.1E-7 7.7552E-4 0.00369036 1.415E-5 0.35544616 2.7016E-4 -7.0E-8 6.1941E-4 -0.00230649 1.24E-6 0.00404421 -0.0176394 1.28E-6 -0.01487111 -0.27148139 2.105E-5 -0.12009345 0.00118451 5.1E-7 0.00193294 0.00130122 4.0E-7 4.8532E-4 -4.227E-5 -9.0E-8 -8.023E-5 -9.1125E-4 1.2E-7 -7.2645E-4 9.6823E-4 -5.9E-7 2.0748E-4 0.28744942 0.0 -9.8206E-4 -1.9E-7 1.18E-6 0.00727474 -7.3E-7 2.8E-6 0.00225455 2.14E-6 2.148E-5 -0.03395078 8.66E-6 -1.79E-6 0.00490351 -3.7E-7 4.4E-7 0.00527236 -7.3E-7 -8.0E-8 -7.8445E-4 6.0E-8 1.8E-7 4.1762E-4 9.0E-8 -6.1E-7 -0.0043336 2.3E-7 -2.324E-5 0.02378167 0.00105249 -9.0E-8 -8.7138E-4 0.00329153 -6.9E-7 -9.0277E-4 0.01525002 -1.16E-6 0.01217819 -0.11827389 8.84E-6 -0.12489151 -0.03019259 2.64E-6 -0.00990339 0.00129426 -6.6E-7 -0.00565041 -6.572E-5 6.0E-8 6.496E-5 8.0076E-4 -5.0E-8 4.0202E-4 -5.2304E-4 2.8E-7 8.5058E-4 0.12855983 -9.56E-6 0.126731 0.00195633 -7.0E-8 -0.00868348 -0.00347502 5.4E-7 0.00493467 -1.5217E-4 1.56E-6 -0.00388027 -0.00394908 2.95E-6 0.01705278 -0.25200691 -4.4E-7 0.04513171 -0.05311496 4.09E-6 0.02785497 -0.0017972 2.4E-7 9.8458E-4 3.688E-5 -1.2E-7 2.0034E-4 1.0097E-4 -1.3E-7 1.2775E-4 9.2344E-4 -3.1E-7 4.9E-7 0.36607482 1.8E-7 0.00763721 2.48E-6 -1.79E-6 -0.00145203 -1.55E-6 2.64E-6 0.00480011 -2.54E-6 5.78E-6 0.00684864 -1.4E-6 2.259E-5 -0.03993115 -3.051E-5 6.16E-6 0.00802375 -3.48E-6 2.9E-7 5.193E-5 -1.3E-7 -3.0E-8 -7.8817E-4 -2.0E-8 4.9E-7 1.194E-4 -2.9E-7 -5.5E-7 -0.00323101 4.2E-7 1.793E-5 0.02432295 2.8889E-4 -1.79E-6 -0.00688514 0.00586984 -5.0E-7 0.00393561 -0.01082541 1.9E-7 -0.00392936 0.05489512 -6.51E-6 -0.03522525 0.09685317 -2.26E-5 -0.14189635 -0.01130305 2.45E-6 0.01200399 -4.7848E-4 2.6E-7 3.5209E-4 2.1806E-4 3.6E-7 3.6771E-4 0.00156113 2.0E-8 -0.00107523 -1.7969E-4 5.9E-7 0.00231889 -0.03078997 2.6741E-4 0.66957721 0.00504375 6.5E-7 0.02847235 -0.00440955 1.06E-6 0.00221361 -0.00143494 1.5E-7 2.4616E-4 -0.00463583 6.8E-7 -0.00253068 0.00288907 -6.1E-7 -0.02650115 -0.05868693 2.62E-6 -0.00460953 9.6252E-4 -4.7E-7 -4.6797E-4 5.875E-5 1.7E-7 0.0013887 9.847E-5 -7.0E-8 1.612E-5 1.9178E-4 -1.3E-7 -0.00138025 0.00330915 -1.12E-6 -0.00109698 0.05741804 -1.0E-8 0.00200251 -3.7E-6 1.4E-6 0.00682187 -1.8E-7 -1.9E-7 -8.5241E-4 6.0E-8 6.7E-7 0.00525935 -1.1E-7 1.4E-6 0.00358902 1.6E-6 1.51E-6 -0.03120744 -5.91E-6 -3.8E-7 -0.00404987 2.4E-7 4.0E-8 4.7674E-4 -1.9E-7 -9.0E-8 -7.8608E-4 2.0E-8 -5.0E-8 3.713E-5 6.0E-8 -9.9E-7 -0.00366166 1.65E-6 -3.9E-6 0.02186556 -0.00256796 -3.1E-7 -0.01247886 0.00331354 -3.5E-7 0.00116926 -1.8668E-4 8.0E-8 6.4176E-4 -0.00343372 2.7E-7 8.0671E-4 0.00625362 -1.22E-6 -0.01479681 -0.00457015 -6.73E-6 -0.32767592 2.2097E-4 5.0E-8 8.7772E-4 -1.8516E-4 -1.0E-8 -7.2088E-4 -8.17E-6 2.0E-8 -9.782E-5 1.4126E-4 -9.0E-8 -7.3279E-4 -3.3563E-4 2.1E-7 0.00314453 0.00329638 7.54E-6 0.35006357 -6.7185E-4 -7.8E-7 1.6866E-4 -1.3158E-4 3.3E-7 -6.4376E-4 0.00135054 -7.8E-7 0.00125873 -0.00645669 1.33E-6 0.00221409 0.00243599 1.826E-5 0.04507029 0.00169323 3.0E-8 0.00255134 1.5864E-4 -1.1E-7 -3.845E-5 1.227E-5 2.0E-8 -1.9018E-4 -3.4996E-4 -5.0E-8 1.5047E-4 9.203E-5 1.0E-7 1.861E-4 -0.05790625 -5.256E-5 -0.10501262 -8.0429E-4 5.9E-7 -0.00193829 0.06057792 0.0 -8.8325E-4 -1.16E-6 1.2E-6 1.2891E-4 8.1E-7 -1.66E-6 0.00175959 1.23E-6 -2.2E-7 0.00202338 -8.8E-7 -6.64E-6 -0.00303756 1.84E-6 -1.56E-6 -3.3162E-4 1.25E-6 -2.0E-7 -1.306E-5 9.0E-8 -3.0E-8 -8.681E-5 1.1E-7 -1.8E-7 -2.1867E-4 1.5E-7 0.0 -6.5967E-4 -8.0E-8 -2.527E-5 -0.00273997 -2.4155E-4 9.7E-7 5.0527E-4 5.4E-7 3.361E-5 0.00355347 -2.797E-5 1.41E-6 -0.00127787 -3.0529E-4 1.1E-7 7.2688E-4 -7.7353E-4 2.2E-7 -0.00115007 0.00397993 -1.11E-6 0.00159181 -0.0030491 -6.95E-6 -0.02528095 -0.00440642 8.5E-7 0.00560847 -2.7522E-4 -7.0E-8 1.1642E-4 2.83E-5 -2.3E-7 2.219E-5 2.8987E-4 -8.0E-8 -4.212E-5 -3.951E-5 -9.0E-8 4.066E-4 -0.05259791 -2.3063E-4 -0.50268869 9.5324E-4 -1.07E-6 -2.0047E-4 0.05622361 2.3764E-4 0.52216781</array><array dataType="xsd:double" size="39" dictRef="x:unknown">-5.458E-5 7.9E-7 -9.736E-5 -1.4521E-4 -7.1E-7 4.754E-5 1.1071E-4 1.18E-6 6.295E-5 -9.023E-5 -7.1E-7 1.4211E-4 5.909E-4 -2.68E-6 -3.1895E-4 -1.3617E-4 1.01E-6 1.333E-5 -1.21E-6 -3.3E-7 -1.514E-5 -3.95E-6 1.4E-7 1.83E-6 1.371E-5 -2.4E-7 1.26E-6 5.155E-5 -3.0E-7 7.89E-6 -3.6457E-4 4.32E-6 1.9464E-4 6.83E-6 1.7E-7 -3.56E-5 2.223E-5 -2.63E-6 -4.5E-6</array></module> THERE IS SOMETHING FASCINATING ABOUT SCIENCE. ONE GETS SUCH WHOLESALE CONJECTURE OUT OF SUCH TRIFLING INVESTMENTS.                                                       -- MARK TWAIN<module cmlx:lineCount="3" cmlx:templateRef="jobcpu"><scalar dictRef="cc:jobtime" dataType="xsd:string">PT9098.500S</scalar><scalar dataType="xsd:string" dictRef="cc:jobdatetime.end">Sat Sep  2 08:19:42 2006</scalar><scalar dataType="xsd:string" dictRef="cc:program">Gaussian 03</scalar></module></module>
