 Entering Gaussian System, Link 0=/usr/local/Gaussian/g03/g03
 Initial command:
 /usr/local/Gaussian/g03/l1.exe /export/scratch//webmo/3306/Gau-577.inp -scrdir=/export/scratch//webmo/3306/
 Entering Link 1 = /usr/local/Gaussian/g03/l1.exe PID=       582.
  
 Copyright (c) 1988,1990,1992,1993,1995,1998,2003, Gaussian, Inc.
                  All Rights Reserved.
  
 This is the Gaussian(R) 03 program.  It is based on the
 the Gaussian(R) 98 system (copyright 1998, Gaussian, Inc.),
 the Gaussian(R) 94 system (copyright 1995, Gaussian, Inc.),
 the Gaussian 92(TM) system (copyright 1992, Gaussian, Inc.),
 the Gaussian 90(TM) system (copyright 1990, Gaussian, Inc.),
 the Gaussian 88(TM) system (copyright 1988, Gaussian, Inc.),
 the Gaussian 86(TM) system (copyright 1986, Carnegie Mellon
 University), and the Gaussian 82(TM) system (copyright 1983,
 Carnegie Mellon University). Gaussian is a federally registered
 trademark of Gaussian, Inc.
  
 This software contains proprietary and confidential information,
 including trade secrets, belonging to Gaussian, Inc.
  
 This software is provided under written license and may be
 used, copied, transmitted, or stored only in accord with that
 written license.
  
 The following legend is applicable only to US Government
 contracts under DFARS:
  
                    RESTRICTED RIGHTS LEGEND
  
 Use, duplication or disclosure by the US Government is subject
 to restrictions as set forth in subparagraph (c)(1)(ii) of the
 Rights in Technical Data and Computer Software clause at DFARS
 252.227-7013.
  
 Gaussian, Inc.
 Carnegie Office Park, Building 6, Pittsburgh, PA 15106 USA
  
 The following legend is applicable only to US Government
 contracts under FAR:
  
                    RESTRICTED RIGHTS LEGEND
  
 Use, reproduction and disclosure by the US Government is subject
 to restrictions as set forth in subparagraph (c) of the
 Commercial Computer Software - Restricted Rights clause at FAR
 52.227-19.
  
 Gaussian, Inc.
 Carnegie Office Park, Building 6, Pittsburgh, PA 15106 USA
  
  
 ---------------------------------------------------------------
 Warning -- This program may not be used in any manner that
 competes with the business of Gaussian, Inc. or will provide
 assistance to any competitor of Gaussian, Inc.  The licensee
 of this program is prohibited from giving any competitor of
 Gaussian, Inc. access to this program.  By using this program,
 the user acknowledges that Gaussian, Inc. is engaged in the
 business of creating and licensing software in the field of
 computational chemistry and represents and warrants to the
 licensee that it is not a competitor of Gaussian, Inc. and that
 it will not use this program in any manner prohibited above.
 ---------------------------------------------------------------
  

 Cite this work as:
 Gaussian 03, Revision B.04,
 M. J. Frisch, G. W. Trucks, H. B. Schlegel, G. E. Scuseria, 
 M. A. Robb, J. R. Cheeseman, J. A. Montgomery, Jr., T. Vreven, 
 K. N. Kudin, J. C. Burant, J. M. Millam, S. S. Iyengar, J. Tomasi, 
 V. Barone, B. Mennucci, M. Cossi, G. Scalmani, N. Rega, 
 G. A. Petersson, H. Nakatsuji, M. Hada, M. Ehara, K. Toyota, 
 R. Fukuda, J. Hasegawa, M. Ishida, T. Nakajima, Y. Honda, O. Kitao, 
 H. Nakai, M. Klene, X. Li, J. E. Knox, H. P. Hratchian, J. B. Cross, 
 C. Adamo, J. Jaramillo, R. Gomperts, R. E. Stratmann, O. Yazyev, 
 A. J. Austin, R. Cammi, C. Pomelli, J. W. Ochterski, P. Y. Ayala, 
 K. Morokuma, G. A. Voth, P. Salvador, J. J. Dannenberg, 
 V. G. Zakrzewski, S. Dapprich, A. D. Daniels, M. C. Strain, 
 O. Farkas, D. K. Malick, A. D. Rabuck, K. Raghavachari, 
 J. B. Foresman, J. V. Ortiz, Q. Cui, A. G. Baboul, S. Clifford, 
 J. Cioslowski, B. B. Stefanov, G. Liu, A. Liashenko, P. Piskorz, 
 I. Komaromi, R. L. Martin, D. J. Fox, T. Keith, M. A. Al-Laham, 
 C. Y. Peng, A. Nanayakkara, M. Challacombe, P. M. W. Gill, 
 B. Johnson, W. Chen, M. W. Wong, C. Gonzalez, and J. A. Pople, 
 Gaussian, Inc., Pittsburgh PA, 2003.
 
 ***************************************************
 Gaussian 03:  Sun64-SVR4-Unix-G03RevB.04 2-Jun-2003
                      1-Sep-2006 
 ***************************************************
 ------------------------------
 #P B3LYP/6-311+G(d,p) OPT FREQ
 ------------------------------
 1/14=-1,18=20,26=3,38=1/1,3;
 2/9=110,17=6,18=5,40=1/2;
 3/5=4,6=6,7=111,11=2,16=1,25=1,30=1,74=-5/1,2,3;
 4//1;
 5/5=2,38=5/2;
 6/7=2,8=2,9=2,10=2,28=1/1;
 7//1,2,3,16;
 1/14=-1,18=20/3(1);
 99//99;
 2/9=110/2;
 3/5=4,6=6,7=111,11=2,16=1,25=1,30=1,74=-5/1,2,3;
 4/5=5,16=3/1;
 5/5=2,38=5/2;
 7//1,2,3,16;
 1/14=-1,18=20/3(-5);
 2/9=110/2;
 6/7=2,8=2,9=2,10=2,19=2,28=1/1;
 99/9=1/99;
 Leave Link    1 at Fri Sep  1 21:04:22 2006, MaxMem=          0 cpu:       0.2
 (Enter /usr/local/Gaussian/g03/l101.exe)
 -------------
 phenol basis2
 -------------
 Symbolic Z-matrix:
 Charge =  0 Multiplicity = 1
 C
 C                    1    B1
 C                    1    B2       2    A1
 C                    1    B3       2    A2       3    D1       0
 C                    1    B4       2    A3       3    D2       0
 C                    1    B5       2    A4       3    D3       0
 H                    1    B6       2    A5       3    D4       0
 H                    1    B7       2    A6       3    D5       0
 H                    1    B8       2    A7       3    D6       0
 H                    1    B9       2    A8       3    D7       0
 O                    1    B10      2    A9       3    D8       0
 H                    1    B11      2    A10      3    D9       0
 H                    1    B12      2    A11      3    D10      0
       Variables:
  A5                  120.1509                   
  D6                   -0.0002                   
  A6                   25.75722                  
  D7                    0.00387                  
  A7                   21.28456                  
  D8                    0.00346                  
  A8                   60.6628                   
  D9                    0.00315                  
  A9                  100.21753                  
  A10                 146.38727                  
  A11                 114.74923                  
  B1                    1.38973                  
  B2                    2.40083                  
  B3                    2.78188                  
  B4                    2.41066                  
  B5                    1.39098                  
  B6                    1.08416                  
  B7                    2.15088                  
  B8                    3.38553                  
  D10                   0.01503                  
  B9                    3.8648                   
  B10                   3.6766                   
  B11                   2.15285                  
  B12                   3.83079                  
  D1                    0.00347                  
  D2                    0.00525                  
  A1                   30.41311                  
  D3                    0.00543                  
  A2                   60.3328                   
  D4                 -179.99908                  
  A3                   90.42364                  
  A4                  120.52956                  
  D5                 -179.98294                  
 
                    Isotopes and Nuclear Properties:

  Atom         1           2           3           4           5           6           7           8           9          10
 IAtWgt=          12          12          12          12          12          12           1           1           1           1
 AtmWgt=  12.0000000  12.0000000  12.0000000  12.0000000  12.0000000  12.0000000   1.0078250   1.0078250   1.0078250   1.0078250
 IAtSpn=           0           0           0           0           0           0           1           1           1           1
 AtZEff=   0.0000000   0.0000000   0.0000000   0.0000000   0.0000000   0.0000000   0.0000000   0.0000000   0.0000000   0.0000000
 AtQMom=   0.0000000   0.0000000   0.0000000   0.0000000   0.0000000   0.0000000   0.0000000   0.0000000   0.0000000   0.0000000
 AtGFac=   0.0000000   0.0000000   0.0000000   0.0000000   0.0000000   0.0000000   2.7928460   2.7928460   2.7928460   2.7928460

  Atom        11          12          13
 IAtWgt=          16           1           1
 AtmWgt=  15.9949146   1.0078250   1.0078250
 IAtSpn=           0           1           1
 AtZEff=   0.0000000   0.0000000   0.0000000
 AtQMom=   0.0000000   0.0000000   0.0000000
 AtGFac=   0.0000000   2.7928460   2.7928460
 Leave Link  101 at Fri Sep  1 21:04:23 2006, MaxMem=    6291456 cpu:       0.2
 (Enter /usr/local/Gaussian/g03/l103.exe)

 GradGradGradGradGradGradGradGradGradGradGradGradGradGradGradGradGradGrad
 Berny optimization.
 Initialization pass.
                           ----------------------------
                           !    Initial Parameters    !
                           ! (Angstroms and Degrees)  !
 --------------------------                            --------------------------
 ! Name  Definition              Value          Derivative Info.                !
 --------------------------------------------------------------------------------
 ! R1    R(1,2)                  1.3897         estimate D2E/DX2                !
 ! R2    R(1,6)                  1.391          estimate D2E/DX2                !
 ! R3    R(1,7)                  1.0842         estimate D2E/DX2                !
 ! R4    R(2,3)                  1.393          estimate D2E/DX2                !
 ! R5    R(2,8)                  1.0832         estimate D2E/DX2                !
 ! R6    R(3,4)                  1.3876         estimate D2E/DX2                !
 ! R7    R(3,9)                  1.0842         estimate D2E/DX2                !
 ! R8    R(4,5)                  1.3948         estimate D2E/DX2                !
 ! R9    R(4,10)                 1.0831         estimate D2E/DX2                !
 ! R10   R(5,6)                  1.3944         estimate D2E/DX2                !
 ! R11   R(5,11)                 1.3642         estimate D2E/DX2                !
 ! R12   R(6,12)                 1.0863         estimate D2E/DX2                !
 ! R13   R(11,13)                0.9617         estimate D2E/DX2                !
 ! A1    A(2,1,6)              120.5296         estimate D2E/DX2                !
 ! A2    A(2,1,7)              120.1509         estimate D2E/DX2                !
 ! A3    A(6,1,7)              119.3195         estimate D2E/DX2                !
 ! A4    A(1,2,3)              119.2535         estimate D2E/DX2                !
 ! A5    A(1,2,8)              120.3574         estimate D2E/DX2                !
 ! A6    A(3,2,8)              120.3891         estimate D2E/DX2                !
 ! A7    A(2,3,4)              120.7586         estimate D2E/DX2                !
 ! A8    A(2,3,9)              119.9706         estimate D2E/DX2                !
 ! A9    A(4,3,9)              119.2708         estimate D2E/DX2                !
 ! A10   A(3,4,5)              119.7157         estimate D2E/DX2                !
 ! A11   A(3,4,10)             121.5225         estimate D2E/DX2                !
 ! A12   A(5,4,10)             118.7618         estimate D2E/DX2                !
 ! A13   A(4,5,6)              119.8725         estimate D2E/DX2                !
 ! A14   A(4,5,11)             117.4387         estimate D2E/DX2                !
 ! A15   A(6,5,11)             122.6888         estimate D2E/DX2                !
 ! A16   A(1,6,5)              119.8702         estimate D2E/DX2                !
 ! A17   A(1,6,12)             120.1932         estimate D2E/DX2                !
 ! A18   A(5,6,12)             119.9366         estimate D2E/DX2                !
 ! A19   A(5,11,13)            109.3783         estimate D2E/DX2                !
 ! D1    D(6,1,2,3)              0.0054         estimate D2E/DX2                !
 ! D2    D(6,1,2,8)            179.9884         estimate D2E/DX2                !
 ! D3    D(7,1,2,3)           -179.9991         estimate D2E/DX2                !
 ! D4    D(7,1,2,8)             -0.0161         estimate D2E/DX2                !
 ! D5    D(2,1,6,5)             -0.0004         estimate D2E/DX2                !
 ! D6    D(2,1,6,12)          -179.9971         estimate D2E/DX2                !
 ! D7    D(7,1,6,5)           -179.9959         estimate D2E/DX2                !
 ! D8    D(7,1,6,12)             0.0074         estimate D2E/DX2                !
 ! D9    D(1,2,3,4)             -0.007          estimate D2E/DX2                !
 ! D10   D(1,2,3,9)            179.9997         estimate D2E/DX2                !
 ! D11   D(8,2,3,4)           -179.99           estimate D2E/DX2                !
 ! D12   D(8,2,3,9)              0.0168         estimate D2E/DX2                !
 ! D13   D(2,3,4,5)              0.0035         estimate D2E/DX2                !
 ! D14   D(2,3,4,10)          -179.9951         estimate D2E/DX2                !
 ! D15   D(9,3,4,5)            179.9968         estimate D2E/DX2                !
 ! D16   D(9,3,4,10)            -0.0018         estimate D2E/DX2                !
 ! D17   D(3,4,5,6)              0.0016         estimate D2E/DX2                !
 ! D18   D(3,4,5,11)           179.9931         estimate D2E/DX2                !
 ! D19   D(10,4,5,6)          -179.9997         estimate D2E/DX2                !
 ! D20   D(10,4,5,11)           -0.0083         estimate D2E/DX2                !
 ! D21   D(4,5,6,1)             -0.0032         estimate D2E/DX2                !
 ! D22   D(4,5,6,12)           179.9935         estimate D2E/DX2                !
 ! D23   D(11,5,6,1)          -179.9942         estimate D2E/DX2                !
 ! D24   D(11,5,6,12)            0.0026         estimate D2E/DX2                !
 ! D25   D(4,5,11,13)          179.9596         estimate D2E/DX2                !
 ! D26   D(6,5,11,13)           -0.0492         estimate D2E/DX2                !
 --------------------------------------------------------------------------------
 Trust Radius=3.00D-01 FncErr=1.00D-07 GrdErr=1.00D-06
 Number of steps in this run=  68 maximum allowed number of steps= 100.
 GradGradGradGradGradGradGradGradGradGradGradGradGradGradGradGradGradGrad

 Leave Link  103 at Fri Sep  1 21:04:25 2006, MaxMem=    6291456 cpu:       0.0
 (Enter /usr/local/Gaussian/g03/l202.exe)
                          Input orientation:                          
 ---------------------------------------------------------------------
 Center     Atomic     Atomic              Coordinates (Angstroms)
 Number     Number      Type              X           Y           Z
 ---------------------------------------------------------------------
    1          6             0        0.000000    0.000000    0.000000
    2          6             0        0.000000    0.000000    1.389734
    3          6             0        1.215377    0.000000    2.070474
    4          6             0        2.417221   -0.000146    1.376925
    5          6             0        2.410594   -0.000221   -0.017824
    6          6             0        1.198148   -0.000114   -0.706596
    7          1             0       -0.937483    0.000015   -0.544553
    8          1             0       -0.934684    0.000278    1.937177
    9          1             0        1.228947    0.000004    3.154599
   10          1             0        3.369148   -0.000228    1.893555
   11          8             0        3.618297   -0.000218   -0.652177
   12          1             0        1.191769   -0.000065   -1.792893
   13          1             0        3.478923   -0.000913   -1.603749
 ---------------------------------------------------------------------
                    Distance matrix (angstroms):
                    1          2          3          4          5
     1  C    0.000000
     2  C    1.389734   0.000000
     3  C    2.400834   1.393035   0.000000
     4  C    2.781884   2.417255   1.387602   0.000000
     5  C    2.410660   2.791448   2.406145   1.394765   0.000000
     6  C    1.390984   2.414572   2.777123   2.413959   1.394429
     7  H    1.084165   2.149498   3.387207   3.866021   3.389257
     8  H    2.150881   1.083203   2.154189   3.398404   3.874650
     9  H    3.385529   2.150595   1.084209   2.138251   3.385344
    10  H    3.864804   3.406610   2.161025   1.083084   2.138269
    11  O    3.676603   4.154693   3.631371   2.357932   1.364167
    12  H    2.152854   3.398445   3.863439   3.398452   2.153231
    13  H    3.830786   4.589537   4.315502   3.164116   1.912194
                    6          7          8          9         10
     6  C    0.000000
     7  H    2.141770   0.000000
     8  H    3.396838   2.481732   0.000000
     9  H    3.861317   4.286857   2.482623   0.000000
    10  H    3.387333   4.948883   4.304053   2.484087   0.000000
    11  O    2.420761   4.557052   5.237785   4.494501   2.557895
    12  H    1.086316   2.468212   4.293626   4.947631   4.281457
    13  H    2.450882   4.541646   5.658453   5.263484   3.499026
                   11         12         13
    11  O    0.000000
    12  H    2.681281   0.000000
    13  H    0.961725   2.294962   0.000000
 Stoichiometry    C6H6O
 Framework group  C1[X(C6H6O)]
 Deg. of freedom    33
 Full point group                 C1      NOp   1
 Largest Abelian subgroup         C1      NOp   1
 Largest concise Abelian subgroup C1      NOp   1
                         Standard orientation:                         
 ---------------------------------------------------------------------
 Center     Atomic     Atomic              Coordinates (Angstroms)
 Number     Number      Type              X           Y           Z
 ---------------------------------------------------------------------
    1          6             0        1.128939    1.214370   -0.000011
    2          6             0        1.851724    0.027381    0.000047
    3          6             0        1.167701   -1.186151   -0.000015
    4          6             0       -0.219516   -1.218848    0.000013
    5          6             0       -0.939249   -0.024129    0.000030
    6          6             0       -0.261906    1.194739   -0.000016
    7          1             0        1.646438    2.167054    0.000021
    8          1             0        2.934768    0.045923   -0.000139
    9          1             0        1.719951   -2.119173    0.000025
   10          1             0       -0.763875   -2.155194    0.000045
   11          8             0       -2.300683   -0.110433   -0.000089
   12          1             0       -0.821430    2.125876   -0.000109
   13          1             0       -2.676544    0.774802    0.000576
 ---------------------------------------------------------------------
 Rotational constants (GHZ):      5.6912354      2.6276061      1.7976451
 Leave Link  202 at Fri Sep  1 21:04:26 2006, MaxMem=    6291456 cpu:       0.5
 (Enter /usr/local/Gaussian/g03/l301.exe)
 Standard basis: 6-311+G(d,p) (5D, 7F)
 There are   190 symmetry adapted basis functions of A   symmetry.
 Integral buffers will be    131072 words long.
 Raffenetti 2 integral format.
 Two-electron integral symmetry is turned on.
   190 basis functions,   300 primitive gaussians,   197 cartesian basis functions
    25 alpha electrons       25 beta electrons
       nuclear repulsion energy       271.6440031035 Hartrees.
 IExCor= 402 DFT=T Ex=B+HF Corr=LYP ExCW=0 ScaHFX=  0.200000
 ScaDFX=  0.800000  0.720000  1.000000  0.810000
 IRadAn=      0 IRanWt=     -1 IRanGd=            0 ICorTp=0
 NAtoms=   13 NActive=   13 NUniq=   13 SFac= 1.00D+00 NAtFMM=   60 Big=F
 Leave Link  301 at Fri Sep  1 21:04:27 2006, MaxMem=    6291456 cpu:       0.1
 (Enter /usr/local/Gaussian/g03/l302.exe)
 NPDir=0 NMtPBC=     1 NCelOv=     1 NCel=       1 NClECP=     1 NCelD=      1
         NCelK=      1 NCelE2=     1 NClLst=     1 CellRange=     0.0.
 One-electron integrals computed using PRISM.
 NBasis=   190 RedAO= T  NBF=   190
 NBsUse=   190 1.00D-06 NBFU=   190
 Precomputing XC quadrature grid using
 IXCGrd= 2 IRadAn=           0 IRanWt=          -1 IRanGd=           0.
 NRdTot=     833 NPtTot=      105622 NUsed=      111506 NTot=      111538
 NSgBfM=   197   197   197   197.
 Leave Link  302 at Fri Sep  1 21:04:36 2006, MaxMem=    6291456 cpu:       2.3
 (Enter /usr/local/Gaussian/g03/l303.exe)
 DipDrv:  MaxL=1.
 Leave Link  303 at Fri Sep  1 21:04:37 2006, MaxMem=    6291456 cpu:       0.1
 (Enter /usr/local/Gaussian/g03/l401.exe)
 Harris functional with IExCor=  402 diagonalized for initial guess.
 ExpMin= 4.38D-02 ExpMax= 8.59D+03 ExpMxC= 1.30D+03 IAcc=2 IRadAn=         4 AccDes= 0.00D+00
 HarFok:  IExCor= 402 AccDes= 0.00D+00 IRadAn=         4 IDoV=1
 ScaDFX=  1.000000  1.000000  1.000000  1.000000
 Harris En= -307.686189607494    
 Initial guess orbital symmetries:
       Occupied  (A) (A) (A) (A) (A) (A) (A) (A) (A) (A) (A) (A)
                 (A) (A) (A) (A) (A) (A) (A) (A) (A) (A) (A) (A)
                 (A)
       Virtual   (A) (A) (A) (A) (A) (A) (A) (A) (A) (A) (A) (A)
                 (A) (A) (A) (A) (A) (A) (A) (A) (A) (A) (A) (A)
                 (A) (A) (A) (A) (A) (A) (A) (A) (A) (A) (A) (A)
                 (A) (A) (A) (A) (A) (A) (A) (A) (A) (A) (A) (A)
                 (A) (A) (A) (A) (A) (A) (A) (A) (A) (A) (A) (A)
                 (A) (A) (A) (A) (A) (A) (A) (A) (A) (A) (A) (A)
                 (A) (A) (A) (A) (A) (A) (A) (A) (A) (A) (A) (A)
                 (A) (A) (A) (A) (A) (A) (A) (A) (A) (A) (A) (A)
                 (A) (A) (A) (A) (A) (A) (A) (A) (A) (A) (A) (A)
                 (A) (A) (A) (A) (A) (A) (A) (A) (A) (A) (A) (A)
                 (A) (A) (A) (A) (A) (A) (A) (A) (A) (A) (A) (A)
                 (A) (A) (A) (A) (A) (A) (A) (A) (A) (A) (A) (A)
                 (A) (A) (A) (A) (A) (A) (A) (A) (A) (A) (A) (A)
                 (A) (A) (A) (A) (A) (A) (A) (A) (A)
 The electronic state of the initial guess is 1-A.
 Leave Link  401 at Fri Sep  1 21:05:52 2006, MaxMem=    6291456 cpu:      23.8
 (Enter /usr/local/Gaussian/g03/l502.exe)
 Closed shell SCF:
 Requested convergence on RMS density matrix=1.00D-08 within 128 cycles.
 Requested convergence on MAX density matrix=1.00D-06.
 Requested convergence on             energy=1.00D-06.
 No special actions if energy rises.
 Using DIIS extrapolation, IDIIS=  1040.
 Integral symmetry usage will be decided dynamically.
       111505 words used for storage of precomputed grid.
 IEnd=    266795 IEndB=    266795 NGot=   6291456 MDV=   6080308
 LenX=   6080308
 Fock matrices will be formed incrementally for  20 cycles.

 Cycle   1  Pass 1  IDiag  1:
 Petite list used in FoFDir.
 MinBra= 0 MaxBra= 2 Meth= 1.
 IRaf=       0 NMat=   1 IRICut=       1 DoRegI=T DoRafI=F ISym2E= 1 JSym2E=1.
 E= -307.301325367432    
 DIIS: error= 5.54D-02 at cycle   1 NSaved=   1.
 NSaved= 1 IEnMin= 1 EnMin= -307.301325367432     IErMin= 1 ErrMin= 5.54D-02
 ErrMax= 5.54D-02 EMaxC= 1.00D-01 BMatC= 2.69D-01 BMatP= 2.69D-01
 IDIUse=3 WtCom= 4.46D-01 WtEn= 5.54D-01
 Coeff-Com:  0.100D+01
 Coeff-En:   0.100D+01
 Coeff:      0.100D+01
 Gap=     0.234 Goal=   None    Shift=    0.000
 GapD=    0.234 DampG=1.000 DampE=0.500 DampFc=0.5000 IDamp=-1.
 Damping current iteration by 5.00D-01
 RMSDP=9.58D-03 MaxDP=3.43D-01              OVMax= 2.34D-01

 Cycle   2  Pass 1  IDiag  1:
 RMSU=  4.79D-03    CP:  9.89D-01
 E= -307.406485069120     Delta-E=       -0.105159701688 Rises=F Damp=T
 DIIS: error= 8.79D-03 at cycle   2 NSaved=   2.
 NSaved= 2 IEnMin= 2 EnMin= -307.406485069120     IErMin= 2 ErrMin= 8.79D-03
 ErrMax= 8.79D-03 EMaxC= 1.00D-01 BMatC= 1.07D-02 BMatP= 2.69D-01
 IDIUse=3 WtCom= 9.12D-01 WtEn= 8.79D-02
 Coeff-Com:  0.728D-01 0.927D+00
 Coeff-En:   0.177D+00 0.823D+00
 Coeff:      0.820D-01 0.918D+00
 Gap=     0.234 Goal=   None    Shift=    0.000
 RMSDP=2.71D-03 MaxDP=7.69D-02 DE=-1.05D-01 OVMax= 1.50D-01

 Cycle   3  Pass 1  IDiag  1:
 RMSU=  2.07D-03    CP:  1.02D+00  6.51D-01
 E= -307.553450997043     Delta-E=       -0.146965927923 Rises=F Damp=F
 DIIS: error= 8.90D-03 at cycle   3 NSaved=   3.
 NSaved= 3 IEnMin= 3 EnMin= -307.553450997043     IErMin= 2 ErrMin= 8.79D-03
 ErrMax= 8.90D-03 EMaxC= 1.00D-01 BMatC= 5.03D-03 BMatP= 1.07D-02
 IDIUse=3 WtCom= 9.11D-01 WtEn= 8.90D-02
 Coeff-Com: -0.143D-01 0.382D+00 0.632D+00
 Coeff-En:   0.000D+00 0.000D+00 0.100D+01
 Coeff:     -0.131D-01 0.348D+00 0.665D+00
 Gap=     0.216 Goal=   None    Shift=    0.000
 RMSDP=8.67D-04 MaxDP=2.86D-02 DE=-1.47D-01 OVMax= 4.65D-02

 Cycle   4  Pass 1  IDiag  1:
 RMSU=  7.63D-04    CP:  1.00D+00  6.19D-01  8.51D-01
 E= -307.556000566196     Delta-E=       -0.002549569153 Rises=F Damp=F
 DIIS: error= 7.85D-03 at cycle   4 NSaved=   4.
 NSaved= 4 IEnMin= 4 EnMin= -307.556000566196     IErMin= 4 ErrMin= 7.85D-03
 ErrMax= 7.85D-03 EMaxC= 1.00D-01 BMatC= 2.26D-03 BMatP= 5.03D-03
 IDIUse=3 WtCom= 9.21D-01 WtEn= 7.85D-02
 Coeff-Com: -0.189D-01 0.154D+00 0.435D+00 0.430D+00
 Coeff-En:   0.000D+00 0.000D+00 0.346D+00 0.654D+00
 Coeff:     -0.174D-01 0.142D+00 0.428D+00 0.447D+00
 Gap=     0.214 Goal=   None    Shift=    0.000
 RMSDP=4.11D-04 MaxDP=1.33D-02 DE=-2.55D-03 OVMax= 2.53D-02

 Cycle   5  Pass 1  IDiag  1:
 RMSU=  3.18D-04    CP:  9.97D-01  6.37D-01  8.15D-01  7.35D-01
 E= -307.558486670942     Delta-E=       -0.002486104747 Rises=F Damp=F
 DIIS: error= 1.13D-03 at cycle   5 NSaved=   5.
 NSaved= 5 IEnMin= 5 EnMin= -307.558486670942     IErMin= 5 ErrMin= 1.13D-03
 ErrMax= 1.13D-03 EMaxC= 1.00D-01 BMatC= 6.10D-05 BMatP= 2.26D-03
 IDIUse=3 WtCom= 9.89D-01 WtEn= 1.13D-02
 Coeff-Com: -0.576D-02 0.136D-01 0.787D-01 0.181D+00 0.733D+00
 Coeff-En:   0.000D+00 0.000D+00 0.000D+00 0.000D+00 0.100D+01
 Coeff:     -0.570D-02 0.134D-01 0.778D-01 0.179D+00 0.736D+00
 Gap=     0.215 Goal=   None    Shift=    0.000
 RMSDP=6.35D-05 MaxDP=1.34D-03 DE=-2.49D-03 OVMax= 4.69D-03

 Cycle   6  Pass 1  IDiag  1:
 RMSU=  4.94D-05    CP:  9.97D-01  6.35D-01  8.22D-01  7.58D-01  9.00D-01
 E= -307.558549890615     Delta-E=       -0.000063219672 Rises=F Damp=F
 DIIS: error= 3.20D-04 at cycle   6 NSaved=   6.
 NSaved= 6 IEnMin= 6 EnMin= -307.558549890615     IErMin= 6 ErrMin= 3.20D-04
 ErrMax= 3.20D-04 EMaxC= 1.00D-01 BMatC= 7.21D-06 BMatP= 6.10D-05
 IDIUse=3 WtCom= 9.97D-01 WtEn= 3.20D-03
 Coeff-Com: -0.272D-02 0.298D-02 0.314D-01 0.884D-01 0.426D+00 0.453D+00
 Coeff-En:   0.000D+00 0.000D+00 0.000D+00 0.000D+00 0.000D+00 0.100D+01
 Coeff:     -0.271D-02 0.297D-02 0.313D-01 0.881D-01 0.425D+00 0.455D+00
 Gap=     0.214 Goal=   None    Shift=    0.000
 RMSDP=2.63D-05 MaxDP=7.54D-04 DE=-6.32D-05 OVMax= 1.09D-03

 Cycle   7  Pass 1  IDiag  1:
 RMSU=  1.96D-05    CP:  9.97D-01  6.35D-01  8.23D-01  7.62D-01  9.12D-01
                    CP:  6.74D-01
 E= -307.558555685609     Delta-E=       -0.000005794994 Rises=F Damp=F
 DIIS: error= 8.41D-05 at cycle   7 NSaved=   7.
 NSaved= 7 IEnMin= 7 EnMin= -307.558555685609     IErMin= 7 ErrMin= 8.41D-05
 ErrMax= 8.41D-05 EMaxC= 1.00D-01 BMatC= 4.08D-07 BMatP= 7.21D-06
 IDIUse=1 WtCom= 1.00D+00 WtEn= 0.00D+00
 Coeff-Com: -0.198D-03-0.995D-03 0.232D-02 0.138D-01 0.936D-01 0.217D+00
 Coeff-Com:  0.675D+00
 Coeff:     -0.198D-03-0.995D-03 0.232D-02 0.138D-01 0.936D-01 0.217D+00
 Coeff:      0.675D+00
 Gap=     0.215 Goal=   None    Shift=    0.000
 RMSDP=4.84D-06 MaxDP=1.05D-04 DE=-5.79D-06 OVMax= 1.79D-04

 Cycle   8  Pass 1  IDiag  1:
 RMSU=  3.62D-06    CP:  9.97D-01  6.35D-01  8.23D-01  7.62D-01  9.14D-01
                    CP:  6.94D-01  8.83D-01
 E= -307.558555968025     Delta-E=       -0.000000282416 Rises=F Damp=F
 DIIS: error= 1.86D-05 at cycle   8 NSaved=   8.
 NSaved= 8 IEnMin= 8 EnMin= -307.558555968025     IErMin= 8 ErrMin= 1.86D-05
 ErrMax= 1.86D-05 EMaxC= 1.00D-01 BMatC= 2.93D-08 BMatP= 4.08D-07
 IDIUse=1 WtCom= 1.00D+00 WtEn= 0.00D+00
 Coeff-Com:  0.261D-04-0.607D-03-0.412D-04 0.357D-02 0.296D-01 0.875D-01
 Coeff-Com:  0.330D+00 0.550D+00
 Coeff:      0.261D-04-0.607D-03-0.412D-04 0.357D-02 0.296D-01 0.875D-01
 Coeff:      0.330D+00 0.550D+00
 Gap=     0.215 Goal=   None    Shift=    0.000
 RMSDP=1.32D-06 MaxDP=3.76D-05 DE=-2.82D-07 OVMax= 8.42D-05

 Cycle   9  Pass 1  IDiag  1:
 RMSU=  1.09D-06    CP:  9.97D-01  6.35D-01  8.23D-01  7.62D-01  9.15D-01
                    CP:  6.92D-01  9.13D-01  9.18D-01
 E= -307.558555992252     Delta-E=       -0.000000024227 Rises=F Damp=F
 DIIS: error= 1.03D-05 at cycle   9 NSaved=   9.
 NSaved= 9 IEnMin= 9 EnMin= -307.558555992252     IErMin= 9 ErrMin= 1.03D-05
 ErrMax= 1.03D-05 EMaxC= 1.00D-01 BMatC= 5.41D-09 BMatP= 2.93D-08
 IDIUse=1 WtCom= 1.00D+00 WtEn= 0.00D+00
 Coeff-Com:  0.441D-04-0.183D-03-0.299D-03 0.180D-03 0.337D-02 0.154D-01
 Coeff-Com:  0.778D-01 0.321D+00 0.583D+00
 Coeff:      0.441D-04-0.183D-03-0.299D-03 0.180D-03 0.337D-02 0.154D-01
 Coeff:      0.778D-01 0.321D+00 0.583D+00
 Gap=     0.215 Goal=   None    Shift=    0.000
 RMSDP=5.06D-07 MaxDP=1.12D-05 DE=-2.42D-08 OVMax= 3.72D-05

 Cycle  10  Pass 1  IDiag  1:
 RMSU=  3.26D-07    CP:  9.97D-01  6.35D-01  8.23D-01  7.62D-01  9.15D-01
                    CP:  6.95D-01  9.09D-01  9.54D-01  7.38D-01
 E= -307.558555997701     Delta-E=       -0.000000005449 Rises=F Damp=F
 DIIS: error= 1.89D-06 at cycle  10 NSaved=  10.
 NSaved=10 IEnMin=10 EnMin= -307.558555997701     IErMin=10 ErrMin= 1.89D-06
 ErrMax= 1.89D-06 EMaxC= 1.00D-01 BMatC= 3.36D-10 BMatP= 5.41D-09
 IDIUse=1 WtCom= 1.00D+00 WtEn= 0.00D+00
 Coeff-Com:  0.205D-04-0.692D-04-0.144D-03-0.433D-04 0.616D-03 0.364D-02
 Coeff-Com:  0.250D-01 0.141D+00 0.306D+00 0.524D+00
 Coeff:      0.205D-04-0.692D-04-0.144D-03-0.433D-04 0.616D-03 0.364D-02
 Coeff:      0.250D-01 0.141D+00 0.306D+00 0.524D+00
 Gap=     0.215 Goal=   None    Shift=    0.000
 RMSDP=1.61D-07 MaxDP=5.45D-06 DE=-5.45D-09 OVMax= 1.14D-05

 Cycle  11  Pass 1  IDiag  1:
 RMSU=  1.17D-07    CP:  9.97D-01  6.35D-01  8.23D-01  7.62D-01  9.15D-01
                    CP:  6.94D-01  9.12D-01  9.53D-01  7.85D-01  8.44D-01
 E= -307.558555998020     Delta-E=       -0.000000000320 Rises=F Damp=F
 DIIS: error= 7.53D-07 at cycle  11 NSaved=  11.
 NSaved=11 IEnMin=11 EnMin= -307.558555998020     IErMin=11 ErrMin= 7.53D-07
 ErrMax= 7.53D-07 EMaxC= 1.00D-01 BMatC= 4.62D-11 BMatP= 3.36D-10
 IDIUse=1 WtCom= 1.00D+00 WtEn= 0.00D+00
 Coeff-Com:  0.708D-06 0.167D-05-0.922D-05-0.591D-04-0.306D-03-0.150D-02
 Coeff-Com: -0.283D-02 0.799D-02 0.382D-01 0.285D+00 0.673D+00
 Coeff:      0.708D-06 0.167D-05-0.922D-05-0.591D-04-0.306D-03-0.150D-02
 Coeff:     -0.283D-02 0.799D-02 0.382D-01 0.285D+00 0.673D+00
 Gap=     0.215 Goal=   None    Shift=    0.000
 RMSDP=7.41D-08 MaxDP=1.83D-06 DE=-3.20D-10 OVMax= 3.05D-06

 Cycle  12  Pass 1  IDiag  1:
 RMSU=  3.29D-08    CP:  9.97D-01  6.35D-01  8.23D-01  7.62D-01  9.15D-01
                    CP:  6.94D-01  9.13D-01  9.62D-01  7.90D-01  8.86D-01
                    CP:  6.83D-01
 E= -307.558555998084     Delta-E=       -0.000000000063 Rises=F Damp=F
 DIIS: error= 5.13D-08 at cycle  12 NSaved=  12.
 NSaved=12 IEnMin=12 EnMin= -307.558555998084     IErMin=12 ErrMin= 5.13D-08
 ErrMax= 5.13D-08 EMaxC= 1.00D-01 BMatC= 2.47D-13 BMatP= 4.62D-11
 IDIUse=1 WtCom= 1.00D+00 WtEn= 0.00D+00
 Coeff-Com: -0.150D-06 0.119D-05 0.225D-06-0.125D-04-0.772D-04-0.353D-03
 Coeff-Com: -0.796D-03-0.120D-02-0.146D-02 0.309D-01 0.951D-01 0.878D+00
 Coeff:     -0.150D-06 0.119D-05 0.225D-06-0.125D-04-0.772D-04-0.353D-03
 Coeff:     -0.796D-03-0.120D-02-0.146D-02 0.309D-01 0.951D-01 0.878D+00
 Gap=     0.215 Goal=   None    Shift=    0.000
 RMSDP=1.36D-08 MaxDP=9.22D-07 DE=-6.34D-11 OVMax= 5.51D-07

 Cycle  13  Pass 1  IDiag  1:
 RMSU=  7.50D-09    CP:  9.97D-01  6.35D-01  8.23D-01  7.62D-01  9.15D-01
                    CP:  6.94D-01  9.14D-01  9.62D-01  7.91D-01  8.93D-01
                    CP:  7.15D-01  9.67D-01
 E= -307.558555998084     Delta-E=        0.000000000000 Rises=F Damp=F
 DIIS: error= 2.31D-08 at cycle  13 NSaved=  13.
 NSaved=13 IEnMin=13 EnMin= -307.558555998084     IErMin=13 ErrMin= 2.31D-08
 ErrMax= 2.31D-08 EMaxC= 1.00D-01 BMatC= 1.06D-13 BMatP= 2.47D-13
 IDIUse=1 WtCom= 1.00D+00 WtEn= 0.00D+00
 Coeff-Com: -0.115D-06 0.403D-06 0.602D-06-0.281D-05-0.227D-04-0.905D-04
 Coeff-Com: -0.260D-03-0.144D-02-0.436D-02-0.608D-02-0.501D-02 0.425D+00
 Coeff-Com:  0.593D+00
 Coeff:     -0.115D-06 0.403D-06 0.602D-06-0.281D-05-0.227D-04-0.905D-04
 Coeff:     -0.260D-03-0.144D-02-0.436D-02-0.608D-02-0.501D-02 0.425D+00
 Coeff:      0.593D+00
 Gap=     0.215 Goal=   None    Shift=    0.000
 RMSDP=3.38D-09 MaxDP=1.05D-07 DE=-1.14D-13 OVMax= 1.34D-07

 SCF Done:  E(RB+HF-LYP) =  -307.558555998     A.U. after   13 cycles
             Convg  =    0.3381D-08             -V/T =  2.0040
             S**2   =   0.0000
 KE= 3.063249568558D+02 PE=-1.259888390476D+03 EE= 3.743608745183D+02
 Leave Link  502 at Fri Sep  1 22:01:13 2006, MaxMem=    6291456 cpu:    1054.7
 (Enter /usr/local/Gaussian/g03/l601.exe)
 Copying SCF densities to generalized density rwf, ISCF=0 IROHF=0.

 **********************************************************************

            Population analysis using the SCF density.

 **********************************************************************

 Orbital symmetries:
       Occupied  (A) (A) (A) (A) (A) (A) (A) (A) (A) (A) (A) (A)
                 (A) (A) (A) (A) (A) (A) (A) (A) (A) (A) (A) (A)
                 (A)
       Virtual   (A) (A) (A) (A) (A) (A) (A) (A) (A) (A) (A) (A)
                 (A) (A) (A) (A) (A) (A) (A) (A) (A) (A) (A) (A)
                 (A) (A) (A) (A) (A) (A) (A) (A) (A) (A) (A) (A)
                 (A) (A) (A) (A) (A) (A) (A) (A) (A) (A) (A) (A)
                 (A) (A) (A) (A) (A) (A) (A) (A) (A) (A) (A) (A)
                 (A) (A) (A) (A) (A) (A) (A) (A) (A) (A) (A) (A)
                 (A) (A) (A) (A) (A) (A) (A) (A) (A) (A) (A) (A)
                 (A) (A) (A) (A) (A) (A) (A) (A) (A) (A) (A) (A)
                 (A) (A) (A) (A) (A) (A) (A) (A) (A) (A) (A) (A)
                 (A) (A) (A) (A) (A) (A) (A) (A) (A) (A) (A) (A)
                 (A) (A) (A) (A) (A) (A) (A) (A) (A) (A) (A) (A)
                 (A) (A) (A) (A) (A) (A) (A) (A) (A) (A) (A) (A)
                 (A) (A) (A) (A) (A) (A) (A) (A) (A) (A) (A) (A)
                 (A) (A) (A) (A) (A) (A) (A) (A) (A)
 The electronic state is 1-A.
 Alpha  occ. eigenvalues --  -19.16158 -10.24148 -10.18236 -10.18033 -10.18031
 Alpha  occ. eigenvalues --  -10.17408 -10.17231  -1.07462  -0.86054  -0.75807
 Alpha  occ. eigenvalues --   -0.74730  -0.63461  -0.61138  -0.55535  -0.50743
 Alpha  occ. eigenvalues --   -0.47594  -0.44701  -0.43209  -0.42019  -0.40005
 Alpha  occ. eigenvalues --   -0.37056  -0.34913  -0.34729  -0.26376  -0.23467
 Alpha virt. eigenvalues --   -0.02014  -0.00511  -0.00503   0.01031   0.02433
 Alpha virt. eigenvalues --    0.03791   0.04794   0.06183   0.06768   0.07659
 Alpha virt. eigenvalues --    0.08675   0.09177   0.09576   0.12980   0.13050
 Alpha virt. eigenvalues --    0.13550   0.13835   0.13855   0.14221   0.14508
 Alpha virt. eigenvalues --    0.15857   0.17229   0.18369   0.19567   0.19767
 Alpha virt. eigenvalues --    0.20286   0.20534   0.21391   0.21600   0.22821
 Alpha virt. eigenvalues --    0.23691   0.25079   0.25539   0.26155   0.27747
 Alpha virt. eigenvalues --    0.28858   0.30909   0.31903   0.34388   0.35099
 Alpha virt. eigenvalues --    0.36319   0.36561   0.45652   0.48492   0.51111
 Alpha virt. eigenvalues --    0.52461   0.52724   0.53970   0.55829   0.56226
 Alpha virt. eigenvalues --    0.57044   0.57454   0.58900   0.61046   0.61493
 Alpha virt. eigenvalues --    0.61954   0.66849   0.67750   0.69412   0.72052
 Alpha virt. eigenvalues --    0.72222   0.74102   0.78805   0.82097   0.82325
 Alpha virt. eigenvalues --    0.82604   0.84904   0.85346   0.85575   0.88616
 Alpha virt. eigenvalues --    0.90517   0.96606   1.00096   1.00129   1.01741
 Alpha virt. eigenvalues --    1.06060   1.07549   1.10720   1.11681   1.13062
 Alpha virt. eigenvalues --    1.21270   1.22626   1.28481   1.32955   1.40120
 Alpha virt. eigenvalues --    1.46984   1.48876   1.50394   1.55069   1.56264
 Alpha virt. eigenvalues --    1.56843   1.57917   1.61054   1.64415   1.65875
 Alpha virt. eigenvalues --    1.67856   1.73259   1.73492   1.76957   1.79842
 Alpha virt. eigenvalues --    1.81428   1.87593   1.91425   1.92609   1.93222
 Alpha virt. eigenvalues --    1.95048   1.95544   1.97235   1.99636   2.00686
 Alpha virt. eigenvalues --    2.05568   2.07847   2.09225   2.26971   2.31581
 Alpha virt. eigenvalues --    2.33524   2.37559   2.38920   2.40486   2.47061
 Alpha virt. eigenvalues --    2.57541   2.62881   2.62895   2.65201   2.67309
 Alpha virt. eigenvalues --    2.70820   2.73126   2.74535   2.74617   2.75932
 Alpha virt. eigenvalues --    2.78391   2.81558   2.82802   2.86898   2.88225
 Alpha virt. eigenvalues --    2.93357   3.07243   3.08615   3.09153   3.12943
 Alpha virt. eigenvalues --    3.17649   3.32156   3.36222   3.44038   3.49089
 Alpha virt. eigenvalues --    3.50522   3.60043   3.66968   3.89620   3.97959
 Alpha virt. eigenvalues --    4.02883   4.11987   4.14294   4.15418   4.84532
 Alpha virt. eigenvalues --    4.98404   5.43466   5.74732  23.55566  23.92808
 Alpha virt. eigenvalues --   23.95939  24.07551  24.10602  24.20404  49.92414
          Condensed to atoms (all electrons):
              1          2          3          4          5          6
     1  C    5.081111   0.555988   0.032313  -0.227605   0.119507   0.218431
     2  C    0.555988   4.901827   0.525672   0.003689  -0.200339   0.008820
     3  C    0.032313   0.525672   4.955125   0.140294   0.191602  -0.072436
     4  C   -0.227605   0.003689   0.140294   6.274354  -0.029025  -0.373479
     5  C    0.119507  -0.200339   0.191602  -0.029025   5.941201  -0.147295
     6  C    0.218431   0.008820  -0.072436  -0.373479  -0.147295   6.121883
     7  H    0.368822  -0.028022  -0.003412  -0.000936   0.025663  -0.012881
     8  H   -0.006676   0.380188  -0.007535  -0.015174   0.010099  -0.009155
     9  H    0.001075  -0.013062   0.404335  -0.049967   0.007152  -0.000616
    10  H    0.007002  -0.013091   0.017589   0.356965   0.030005  -0.036933
    11  O   -0.005619   0.010522   0.023556  -0.269219   0.293117  -0.006945
    12  H    0.097452  -0.013134   0.014619  -0.068230  -0.043203   0.363833
    13  H    0.005183  -0.001677  -0.008899   0.089102   0.061337  -0.136566
              7          8          9         10         11         12
     1  C    0.368822  -0.006676   0.001075   0.007002  -0.005619   0.097452
     2  C   -0.028022   0.380188  -0.013062  -0.013091   0.010522  -0.013134
     3  C   -0.003412  -0.007535   0.404335   0.017589   0.023556   0.014619
     4  C   -0.000936  -0.015174  -0.049967   0.356965  -0.269219  -0.068230
     5  C    0.025663   0.010099   0.007152   0.030005   0.293117  -0.043203
     6  C   -0.012881  -0.009155  -0.000616  -0.036933  -0.006945   0.363833
     7  H    0.541563  -0.007915  -0.000317   0.000061  -0.000784  -0.008306
     8  H   -0.007915   0.542102  -0.007879  -0.000209   0.000113  -0.000250
     9  H   -0.000317  -0.007879   0.539231  -0.007737  -0.000764   0.000067
    10  H    0.000061  -0.000209  -0.007737   0.526414  -0.008627  -0.000152
    11  O   -0.000784   0.000113  -0.000764  -0.008627   8.012058  -0.014375
    12  H   -0.008306  -0.000250   0.000067  -0.000152  -0.014375   0.561029
    13  H   -0.000010  -0.000005   0.000022   0.000122   0.236937   0.007605
             13
     1  C    0.005183
     2  C   -0.001677
     3  C   -0.008899
     4  C    0.089102
     5  C    0.061337
     6  C   -0.136566
     7  H   -0.000010
     8  H   -0.000005
     9  H    0.000022
    10  H    0.000122
    11  O    0.236937
    12  H    0.007605
    13  H    0.501306
 Mulliken atomic charges:
              1
     1  C   -0.246983
     2  C   -0.117382
     3  C   -0.212823
     4  C    0.169231
     5  C   -0.259821
     6  C    0.083339
     7  H    0.126474
     8  H    0.122295
     9  H    0.128460
    10  H    0.128593
    11  O   -0.269972
    12  H    0.103044
    13  H    0.245543
 Sum of Mulliken charges=   0.00000
 Atomic charges with hydrogens summed into heavy atoms:
              1
     1  C   -0.120509
     2  C    0.004913
     3  C   -0.084363
     4  C    0.297824
     5  C   -0.259821
     6  C    0.186383
     7  H    0.000000
     8  H    0.000000
     9  H    0.000000
    10  H    0.000000
    11  O   -0.024428
    12  H    0.000000
    13  H    0.000000
 Sum of Mulliken charges=   0.00000
 Electronic spatial extent (au):  <R**2>=   664.9890
 Charge=     0.0000 electrons
 Dipole moment (field-independent basis, Debye):
    X=     0.0766    Y=     1.3807    Z=     0.0010  Tot=     1.3828
 Quadrupole moment (field-independent basis, Debye-Ang):
   XX=   -38.2077   YY=   -36.0655   ZZ=   -45.5399
   XY=    -4.5416   XZ=    -0.0038   YZ=     0.0008
 Traceless Quadrupole moment (field-independent basis, Debye-Ang):
   XX=     1.7300   YY=     3.8722   ZZ=    -5.6022
   XY=    -4.5416   XZ=    -0.0038   YZ=     0.0008
 Octapole moment (field-independent basis, Debye-Ang**2):
  XXX=    -7.1735  YYY=     0.2343  ZZZ=    -0.0002  XYY=    -4.8914
  XXY=    13.1296  XXZ=     0.0084  XZZ=    -5.8109  YZZ=    -0.0043
  YYZ=     0.0003  XYZ=    -0.0028
 Hexadecapole moment (field-independent basis, Debye-Ang**3):
 XXXX=  -492.3189 YYYY=  -278.3213 ZZZZ=   -53.4673 XXXY=   -38.4702
 XXXZ=    -0.0330 YYYX=    -3.0037 YYYZ=    -0.0006 ZZZX=    -0.0020
 ZZZY=     0.0005 XXYY=  -121.5978 XXZZ=  -106.5315 YYZZ=   -66.8395
 XXYZ=     0.0079 YYXZ=    -0.0013 ZZXY=    -0.7261
 N-N= 2.716440031035D+02 E-N=-1.259888388850D+03  KE= 3.063249568558D+02
 No NMR shielding tensors so no spin-rotation constants.
 Leave Link  601 at Fri Sep  1 22:01:18 2006, MaxMem=    6291456 cpu:       1.1
 (Enter /usr/local/Gaussian/g03/l701.exe)
 Compute integral first derivatives.
 ... and contract with generalized density number  0.
 Leave Link  701 at Fri Sep  1 22:01:22 2006, MaxMem=    6291456 cpu:       1.0
 (Enter /usr/local/Gaussian/g03/l702.exe)
 L702 exits ... SP integral derivatives will be done elsewhere.
 Leave Link  702 at Fri Sep  1 22:01:22 2006, MaxMem=    6291456 cpu:       0.0
 (Enter /usr/local/Gaussian/g03/l703.exe)
 Compute integral first derivatives, UseDBF=F.
 Integral derivatives from FoFDir, PRISM(SPDF).
 Symmetry not used in FoFDir.
 MinBra= 0 MaxBra= 2 Meth= 1.
 IRaf=       0 NMat=   1 IRICut=       1 DoRegI=T DoRafI=F ISym2E= 0 JSym2E=0.
 Leave Link  703 at Fri Sep  1 22:17:32 2006, MaxMem=    6291456 cpu:     309.0
 (Enter /usr/local/Gaussian/g03/l716.exe)
 Dipole        = 3.01405673D-02 5.43197659D-01 3.74167539D-04
 ***** Axes restored to original set *****
 -------------------------------------------------------------------
 Center     Atomic                   Forces (Hartrees/Bohr)
 Number     Number              X              Y              Z
 -------------------------------------------------------------------
    1          6          -0.002422200   -0.000010926   -0.001241329
    2          6          -0.002248346    0.000022610    0.001491355
    3          6          -0.000174452   -0.000011015    0.002732804
    4          6           0.003058813   -0.000003430   -0.000115427
    5          6          -0.002880228    0.000013034    0.002430827
    6          6           0.001214927   -0.000001848   -0.002834753
    7          1          -0.000086755    0.000003991   -0.000101663
    8          1          -0.000138003   -0.000009874    0.000072304
    9          1           0.000005939    0.000003581    0.000142801
   10          1           0.000111097    0.000001405    0.000393329
   11          8           0.002879132   -0.000009300   -0.001462334
   12          1          -0.000048172   -0.000001775   -0.000186239
   13          1           0.000728250    0.000003547   -0.001321673
 -------------------------------------------------------------------
 Cartesian Forces:  Max     0.003058813 RMS     0.001322825
 Leave Link  716 at Fri Sep  1 22:17:33 2006, MaxMem=    6291456 cpu:       0.0
 (Enter /usr/local/Gaussian/g03/l103.exe)

 GradGradGradGradGradGradGradGradGradGradGradGradGradGradGradGradGradGrad
 Berny optimization.
 Internal  Forces:  Max     0.004488911 RMS     0.001068102
 Search for a local minimum.
 Step number   1 out of a maximum of  68
 All quantities printed in internal units (Hartrees-Bohrs-Radians)
 Second derivative matrix not updated -- first step.
     Eigenvalues ---    0.02161   0.02166   0.02170   0.02185   0.02197
     Eigenvalues ---    0.02201   0.02210   0.02213   0.02217   0.02227
     Eigenvalues ---    0.16000   0.16000   0.16000   0.16000   0.16000
     Eigenvalues ---    0.16000   0.22000   0.22000   0.23485   0.25000
     Eigenvalues ---    0.35242   0.35490   0.35496   0.35610   0.35624
     Eigenvalues ---    0.42545   0.42707   0.46647   0.46754   0.47188
     Eigenvalues ---    0.47536   0.52114   0.551041000.000001000.00000
     Eigenvalues --- 1000.000001000.000001000.000001000.000001000.00000
     Eigenvalues --- 1000.000001000.000001000.000001000.000001000.00000
     Eigenvalues --- 1000.000001000.000001000.000001000.000001000.00000
     Eigenvalues --- 1000.000001000.000001000.000001000.000001000.00000
     Eigenvalues --- 1000.000001000.000001000.00000
 RFO step:  Lambda=-1.49893497D-04.
 Linear search not attempted -- first point.
 Iteration  1 RMS(Cart)=  0.00462089 RMS(Int)=  0.00001065
 Iteration  2 RMS(Cart)=  0.00000918 RMS(Int)=  0.00000009
 Iteration  3 RMS(Cart)=  0.00000000 RMS(Int)=  0.00000009
 Variable       Old X    -DE/DX   Delta X   Delta X   Delta X     New X
                                 (Linear)    (Quad)   (Total)
    R1        2.62622   0.00291   0.00000   0.00622   0.00622   2.63244
    R2        2.62858   0.00293   0.00000   0.00622   0.00622   2.63480
    R3        2.04877   0.00013   0.00000   0.00036   0.00036   2.04913
    R4        2.63246   0.00276   0.00000   0.00599   0.00599   2.63844
    R5        2.04696   0.00016   0.00000   0.00044   0.00044   2.04739
    R6        2.62219   0.00300   0.00000   0.00629   0.00629   2.62847
    R7        2.04886   0.00014   0.00000   0.00040   0.00040   2.04926
    R8        2.63572   0.00181   0.00000   0.00381   0.00381   2.63953
    R9        2.04673   0.00029   0.00000   0.00080   0.00080   2.04753
   R10        2.63509   0.00187   0.00000   0.00392   0.00392   2.63901
   R11        2.57790   0.00449   0.00000   0.00861   0.00861   2.58651
   R12        2.05284   0.00019   0.00000   0.00053   0.00053   2.05337
   R13        1.81740   0.00120   0.00000   0.00218   0.00218   1.81957
    A1        2.10364  -0.00009   0.00000  -0.00015  -0.00015   2.10349
    A2        2.09703   0.00009   0.00000   0.00037   0.00037   2.09740
    A3        2.08252   0.00000   0.00000  -0.00022  -0.00022   2.08230
    A4        2.08137  -0.00009   0.00000   0.00005   0.00005   2.08142
    A5        2.10063   0.00003   0.00000  -0.00009  -0.00009   2.10055
    A6        2.10119   0.00005   0.00000   0.00004   0.00004   2.10122
    A7        2.10763  -0.00008   0.00000  -0.00013  -0.00013   2.10750
    A8        2.09388   0.00004   0.00000   0.00008   0.00008   2.09396
    A9        2.08167   0.00004   0.00000   0.00005   0.00005   2.08172
   A10        2.08943  -0.00022   0.00000  -0.00115  -0.00115   2.08829
   A11        2.12097  -0.00019   0.00000  -0.00131  -0.00131   2.11966
   A12        2.07278   0.00041   0.00000   0.00246   0.00246   2.07524
   A13        2.09217   0.00071   0.00000   0.00255   0.00255   2.09472
   A14        2.04969  -0.00018   0.00000  -0.00056  -0.00056   2.04913
   A15        2.14132  -0.00053   0.00000  -0.00199  -0.00199   2.13933
   A16        2.09213  -0.00023   0.00000  -0.00118  -0.00118   2.09095
   A17        2.09777   0.00007   0.00000   0.00030   0.00030   2.09806
   A18        2.09329   0.00016   0.00000   0.00088   0.00088   2.09417
   A19        1.90901   0.00166   0.00000   0.01037   0.01037   1.91938
    D1        0.00009   0.00000   0.00000  -0.00014  -0.00014  -0.00005
    D2        3.14139   0.00000   0.00000   0.00015   0.00015   3.14154
    D3       -3.14158   0.00000   0.00000  -0.00006  -0.00006   3.14155
    D4       -0.00028   0.00001   0.00000   0.00024   0.00024  -0.00004
    D5       -0.00001   0.00000   0.00000   0.00003   0.00003   0.00003
    D6       -3.14154   0.00000   0.00000   0.00000   0.00000  -3.14155
    D7       -3.14152   0.00000   0.00000  -0.00005  -0.00005  -3.14157
    D8        0.00013   0.00000   0.00000  -0.00009  -0.00009   0.00004
    D9       -0.00012   0.00000   0.00000   0.00015   0.00015   0.00002
   D10        3.14159   0.00000   0.00000   0.00005   0.00005  -3.14155
   D11       -3.14142   0.00000   0.00000  -0.00015  -0.00015  -3.14157
   D12        0.00029  -0.00001   0.00000  -0.00025  -0.00025   0.00004
   D13        0.00006   0.00000   0.00000  -0.00004  -0.00004   0.00002
   D14       -3.14151   0.00000   0.00000  -0.00007  -0.00007  -3.14158
   D15        3.14154   0.00000   0.00000   0.00006   0.00006  -3.14159
   D16       -0.00003   0.00000   0.00000   0.00003   0.00003   0.00000
   D17        0.00003   0.00000   0.00000  -0.00007  -0.00007  -0.00004
   D18        3.14147   0.00000   0.00000   0.00009   0.00009   3.14156
   D19       -3.14159   0.00000   0.00000  -0.00004  -0.00004   3.14156
   D20       -0.00015   0.00000   0.00000   0.00011   0.00011  -0.00003
   D21       -0.00006   0.00000   0.00000   0.00007   0.00007   0.00001
   D22        3.14148   0.00000   0.00000   0.00011   0.00011   3.14159
   D23       -3.14149   0.00000   0.00000  -0.00009  -0.00009  -3.14158
   D24        0.00005   0.00000   0.00000  -0.00005  -0.00005  -0.00001
   D25        3.14089   0.00000   0.00000   0.00008   0.00008   3.14097
   D26       -0.00086   0.00001   0.00000   0.00024   0.00024  -0.00062
         Item               Value     Threshold  Converged?
 Maximum Force            0.004489     0.000450     NO 
 RMS     Force            0.001068     0.000300     NO 
 Maximum Displacement     0.022482     0.001800     NO 
 RMS     Displacement     0.004620     0.001200     NO 
 Predicted change in Energy=-7.497609D-05
 GradGradGradGradGradGradGradGradGradGradGradGradGradGradGradGradGradGrad

 Leave Link  103 at Fri Sep  1 22:17:35 2006, MaxMem=    6291456 cpu:       0.3
 (Enter /usr/local/Gaussian/g03/l202.exe)
                          Input orientation:                          
 ---------------------------------------------------------------------
 Center     Atomic     Atomic              Coordinates (Angstroms)
 Number     Number      Type              X           Y           Z
 ---------------------------------------------------------------------
    1          6             0       -0.004045    0.000003   -0.000705
    2          6             0       -0.003550    0.000082    1.392321
    3          6             0        1.214799   -0.000010    2.074238
    4          6             0        2.419220   -0.000152    1.378500
    5          6             0        2.410371   -0.000180   -0.018252
    6          6             0        1.196791   -0.000111   -0.709222
    7          1             0       -0.941683    0.000035   -0.545366
    8          1             0       -0.938286    0.000217    1.940133
    9          1             0        1.228789    0.000011    3.158570
   10          1             0        3.371068   -0.000241    1.896161
   11          8             0        3.621456   -0.000281   -0.655966
   12          1             0        1.190508   -0.000128   -1.795800
   13          1             0        3.490820   -0.000852   -1.609940
 ---------------------------------------------------------------------
                    Distance matrix (angstroms):
                    1          2          3          4          5
     1  C    0.000000
     2  C    1.393026   0.000000
     3  C    2.406443   1.396203   0.000000
     4  C    2.788264   2.422809   1.390929   0.000000
     5  C    2.414480   2.795842   2.409960   1.396780   0.000000
     6  C    1.394275   2.420186   2.783519   2.419280   1.396502
     7  H    1.084353   2.152842   3.393043   3.872587   3.393246
     8  H    2.153986   1.083434   2.157257   3.404156   3.879275
     9  H    3.391297   2.153669   1.084422   2.141442   3.389445
    10  H    3.871626   3.412022   2.163610   1.083507   2.141942
    11  O    3.684240   4.163670   3.639507   2.363138   1.368724
    12  H    2.156229   3.404393   3.870114   3.403809   2.155863
    13  H    3.847560   4.606972   4.330525   3.174760   1.923757
                    6          7          8          9         10
     6  C    0.000000
     7  H    2.144742   0.000000
     8  H    3.402592   2.485502   0.000000
     9  H    3.867925   4.293028   2.486121   0.000000
    10  H    3.393450   4.955893   4.309578   2.486571   0.000000
    11  O    2.425250   4.564479   5.246997   4.502837   2.564381
    12  H    1.086596   2.471806   4.299879   4.954518   4.287822
    13  H    2.464521   4.558553   5.676266   5.277828   3.508146
                   11         12         13
    11  O    0.000000
    12  H    2.684908   0.000000
    13  H    0.962877   2.307809   0.000000
 Stoichiometry    C6H6O
 Framework group  C1[X(C6H6O)]
 Deg. of freedom    33
 Full point group                 C1      NOp   1
 Largest Abelian subgroup         C1      NOp   1
 Largest concise Abelian subgroup C1      NOp   1
                         Standard orientation:                         
 ---------------------------------------------------------------------
 Center     Atomic     Atomic              Coordinates (Angstroms)
 Number     Number      Type              X           Y           Z
 ---------------------------------------------------------------------
    1          6             0        1.131041    1.217512    0.000009
    2          6             0        1.855859    0.027906   -0.000006
    3          6             0        1.170670   -1.188605    0.000011
    4          6             0       -0.219867   -1.221641    0.000014
    5          6             0       -0.939492   -0.024505   -0.000022
    6          6             0       -0.263086    1.197254   -0.000016
    7          1             0        1.648022    2.170692    0.000035
    8          1             0        2.939127    0.046836   -0.000033
    9          1             0        1.723252   -2.121677    0.000038
   10          1             0       -0.763036   -2.159166    0.000042
   11          8             0       -2.305508   -0.110550   -0.000057
   12          1             0       -0.823419    2.128231   -0.000048
   13          1             0       -2.690633    0.771953    0.000481
 ---------------------------------------------------------------------
 Rotational constants (GHZ):      5.6678677      2.6165104      1.7901205
 Leave Link  202 at Fri Sep  1 22:17:37 2006, MaxMem=    6291456 cpu:       0.5
 (Enter /usr/local/Gaussian/g03/l301.exe)
 Standard basis: 6-311+G(d,p) (5D, 7F)
 There are   190 symmetry adapted basis functions of A   symmetry.
 Integral buffers will be    131072 words long.
 Raffenetti 2 integral format.
 Two-electron integral symmetry is turned on.
   190 basis functions,   300 primitive gaussians,   197 cartesian basis functions
    25 alpha electrons       25 beta electrons
       nuclear repulsion energy       271.0909357579 Hartrees.
 IExCor= 402 DFT=T Ex=B+HF Corr=LYP ExCW=0 ScaHFX=  0.200000
 ScaDFX=  0.800000  0.720000  1.000000  0.810000
 IRadAn=      0 IRanWt=     -1 IRanGd=            0 ICorTp=0
 NAtoms=   13 NActive=   13 NUniq=   13 SFac= 1.00D+00 NAtFMM=   60 Big=F
 Leave Link  301 at Fri Sep  1 22:17:38 2006, MaxMem=    6291456 cpu:       0.1
 (Enter /usr/local/Gaussian/g03/l302.exe)
 NPDir=0 NMtPBC=     1 NCelOv=     1 NCel=       1 NClECP=     1 NCelD=      1
         NCelK=      1 NCelE2=     1 NClLst=     1 CellRange=     0.0.
 One-electron integrals computed using PRISM.
 NBasis=   190 RedAO= T  NBF=   190
 NBsUse=   190 1.00D-06 NBFU=   190
 Precomputing XC quadrature grid using
 IXCGrd= 2 IRadAn=           0 IRanWt=          -1 IRanGd=           0.
 NRdTot=     833 NPtTot=      105622 NUsed=      111506 NTot=      111538
 NSgBfM=   197   197   197   197.
 Leave Link  302 at Fri Sep  1 22:17:47 2006, MaxMem=    6291456 cpu:       2.2
 (Enter /usr/local/Gaussian/g03/l303.exe)
 DipDrv:  MaxL=1.
 Leave Link  303 at Fri Sep  1 22:17:48 2006, MaxMem=    6291456 cpu:       0.1
 (Enter /usr/local/Gaussian/g03/l401.exe)
 Initial guess read from the read-write file:
 Guess basis will be translated and rotated to current coordinates.
 Initial guess orbital symmetries:
       Occupied  (A) (A) (A) (A) (A) (A) (A) (A) (A) (A) (A) (A)
                 (A) (A) (A) (A) (A) (A) (A) (A) (A) (A) (A) (A)
                 (A)
       Virtual   (A) (A) (A) (A) (A) (A) (A) (A) (A) (A) (A) (A)
                 (A) (A) (A) (A) (A) (A) (A) (A) (A) (A) (A) (A)
                 (A) (A) (A) (A) (A) (A) (A) (A) (A) (A) (A) (A)
                 (A) (A) (A) (A) (A) (A) (A) (A) (A) (A) (A) (A)
                 (A) (A) (A) (A) (A) (A) (A) (A) (A) (A) (A) (A)
                 (A) (A) (A) (A) (A) (A) (A) (A) (A) (A) (A) (A)
                 (A) (A) (A) (A) (A) (A) (A) (A) (A) (A) (A) (A)
                 (A) (A) (A) (A) (A) (A) (A) (A) (A) (A) (A) (A)
                 (A) (A) (A) (A) (A) (A) (A) (A) (A) (A) (A) (A)
                 (A) (A) (A) (A) (A) (A) (A) (A) (A) (A) (A) (A)
                 (A) (A) (A) (A) (A) (A) (A) (A) (A) (A) (A) (A)
                 (A) (A) (A) (A) (A) (A) (A) (A) (A) (A) (A) (A)
                 (A) (A) (A) (A) (A) (A) (A) (A) (A) (A) (A) (A)
                 (A) (A) (A) (A) (A) (A) (A) (A) (A)
 The electronic state of the initial guess is 1-A.
 Generating alternative initial guess.
 Harris functional with IExCor=  402 diagonalized for initial guess.
 ExpMin= 4.38D-02 ExpMax= 8.59D+03 ExpMxC= 1.30D+03 IAcc=2 IRadAn=         4 AccDes= 0.00D+00
 HarFok:  IExCor= 402 AccDes= 0.00D+00 IRadAn=         4 IDoV=1
 ScaDFX=  1.000000  1.000000  1.000000  1.000000
 Harris En= -307.683941865695    
 Leave Link  401 at Fri Sep  1 22:19:03 2006, MaxMem=    6291456 cpu:      24.0
 (Enter /usr/local/Gaussian/g03/l502.exe)
 Closed shell SCF:
 Requested convergence on RMS density matrix=1.00D-08 within 128 cycles.
 Requested convergence on MAX density matrix=1.00D-06.
 Requested convergence on             energy=1.00D-06.
 No special actions if energy rises.
 Using DIIS extrapolation, IDIIS=  1040.
 Integral symmetry usage will be decided dynamically.
       111505 words used for storage of precomputed grid.
 IEnd=    266795 IEndB=    266795 NGot=   6291456 MDV=   6080308
 LenX=   6080308
 Fock matrices will be formed incrementally for  20 cycles.

 Cycle   1  Pass 1  IDiag  1:
 Petite list used in FoFDir.
 MinBra= 0 MaxBra= 2 Meth= 1.
 IRaf=       0 NMat=   1 IRICut=       1 DoRegI=T DoRafI=F ISym2E= 1 JSym2E=1.
 E= -307.558592296985    
 DIIS: error= 3.40D-04 at cycle   1 NSaved=   1.
 NSaved= 1 IEnMin= 1 EnMin= -307.558592296985     IErMin= 1 ErrMin= 3.40D-04
 ErrMax= 3.40D-04 EMaxC= 1.00D-01 BMatC= 3.43D-05 BMatP= 3.43D-05
 IDIUse=3 WtCom= 9.97D-01 WtEn= 3.40D-03
 Coeff-Com:  0.100D+01
 Coeff-En:   0.100D+01
 Coeff:      0.100D+01
 Gap=     0.214 Goal=   None    Shift=    0.000
 RMSDP=2.00D-04 MaxDP=6.17D-03              OVMax= 1.56D-03

 Cycle   2  Pass 1  IDiag  1:
 RMSU=  1.91D-04    CP:  9.96D-01
 E= -307.558622529078     Delta-E=       -0.000030232093 Rises=F Damp=F
 DIIS: error= 1.96D-04 at cycle   2 NSaved=   2.
 NSaved= 2 IEnMin= 2 EnMin= -307.558622529078     IErMin= 2 ErrMin= 1.96D-04
 ErrMax= 1.96D-04 EMaxC= 1.00D-01 BMatC= 4.11D-06 BMatP= 3.43D-05
 IDIUse=3 WtCom= 9.98D-01 WtEn= 1.96D-03
 Coeff-Com:  0.163D+00 0.837D+00
 Coeff-En:   0.000D+00 0.100D+01
 Coeff:      0.162D+00 0.838D+00
 Gap=     0.214 Goal=   None    Shift=    0.000
 RMSDP=2.33D-05 MaxDP=8.06D-04 DE=-3.02D-05 OVMax= 8.59D-04

 Cycle   3  Pass 1  IDiag  1:
 RMSU=  2.29D-05    CP:  9.97D-01  9.86D-01
 E= -307.558623514143     Delta-E=       -0.000000985065 Rises=F Damp=F
 DIIS: error= 1.66D-04 at cycle   3 NSaved=   3.
 NSaved= 3 IEnMin= 3 EnMin= -307.558623514143     IErMin= 3 ErrMin= 1.66D-04
 ErrMax= 1.66D-04 EMaxC= 1.00D-01 BMatC= 3.14D-06 BMatP= 4.11D-06
 IDIUse=3 WtCom= 9.98D-01 WtEn= 1.66D-03
 Coeff-Com: -0.891D-02 0.466D+00 0.543D+00
 Coeff-En:   0.000D+00 0.428D+00 0.572D+00
 Coeff:     -0.889D-02 0.466D+00 0.543D+00
 Gap=     0.214 Goal=   None    Shift=    0.000
 RMSDP=2.15D-05 MaxDP=8.13D-04 DE=-9.85D-07 OVMax= 4.87D-04

 Cycle   4  Pass 1  IDiag  1:
 RMSU=  1.24D-05    CP:  9.96D-01  1.04D+00  5.00D-01
 E= -307.558626189632     Delta-E=       -0.000002675489 Rises=F Damp=F
 DIIS: error= 4.31D-05 at cycle   4 NSaved=   4.
 NSaved= 4 IEnMin= 4 EnMin= -307.558626189632     IErMin= 4 ErrMin= 4.31D-05
 ErrMax= 4.31D-05 EMaxC= 1.00D-01 BMatC= 1.05D-07 BMatP= 3.14D-06
 IDIUse=1 WtCom= 1.00D+00 WtEn= 0.00D+00
 Coeff-Com: -0.797D-02 0.222D+00 0.294D+00 0.492D+00
 Coeff:     -0.797D-02 0.222D+00 0.294D+00 0.492D+00
 Gap=     0.214 Goal=   None    Shift=    0.000
 RMSDP=2.98D-06 MaxDP=8.85D-05 DE=-2.68D-06 OVMax= 1.56D-04

 Cycle   5  Pass 1  IDiag  1:
 RMSU=  2.67D-06    CP:  9.96D-01  1.04D+00  5.12D-01  9.27D-01
 E= -307.558626269823     Delta-E=       -0.000000080191 Rises=F Damp=F
 DIIS: error= 8.90D-06 at cycle   5 NSaved=   5.
 NSaved= 5 IEnMin= 5 EnMin= -307.558626269823     IErMin= 5 ErrMin= 8.90D-06
 ErrMax= 8.90D-06 EMaxC= 1.00D-01 BMatC= 1.05D-08 BMatP= 1.05D-07
 IDIUse=1 WtCom= 1.00D+00 WtEn= 0.00D+00
 Coeff-Com: -0.289D-02 0.389D-01 0.670D-01 0.264D+00 0.633D+00
 Coeff:     -0.289D-02 0.389D-01 0.670D-01 0.264D+00 0.633D+00
 Gap=     0.214 Goal=   None    Shift=    0.000
 RMSDP=1.09D-06 MaxDP=5.02D-05 DE=-8.02D-08 OVMax= 3.12D-05

 Cycle   6  Pass 1  IDiag  1:
 RMSU=  9.44D-07    CP:  9.96D-01  1.04D+00  5.22D-01  9.36D-01  8.37D-01
 E= -307.558626278986     Delta-E=       -0.000000009163 Rises=F Damp=F
 DIIS: error= 3.96D-06 at cycle   6 NSaved=   6.
 NSaved= 6 IEnMin= 6 EnMin= -307.558626278986     IErMin= 6 ErrMin= 3.96D-06
 ErrMax= 3.96D-06 EMaxC= 1.00D-01 BMatC= 6.03D-10 BMatP= 1.05D-08
 IDIUse=1 WtCom= 1.00D+00 WtEn= 0.00D+00
 Coeff-Com: -0.855D-03 0.577D-02 0.150D-01 0.102D+00 0.292D+00 0.586D+00
 Coeff:     -0.855D-03 0.577D-02 0.150D-01 0.102D+00 0.292D+00 0.586D+00
 Gap=     0.214 Goal=   None    Shift=    0.000
 RMSDP=2.56D-07 MaxDP=6.06D-06 DE=-9.16D-09 OVMax= 1.80D-05

 Cycle   7  Pass 1  IDiag  1:
 RMSU=  2.12D-07    CP:  9.96D-01  1.04D+00  5.24D-01  9.38D-01  8.04D-01
                    CP:  8.91D-01
 E= -307.558626279396     Delta-E=       -0.000000000410 Rises=F Damp=F
 DIIS: error= 2.53D-06 at cycle   7 NSaved=   7.
 NSaved= 7 IEnMin= 7 EnMin= -307.558626279396     IErMin= 7 ErrMin= 2.53D-06
 ErrMax= 2.53D-06 EMaxC= 1.00D-01 BMatC= 1.97D-10 BMatP= 6.03D-10
 IDIUse=1 WtCom= 1.00D+00 WtEn= 0.00D+00
 Coeff-Com: -0.153D-03-0.152D-02 0.294D-04 0.271D-01 0.864D-01 0.382D+00
 Coeff-Com:  0.506D+00
 Coeff:     -0.153D-03-0.152D-02 0.294D-04 0.271D-01 0.864D-01 0.382D+00
 Coeff:      0.506D+00
 Gap=     0.214 Goal=   None    Shift=    0.000
 RMSDP=1.14D-07 MaxDP=3.29D-06 DE=-4.10D-10 OVMax= 7.58D-06

 Cycle   8  Pass 1  IDiag  1:
 RMSU=  7.38D-08    CP:  9.96D-01  1.04D+00  5.23D-01  9.42D-01  7.96D-01
                    CP:  8.94D-01  7.46D-01
 E= -307.558626279612     Delta-E=       -0.000000000216 Rises=F Damp=F
 DIIS: error= 2.05D-07 at cycle   8 NSaved=   8.
 NSaved= 8 IEnMin= 8 EnMin= -307.558626279612     IErMin= 8 ErrMin= 2.05D-07
 ErrMax= 2.05D-07 EMaxC= 1.00D-01 BMatC= 4.82D-12 BMatP= 1.97D-10
 IDIUse=1 WtCom= 1.00D+00 WtEn= 0.00D+00
 Coeff-Com: -0.180D-04-0.851D-03-0.826D-03 0.699D-02 0.217D-01 0.128D+00
 Coeff-Com:  0.204D+00 0.640D+00
 Coeff:     -0.180D-04-0.851D-03-0.826D-03 0.699D-02 0.217D-01 0.128D+00
 Coeff:      0.204D+00 0.640D+00
 Gap=     0.214 Goal=   None    Shift=    0.000
 RMSDP=2.01D-08 MaxDP=5.86D-07 DE=-2.16D-10 OVMax= 1.39D-06

 Cycle   9  Pass 1  IDiag  1:
 RMSU=  1.55D-08    CP:  9.96D-01  1.04D+00  5.23D-01  9.43D-01  7.94D-01
                    CP:  8.99D-01  7.77D-01  9.98D-01
 E= -307.558626279614     Delta-E=       -0.000000000001 Rises=F Damp=F
 DIIS: error= 8.21D-08 at cycle   9 NSaved=   9.
 NSaved= 9 IEnMin= 9 EnMin= -307.558626279614     IErMin= 9 ErrMin= 8.21D-08
 ErrMax= 8.21D-08 EMaxC= 1.00D-01 BMatC= 1.44D-12 BMatP= 4.82D-12
 IDIUse=1 WtCom= 1.00D+00 WtEn= 0.00D+00
 Coeff-Com:  0.134D-04-0.293D-03-0.631D-03-0.691D-03-0.328D-02 0.720D-02
 Coeff-Com:  0.293D-01 0.378D+00 0.590D+00
 Coeff:      0.134D-04-0.293D-03-0.631D-03-0.691D-03-0.328D-02 0.720D-02
 Coeff:      0.293D-01 0.378D+00 0.590D+00
 Gap=     0.214 Goal=   None    Shift=    0.000
 RMSDP=1.06D-08 MaxDP=4.53D-07 DE=-1.48D-12 OVMax= 3.11D-07

 Cycle  10  Pass 1  IDiag  1:
 RMSU=  4.18D-09    CP:  9.96D-01  1.04D+00  5.23D-01  9.43D-01  7.94D-01
                    CP:  9.01D-01  7.78D-01  1.04D+00  6.99D-01
 E= -307.558626279594     Delta-E=        0.000000000020 Rises=F Damp=F
 DIIS: error= 9.01D-09 at cycle  10 NSaved=  10.
 NSaved=10 IEnMin= 9 EnMin= -307.558626279614     IErMin=10 ErrMin= 9.01D-09
 ErrMax= 9.01D-09 EMaxC= 1.00D-01 BMatC= 9.90D-15 BMatP= 1.44D-12
 IDIUse=1 WtCom= 1.00D+00 WtEn= 0.00D+00
 Coeff-Com:  0.359D-05-0.211D-04-0.857D-04-0.293D-03-0.143D-02-0.447D-02
 Coeff-Com: -0.166D-02 0.579D-01 0.952D-01 0.855D+00
 Coeff:      0.359D-05-0.211D-04-0.857D-04-0.293D-03-0.143D-02-0.447D-02
 Coeff:     -0.166D-02 0.579D-01 0.952D-01 0.855D+00
 Gap=     0.214 Goal=   None    Shift=    0.000
 RMSDP=1.39D-09 MaxDP=4.16D-08 DE= 1.97D-11 OVMax= 9.98D-08

 SCF Done:  E(RB+HF-LYP) =  -307.558626280     A.U. after   10 cycles
             Convg  =    0.1386D-08             -V/T =  2.0042
             S**2   =   0.0000
 KE= 3.062666302647D+02 PE=-1.258740361302D+03 EE= 3.738241689999D+02
 Leave Link  502 at Fri Sep  1 23:01:25 2006, MaxMem=    6291456 cpu:     805.3
 (Enter /usr/local/Gaussian/g03/l701.exe)
 Compute integral first derivatives.
 ... and contract with generalized density number  0.
 Leave Link  701 at Fri Sep  1 23:01:29 2006, MaxMem=    6291456 cpu:       1.0
 (Enter /usr/local/Gaussian/g03/l702.exe)
 L702 exits ... SP integral derivatives will be done elsewhere.
 Leave Link  702 at Fri Sep  1 23:01:30 2006, MaxMem=    6291456 cpu:       0.0
 (Enter /usr/local/Gaussian/g03/l703.exe)
 Compute integral first derivatives, UseDBF=F.
 Integral derivatives from FoFDir, PRISM(SPDF).
 Symmetry not used in FoFDir.
 MinBra= 0 MaxBra= 2 Meth= 1.
 IRaf=       0 NMat=   1 IRICut=       1 DoRegI=T DoRafI=F ISym2E= 0 JSym2E=0.
 Leave Link  703 at Fri Sep  1 23:17:54 2006, MaxMem=    6291456 cpu:     312.0
 (Enter /usr/local/Gaussian/g03/l716.exe)
 Dipole        = 3.33136260D-02 5.43401480D-01 3.45948210D-04
 ***** Axes restored to original set *****
 -------------------------------------------------------------------
 Center     Atomic                   Forces (Hartrees/Bohr)
 Number     Number              X              Y              Z
 -------------------------------------------------------------------
    1          6           0.000051463    0.000000800    0.000153893
    2          6           0.000229196   -0.000000800   -0.000064784
    3          6          -0.000219131    0.000001038   -0.000147300
    4          6           0.000626662    0.000002152   -0.000614835
    5          6          -0.001647252   -0.000003372    0.000587081
    6          6           0.000368749   -0.000000071   -0.000187020
    7          1           0.000049484    0.000001254    0.000032938
    8          1           0.000046903   -0.000001648   -0.000029877
    9          1           0.000009979    0.000000751   -0.000071045
   10          1          -0.000132672   -0.000000038    0.000044045
   11          8           0.000973472   -0.000003119   -0.000069877
   12          1          -0.000022247   -0.000000631    0.000160532
   13          1          -0.000334607    0.000003683    0.000206250
 -------------------------------------------------------------------
 Cartesian Forces:  Max     0.001647252 RMS     0.000369241
 Leave Link  716 at Fri Sep  1 23:17:54 2006, MaxMem=    6291456 cpu:       0.0
 (Enter /usr/local/Gaussian/g03/l103.exe)

 GradGradGradGradGradGradGradGradGradGradGradGradGradGradGradGradGradGrad
 Berny optimization.
 Internal  Forces:  Max     0.000682834 RMS     0.000188830
 Search for a local minimum.
 Step number   2 out of a maximum of  68
 All quantities printed in internal units (Hartrees-Bohrs-Radians)
 Update second derivatives using D2CorX and points  1  2
 Trust test= 9.37D-01 RLast= 1.98D-02 DXMaxT set to 3.00D-01
     Eigenvalues ---    0.02161   0.02166   0.02170   0.02185   0.02197
     Eigenvalues ---    0.02201   0.02210   0.02213   0.02217   0.02227
     Eigenvalues ---    0.15886   0.16000   0.16000   0.16000   0.16000
     Eigenvalues ---    0.17149   0.21990   0.22001   0.22647   0.25076
     Eigenvalues ---    0.35247   0.35493   0.35503   0.35613   0.35654
     Eigenvalues ---    0.41535   0.42675   0.46416   0.46724   0.47165
     Eigenvalues ---    0.49683   0.52249   0.557611000.000001000.00000
     Eigenvalues --- 1000.000001000.000001000.000001000.000001000.00000
     Eigenvalues --- 1000.000001000.000001000.000001000.000001000.00000
     Eigenvalues --- 1000.000001000.000001000.000001000.000001000.00000
     Eigenvalues --- 1000.000001000.000001000.000001000.000001000.00000
     Eigenvalues --- 1000.000001000.000001000.00000
 RFO step:  Lambda=-6.06771025D-06.
 Quartic linear search produced a step of -0.05547.
 Iteration  1 RMS(Cart)=  0.00084045 RMS(Int)=  0.00000092
 Iteration  2 RMS(Cart)=  0.00000098 RMS(Int)=  0.00000009
 Variable       Old X    -DE/DX   Delta X   Delta X   Delta X     New X
                                 (Linear)    (Quad)   (Total)
    R1        2.63244  -0.00020  -0.00035   0.00022  -0.00013   2.63231
    R2        2.63480  -0.00014  -0.00035   0.00031  -0.00003   2.63477
    R3        2.04913  -0.00006  -0.00002  -0.00012  -0.00014   2.04899
    R4        2.63844  -0.00024  -0.00033   0.00010  -0.00023   2.63821
    R5        2.04739  -0.00006  -0.00002  -0.00011  -0.00013   2.04726
    R6        2.62847  -0.00006  -0.00035   0.00047   0.00012   2.62859
    R7        2.04926  -0.00007  -0.00002  -0.00015  -0.00017   2.04909
    R8        2.63953  -0.00068  -0.00021  -0.00105  -0.00126   2.63828
    R9        2.04753  -0.00010  -0.00004  -0.00018  -0.00022   2.04731
   R10        2.63901  -0.00042  -0.00022  -0.00049  -0.00071   2.63830
   R11        2.58651   0.00050  -0.00048   0.00173   0.00126   2.58777
   R12        2.05337  -0.00016  -0.00003  -0.00038  -0.00041   2.05296
   R13        1.81957  -0.00016  -0.00012  -0.00007  -0.00019   1.81939
    A1        2.10349  -0.00006   0.00001  -0.00018  -0.00017   2.10332
    A2        2.09740   0.00003  -0.00002   0.00011   0.00008   2.09748
    A3        2.08230   0.00003   0.00001   0.00007   0.00008   2.08238
    A4        2.08142   0.00004   0.00000   0.00028   0.00028   2.08169
    A5        2.10055  -0.00002   0.00000  -0.00017  -0.00016   2.10038
    A6        2.10122  -0.00001   0.00000  -0.00011  -0.00011   2.10111
    A7        2.10750   0.00001   0.00001   0.00008   0.00009   2.10759
    A8        2.09396   0.00001   0.00000   0.00002   0.00001   2.09397
    A9        2.08172  -0.00001   0.00000  -0.00010  -0.00010   2.08162
   A10        2.08829  -0.00023   0.00006  -0.00111  -0.00105   2.08724
   A11        2.11966   0.00001   0.00007  -0.00025  -0.00018   2.11948
   A12        2.07524   0.00022  -0.00014   0.00136   0.00122   2.07646
   A13        2.09472   0.00044  -0.00014   0.00187   0.00173   2.09645
   A14        2.04913  -0.00044   0.00003  -0.00170  -0.00166   2.04747
   A15        2.13933   0.00000   0.00011  -0.00017  -0.00006   2.13927
   A16        2.09095  -0.00019   0.00007  -0.00094  -0.00087   2.09008
   A17        2.09806   0.00008  -0.00002   0.00031   0.00029   2.09836
   A18        2.09417   0.00012  -0.00005   0.00063   0.00058   2.09474
   A19        1.91938  -0.00065  -0.00058  -0.00287  -0.00344   1.91593
    D1       -0.00005   0.00000   0.00001   0.00003   0.00004   0.00000
    D2        3.14154   0.00000  -0.00001   0.00005   0.00004   3.14158
    D3        3.14155   0.00000   0.00000   0.00004   0.00004   3.14159
    D4       -0.00004   0.00000  -0.00001   0.00005   0.00004  -0.00001
    D5        0.00003   0.00000   0.00000  -0.00001  -0.00001   0.00002
    D6       -3.14155   0.00000   0.00000  -0.00002  -0.00002  -3.14156
    D7       -3.14157   0.00000   0.00000  -0.00001  -0.00001  -3.14158
    D8        0.00004   0.00000   0.00000  -0.00002  -0.00002   0.00002
    D9        0.00002   0.00000  -0.00001  -0.00003  -0.00004  -0.00002
   D10       -3.14155   0.00000   0.00000  -0.00003  -0.00004  -3.14159
   D11       -3.14157   0.00000   0.00001  -0.00004  -0.00004   3.14158
   D12        0.00004   0.00000   0.00001  -0.00005  -0.00003   0.00001
   D13        0.00002   0.00000   0.00000   0.00000   0.00000   0.00002
   D14       -3.14158   0.00000   0.00000   0.00000   0.00000  -3.14157
   D15        3.14159   0.00000   0.00000   0.00000   0.00000   3.14159
   D16        0.00000   0.00000   0.00000   0.00000   0.00000   0.00000
   D17       -0.00004   0.00000   0.00000   0.00003   0.00003   0.00000
   D18        3.14156   0.00000   0.00000  -0.00001  -0.00002   3.14154
   D19        3.14156   0.00000   0.00000   0.00003   0.00003   3.14159
   D20       -0.00003   0.00000  -0.00001  -0.00002  -0.00002  -0.00005
   D21        0.00001   0.00000   0.00000  -0.00003  -0.00003  -0.00002
   D22        3.14159   0.00000  -0.00001  -0.00001  -0.00002   3.14157
   D23       -3.14158   0.00000   0.00001   0.00002   0.00003  -3.14156
   D24       -0.00001   0.00000   0.00000   0.00003   0.00004   0.00003
   D25        3.14097   0.00000   0.00000   0.00017   0.00017   3.14114
   D26       -0.00062   0.00000  -0.00001   0.00013   0.00011  -0.00050
         Item               Value     Threshold  Converged?
 Maximum Force            0.000683     0.000450     NO 
 RMS     Force            0.000189     0.000300     YES
 Maximum Displacement     0.004413     0.001800     NO 
 RMS     Displacement     0.000841     0.001200     YES
 Predicted change in Energy=-3.271935D-06
 GradGradGradGradGradGradGradGradGradGradGradGradGradGradGradGradGradGrad

 Leave Link  103 at Fri Sep  1 23:17:56 2006, MaxMem=    6291456 cpu:       0.2
 (Enter /usr/local/Gaussian/g03/l202.exe)
                          Input orientation:                          
 ---------------------------------------------------------------------
 Center     Atomic     Atomic              Coordinates (Angstroms)
 Number     Number      Type              X           Y           Z
 ---------------------------------------------------------------------
    1          6             0       -0.003922    0.000010   -0.001003
    2          6             0       -0.003089    0.000078    1.391956
    3          6             0        1.215131    0.000000    2.073853
    4          6             0        2.419690   -0.000162    1.378228
    5          6             0        2.409549   -0.000225   -0.017851
    6          6             0        1.196846   -0.000130   -0.709601
    7          1             0       -0.941581    0.000068   -0.545478
    8          1             0       -0.937722    0.000195    1.939807
    9          1             0        1.229097    0.000046    3.158094
   10          1             0        3.371281   -0.000243    1.896115
   11          8             0        3.621690   -0.000321   -0.654983
   12          1             0        1.190802   -0.000156   -1.795964
   13          1             0        3.488485   -0.000767   -1.608501
 ---------------------------------------------------------------------
                    Distance matrix (angstroms):
                    1          2          3          4          5
     1  C    0.000000
     2  C    1.392960   0.000000
     3  C    2.406475   1.396081   0.000000
     4  C    2.788579   2.422817   1.390991   0.000000
     5  C    2.413530   2.794347   2.408705   1.396115   0.000000
     6  C    1.394258   2.419997   2.783514   2.419582   1.396126
     7  H    1.084277   2.152770   3.392978   3.872827   3.392413
     8  H    2.153770   1.083365   2.157022   3.404054   3.877711
     9  H    3.391199   2.153491   1.084331   2.141362   3.388228
    10  H    3.871829   3.411825   2.163464   1.083390   2.142007
    11  O    3.684122   4.162809   3.638416   2.361938   1.369388
    12  H    2.156212   3.404146   3.869893   3.403771   2.155697
    13  H    3.844601   4.603675   4.327571   3.172203   1.922049
                    6          7          8          9         10
     6  C    0.000000
     7  H    2.144716   0.000000
     8  H    3.402314   2.485288   0.000000
     9  H    3.867829   4.292818   2.485826   0.000000
    10  H    3.393806   4.956022   4.309225   2.486271   0.000000
    11  O    2.425459   4.564585   5.246062   4.501561   2.563357
    12  H    1.086380   2.471998   4.299604   4.954205   4.287882
    13  H    2.461632   4.555821   5.672900   5.274965   3.506574
                   11         12         13
    11  O    0.000000
    12  H    2.685340   0.000000
    13  H    0.962778   2.305317   0.000000
 Stoichiometry    C6H6O
 Framework group  C1[X(C6H6O)]
 Deg. of freedom    33
 Full point group                 C1      NOp   1
 Largest Abelian subgroup         C1      NOp   1
 Largest concise Abelian subgroup C1      NOp   1
                         Standard orientation:                         
 ---------------------------------------------------------------------
 Center     Atomic     Atomic              Coordinates (Angstroms)
 Number     Number      Type              X           Y           Z
 ---------------------------------------------------------------------
    1          6             0        1.131456    1.217204    0.000000
    2          6             0        1.855365    0.027124    0.000003
    3          6             0        1.169679   -1.188967    0.000000
    4          6             0       -0.220932   -1.221489    0.000011
    5          6             0       -0.938516   -0.023903    0.000003
    6          6             0       -0.262666    1.197733   -0.000012
    7          1             0        1.649019    2.169982    0.000003
    8          1             0        2.938576    0.045435    0.000004
    9          1             0        1.721776   -2.122220    0.000009
   10          1             0       -0.764226   -2.158807    0.000028
   11          8             0       -2.305174   -0.110324   -0.000049
   12          1             0       -0.822634    2.128677   -0.000041
   13          1             0       -2.687434    0.773314    0.000361
 ---------------------------------------------------------------------
 Rotational constants (GHZ):      5.6671951      2.6179229      1.7907144
 Leave Link  202 at Fri Sep  1 23:17:58 2006, MaxMem=    6291456 cpu:       0.5
 (Enter /usr/local/Gaussian/g03/l301.exe)
 Standard basis: 6-311+G(d,p) (5D, 7F)
 There are   190 symmetry adapted basis functions of A   symmetry.
 Integral buffers will be    131072 words long.
 Raffenetti 2 integral format.
 Two-electron integral symmetry is turned on.
   190 basis functions,   300 primitive gaussians,   197 cartesian basis functions
    25 alpha electrons       25 beta electrons
       nuclear repulsion energy       271.1218173841 Hartrees.
 IExCor= 402 DFT=T Ex=B+HF Corr=LYP ExCW=0 ScaHFX=  0.200000
 ScaDFX=  0.800000  0.720000  1.000000  0.810000
 IRadAn=      0 IRanWt=     -1 IRanGd=            0 ICorTp=0
 NAtoms=   13 NActive=   13 NUniq=   13 SFac= 1.00D+00 NAtFMM=   60 Big=F
 Leave Link  301 at Fri Sep  1 23:17:59 2006, MaxMem=    6291456 cpu:       0.1
 (Enter /usr/local/Gaussian/g03/l302.exe)
[...]
    D1        0.00000   0.00000   0.00000   0.00000   0.00000   0.00000
    D2        3.14158   0.00000   0.00000   0.00001   0.00001  -3.14159
    D3        3.14159   0.00000   0.00000   0.00000   0.00000  -3.14159
    D4       -0.00001   0.00000   0.00000   0.00001   0.00001   0.00000
    D5        0.00002   0.00000   0.00000  -0.00002  -0.00002   0.00000
    D6       -3.14156   0.00000   0.00000  -0.00003  -0.00003  -3.14159
    D7       -3.14158   0.00000   0.00000  -0.00002  -0.00002   3.14159
    D8        0.00002   0.00000   0.00000  -0.00002  -0.00002   0.00000
    D9       -0.00002   0.00000   0.00000   0.00002   0.00002   0.00000
   D10       -3.14159   0.00000   0.00000  -0.00001  -0.00001   3.14159
   D11        3.14158   0.00000   0.00000   0.00001   0.00001   3.14159
   D12        0.00001   0.00000   0.00000  -0.00001  -0.00001   0.00000
   D13        0.00002   0.00000   0.00000  -0.00002  -0.00002   0.00000
   D14       -3.14157   0.00000   0.00000  -0.00002  -0.00002  -3.14159
   D15        3.14159   0.00000   0.00000   0.00000   0.00000  -3.14159
   D16        0.00000   0.00000   0.00000   0.00000   0.00000   0.00000
   D17        0.00000   0.00000   0.00000   0.00000   0.00000   0.00000
   D18        3.14154   0.00000   0.00000   0.00005   0.00005   3.14159
   D19        3.14159   0.00000   0.00000   0.00001   0.00001   3.14159
   D20       -0.00005   0.00000   0.00000   0.00005   0.00005   0.00000
   D21       -0.00002   0.00000   0.00000   0.00002   0.00002   0.00000
   D22        3.14157   0.00000   0.00000   0.00002   0.00002   3.14159
   D23       -3.14156   0.00000   0.00000  -0.00004  -0.00004  -3.14159
   D24        0.00003   0.00000   0.00000  -0.00003  -0.00003   0.00000
   D25        3.14114   0.00000   0.00000   0.00045   0.00045   3.14159
   D26       -0.00050   0.00000   0.00000   0.00050   0.00050   0.00000
         Item               Value     Threshold  Converged?
 Maximum Force            0.000392     0.000450     YES
 RMS     Force            0.000068     0.000300     YES
 Maximum Displacement     0.000648     0.001800     YES
 RMS     Displacement     0.000212     0.001200     YES
 Predicted change in Energy=-4.364747D-07
 Optimization completed.
    -- Stationary point found.
                           ----------------------------
                           !   Optimized Parameters   !
                           ! (Angstroms and Degrees)  !
 --------------------------                            --------------------------
 ! Name  Definition              Value          Derivative Info.                !
 --------------------------------------------------------------------------------
 ! R1    R(1,2)                  1.393          -DE/DX =   -0.0001              !
 ! R2    R(1,6)                  1.3943         -DE/DX =   -0.0001              !
 ! R3    R(1,7)                  1.0843         -DE/DX =    0.0                 !
 ! R4    R(2,3)                  1.3961         -DE/DX =   -0.0002              !
 ! R5    R(2,8)                  1.0834         -DE/DX =    0.0                 !
 ! R6    R(3,4)                  1.391          -DE/DX =    0.0                 !
 ! R7    R(3,9)                  1.0843         -DE/DX =    0.0                 !
 ! R8    R(4,5)                  1.3961         -DE/DX =   -0.0001              !
 ! R9    R(4,10)                 1.0834         -DE/DX =    0.0                 !
 ! R10   R(5,6)                  1.3961         -DE/DX =   -0.0002              !
 ! R11   R(5,11)                 1.3694         -DE/DX =    0.0004              !
 ! R12   R(6,12)                 1.0864         -DE/DX =    0.0                 !
 ! R13   R(11,13)                0.9628         -DE/DX =    0.0                 !
 ! A1    A(2,1,6)              120.5114         -DE/DX =    0.0                 !
 ! A2    A(2,1,7)              120.1769         -DE/DX =    0.0                 !
 ! A3    A(6,1,7)              119.3116         -DE/DX =    0.0                 !
 ! A4    A(1,2,3)              119.2722         -DE/DX =    0.0                 !
 ! A5    A(1,2,8)              120.3431         -DE/DX =    0.0                 !
 ! A6    A(3,2,8)              120.3847         -DE/DX =    0.0                 !
 ! A7    A(2,3,4)              120.756          -DE/DX =    0.0                 !
 ! A8    A(2,3,9)              119.9759         -DE/DX =    0.0                 !
 ! A9    A(4,3,9)              119.2682         -DE/DX =    0.0                 !
 ! A10   A(3,4,5)              119.59           -DE/DX =    0.0                 !
 ! A11   A(3,4,10)             121.4374         -DE/DX =    0.0                 !
 ! A12   A(5,4,10)             118.9726         -DE/DX =    0.0                 !
 ! A13   A(4,5,6)              120.1175         -DE/DX =    0.0001              !
 ! A14   A(4,5,11)             117.3114         -DE/DX =    0.0                 !
 ! A15   A(6,5,11)             122.5711         -DE/DX =   -0.0001              !
 ! A16   A(1,6,5)              119.753          -DE/DX =    0.0                 !
 ! A17   A(1,6,12)             120.227          -DE/DX =    0.0                 !
 ! A18   A(5,6,12)             120.02           -DE/DX =    0.0                 !
 ! A19   A(5,11,13)            109.7749         -DE/DX =    0.0                 !
 ! D1    D(6,1,2,3)             -0.0002         -DE/DX =    0.0                 !
 ! D2    D(6,1,2,8)           -180.0005         -DE/DX =    0.0                 !
 ! D3    D(7,1,2,3)           -180.0            -DE/DX =    0.0                 !
 ! D4    D(7,1,2,8)             -0.0003         -DE/DX =    0.0                 !
 ! D5    D(2,1,6,5)              0.0011         -DE/DX =    0.0                 !
 ! D6    D(2,1,6,12)          -179.9984         -DE/DX =    0.0                 !
 ! D7    D(7,1,6,5)            180.0009         -DE/DX =    0.0                 !
 ! D8    D(7,1,6,12)             0.0014         -DE/DX =    0.0                 !
 ! D9    D(1,2,3,4)             -0.0009         -DE/DX =    0.0                 !
 ! D10   D(1,2,3,9)            180.0004         -DE/DX =    0.0                 !
 ! D11   D(8,2,3,4)            179.9994         -DE/DX =    0.0                 !
 ! D12   D(8,2,3,9)              0.0007         -DE/DX =    0.0                 !
 ! D13   D(2,3,4,5)              0.0011         -DE/DX =    0.0                 !
 ! D14   D(2,3,4,10)          -179.9988         -DE/DX =    0.0                 !
 ! D15   D(9,3,4,5)           -180.0002         -DE/DX =    0.0                 !
 ! D16   D(9,3,4,10)             0.0            -DE/DX =    0.0                 !
 ! D17   D(3,4,5,6)             -0.0002         -DE/DX =    0.0                 !
 ! D18   D(3,4,5,11)           179.997          -DE/DX =    0.0                 !
 ! D19   D(10,4,5,6)           179.9996         -DE/DX =    0.0                 !
 ! D20   D(10,4,5,11)           -0.0031         -DE/DX =    0.0                 !
 ! D21   D(4,5,6,1)             -0.0009         -DE/DX =    0.0                 !
 ! D22   D(4,5,6,12)           179.9986         -DE/DX =    0.0                 !
 ! D23   D(11,5,6,1)          -179.998          -DE/DX =    0.0                 !
 ! D24   D(11,5,6,12)            0.0015         -DE/DX =    0.0                 !
 ! D25   D(4,5,11,13)          179.9741         -DE/DX =    0.0                 !
 ! D26   D(6,5,11,13)           -0.0288         -DE/DX =    0.0                 !
 --------------------------------------------------------------------------------
 GradGradGradGradGradGradGradGradGradGradGradGradGradGradGradGradGradGrad

 Leave Link  103 at Sat Sep  2 08:19:40 2006, MaxMem=    6291456 cpu:       0.2
 (Enter /usr/local/Gaussian/g03/l9999.exe)
 1\1\GINC-PUBLIX\Freq\RB3LYP\6-311+G(d,p)\C6H6O1\NOBODY\02-Sep-2006\0\\
 #P GEOM=ALLCHECK GUESS=READ SCRF=CHECK GENCHK RB3LYP/6-311+G(D,P) FREQ
 \\phenol basis2\\0,1\C,-1.5995045613,0.0001295318,-0.4509574602\C,-1.5
 986707037,0.000197726,0.9420018051\C,-0.3804512898,0.0001202136,1.6238
 989431\C,0.8241076151,-0.0000416133,0.9282738332\C,0.8139666504,-0.000
 1045969,-0.4678046646\C,-0.3987363379,-0.000009742,-1.1595549476\H,-2.
 537163444,0.0001882255,-0.9954321129\H,-2.5333040869,0.00031457,1.4898
 526311\H,-0.3664847526,0.0001657046,2.7081395196\H,1.7756991126,-0.000
 1230725,1.4461604736\O,2.0261077834,-0.0002013998,-1.1049366148\H,-0.4
 047798689,-0.0000360111,-2.2459179165\H,1.8929025351,-0.0006473335,-2.
 0584547298\\Version=Sun64-SVR4-Unix-G03RevB.04\State=1-A\HF=-307.55863
 02\RMSD=2.655e-09\RMSF=1.364e-04\Dipole=-0.3145976,-0.0002544,-0.44460
 92\DipoleDeriv=0.1088296,-0.0000281,-0.0875291,-0.0000228,-0.134096,0.
 0000147,0.0457093,0.0000177,0.1760139,-0.0859452,-0.0000132,-0.0790948
 ,-0.000017,-0.1682035,0.0000185,-0.1044039,0.0000074,-0.1809189,0.1940
 122,-0.0000258,0.0544981,-0.0000299,-0.1327878,0.0000048,-0.0345896,0.
 000015,0.1276491,-0.0993029,-0.0000027,0.0308166,0.0000416,-0.1597637,
 -0.0000302,0.3385151,-0.0000295,-0.1769965,1.1609308,-0.0001405,-0.636
 4716,-0.0001189,0.0750957,0.0000257,-0.6706619,0.000048,0.4908313,-0.3
 247365,0.0000264,0.2396744,0.0000024,-0.1745727,0.0000074,-0.1022936,-
 0.0000001,0.0295547,-0.0595621,0.0000151,-0.0721968,0.0000154,0.138043
 3,-0.0000068,-0.0775601,0.0000021,0.0266636,-0.0605091,0.0000239,0.072
 9095,0.0000236,0.1521195,-0.0000167,0.073819,-0.0000136,0.021313,0.072
 4049,0.0000072,-0.002613,0.0000037,0.1365256,-0.0000092,-0.0009567,-0.
 0000117,-0.1022512,-0.0340055,0.0000176,-0.0540523,0.0000193,0.1528944
 ,0.000001,-0.0553513,0.0000031,0.0500885,-1.203105,0.0001715,0.6381335
 ,0.0000616,-0.3720869,0.0001069,0.6475014,0.0000188,-0.5728225,0.05458
 75,0.0000163,0.0361718,0.0000096,0.1540226,-0.0000086,0.0331727,-0.000
 0139,-0.1208745,0.2764012,-0.0000678,-0.1402464,0.0000114,0.3328094,-0
 .0001078,-0.0929003,-0.0000432,0.2317497\Polar=86.7440731,-0.0046223,4
 3.3076107,-4.4602027,0.0031085,84.6795848\PG=C01 [X(C6H6O1)]\NImag=0\\
 0.71104703,-0.00005101,0.13156817,0.03448770,0.00002297,0.67831256,-0.
 12598834,0.00000735,0.03137194,0.71423197,0.00000479,-0.06030263,-0.00
 001672,-0.00005729,0.12526047,-0.03121392,-0.00001093,-0.33175508,-0.0
 4163835,0.00003179,0.67420124,0.03040254,-0.00000551,-0.07731627,-0.27
 794820,0.00001659,-0.05340660,0.65893796,-0.00000371,0.00561161,0.0000
 0632,0.00001383,-0.06096661,-0.00000112,-0.00005132,0.13490266,-0.0292
 1277,0.00000085,-0.02901026,-0.11589892,0.00000526,-0.17394997,-0.0023
 5489,0.00002890,0.73341341,-0.01578367,0.00000267,0.02790418,-0.057182
 80,0.00000537,-0.02003854,-0.28972310,0.00003011,0.12342522,0.74187622
 ,0.00000249,-0.00140676,-0.00000617,0.00000869,0.00614397,0.00000535,0
 .00002650,-0.05633808,-0.00001757,-0.00006581,0.12232655,0.02498553,-0
 .00000416,-0.05059764,0.02496651,-0.00000011,0.06152041,0.06171309,-0.
 00001213,-0.18150057,0.01916522,0.00002185,0.67333231,-0.06006457,0.00
 000723,0.02758746,-0.01509552,-0.00000058,-0.03467692,0.03659092,-0.00
 000256,0.03174743,-0.12452746,0.00000627,0.01509080,0.66611075,0.00000
 490,-0.00096720,-0.00000125,0.00000047,-0.00320688,0.00000167,-0.00000
 065,-0.00035991,-0.00000428,0.00000294,-0.06520851,-0.00001451,-0.0000
 4333,0.15088372,-0.02539151,0.00000570,0.07213327,-0.03461962,0.000000
 77,-0.05653543,0.08367520,-0.00000935,-0.02529366,-0.05669662,-0.00000
 726,-0.31001612,0.00960861,0.00004148,0.69996717,-0.27994609,0.0000239
 2,0.06034353,0.02978172,0.00000094,0.07477459,-0.06452357,0.00000620,-
 0.00301323,0.03034354,-0.00000578,-0.06768722,-0.25169716,0.00001609,-
 0.04693587,0.66329514,0.00002553,-0.05446028,-0.00000883,-0.00000172,0
 .00607975,-0.00000895,0.00000683,-0.00215136,-0.00000020,-0.00000379,0
 .00543359,0.00000644,0.00001497,-0.06146065,-0.00000248,-0.00005110,0.
 11600585,0.12224442,-0.00001685,-0.17838596,0.02812537,-0.00000414,-0.
 02810597,0.00174286,-0.00000034,-0.00206096,-0.02637912,0.00000275,-0.
 02166972,-0.12384387,0.00000614,-0.18770330,-0.01244483,0.00001973,0.7
 2696171,-0.26546145,0.00001509,-0.11979424,0.00356370,0.00000013,0.002
 03816,0.00176857,0.00000052,0.00024358,0.00020196,-0.00000012,0.000762
 93,-0.00180194,0.00000083,0.00396516,-0.01898473,0.00000154,-0.0154375
 2,0.28071262,0.00001485,-0.03628959,0.00000666,-0.00000143,0.00355669,
 -0.00000117,0.00000077,0.00693985,-0.00000060,-0.00000012,-0.00113025,
 0.00000005,0.00000099,0.00735537,-0.00000087,0.00000299,0.00309071,0.0
 0000191,-0.00001715,0.02518568,-0.12008848,0.00000658,-0.12859687,-0.0
 2883785,0.00000196,-0.00976065,0.00107869,-0.00000069,-0.00589363,0.00
 092941,-0.00000005,-0.00059112,0.00318637,-0.00000063,-0.00098857,0.01
 524389,-0.00000121,0.01104494,0.12905912,-0.00000652,0.13303408,0.0037
 9242,-0.00000035,-0.00257894,-0.26576659,0.00002822,0.12170840,-0.0184
 9954,0.00000273,0.01621424,-0.00277524,0.00000069,-0.00392037,0.000090
 74,-0.00000014,-0.00112132,0.00169108,0.00000048,-0.00053465,0.0006935
 9,-0.00000043,0.00044949,0.28066539,0.00000126,0.00178967,-0.00000054,
 0.00002845,-0.03293761,-0.00001655,0.00000095,0.00177454,-0.00000099,0
 .00000091,0.00644489,-0.00000010,-0.00000011,-0.00039172,0.00000002,0.
 00000016,0.00668354,-0.00000038,-0.00000048,-0.00400966,0.00000022,-0.
 00003091,0.02446363,0.02876131,-0.00000343,-0.01108814,0.12161287,-0.0
 0001652,-0.12952357,-0.01505778,0.00000187,0.01146973,-0.00302877,-0.0
 0000005,-0.00082071,-0.00096153,0.00000007,-0.00112395,-0.00139106,-0.
 00000046,-0.00511408,-0.00039943,0.00000030,0.00101118,-0.13079031,0.0
 0001805,0.13434298,-0.00459627,0.00000088,-0.00258231,0.00472669,-0.00
 000135,-0.02809555,-0.05912960,0.00000199,-0.00390418,0.00409353,0.000
 00106,0.02828076,-0.00410843,0.00000116,0.00188218,-0.00115250,0.00000
 013,0.00024522,0.00002598,-0.00000006,-0.00141855,0.00091150,-0.000000
 42,0.00058228,0.05841140,0.00000077,0.00668259,0.00000014,-0.00000034,
 0.00359939,0.00000158,0.00000226,-0.03737453,-0.00001227,0.,0.00355401
 ,-0.00000358,0.00000155,0.00783196,-0.00000057,0.00000004,-0.00097821,
 0.00000004,0.,0.00009665,0.00000009,-0.00000046,-0.00383666,0.00000018
 ,-0.00000299,0.02564374,-0.00331774,0.00000007,0.00050137,0.00274842,-
 0.00000086,-0.01101996,-0.00353871,-0.00001279,-0.33491462,-0.00244841
 ,-0.00000033,-0.01193861,0.00239654,-0.00000056,0.00143809,0.00009555,
 0.00000005,0.00074719,0.00016067,-0.00000006,-0.00067055,-0.00028850,0
 .00000021,0.00077552,0.00369036,0.00001415,0.35544616,0.00027016,-0.00
 000007,0.00061941,-0.00230649,0.00000124,0.00404421,-0.01763940,0.0000
 0128,-0.01487111,-0.27148139,0.00002105,-0.12009345,0.00118451,0.00000
 051,0.00193294,0.00130122,0.00000040,0.00048532,-0.00004227,-0.0000000
 9,-0.00008023,-0.00091125,0.00000012,-0.00072645,0.00096823,-0.0000005
 9,0.00020748,0.28744942,0.,-0.00098206,-0.00000019,0.00000118,0.007274
 74,-0.00000073,0.00000280,0.00225455,0.00000214,0.00002148,-0.03395078
 ,0.00000866,-0.00000179,0.00490351,-0.00000037,0.00000044,0.00527236,-
 0.00000073,-0.00000008,-0.00078445,0.00000006,0.00000018,0.00041762,0.
 00000009,-0.00000061,-0.00433360,0.00000023,-0.00002324,0.02378167,0.0
 0105249,-0.00000009,-0.00087138,0.00329153,-0.00000069,-0.00090277,0.0
 1525002,-0.00000116,0.01217819,-0.11827389,0.00000884,-0.12489151,-0.0
 3019259,0.00000264,-0.00990339,0.00129426,-0.00000066,-0.00565041,-0.0
 0006572,0.00000006,0.00006496,0.00080076,-0.00000005,0.00040202,-0.000
 52304,0.00000028,0.00085058,0.12855983,-0.00000956,0.12673100,0.001956
 33,-0.00000007,-0.00868348,-0.00347502,0.00000054,0.00493467,-0.000152
 17,0.00000156,-0.00388027,-0.00394908,0.00000295,0.01705278,-0.2520069
 1,-0.00000044,0.04513171,-0.05311496,0.00000409,0.02785497,-0.00179720
 ,0.00000024,0.00098458,0.00003688,-0.00000012,0.00020034,0.00010097,-0
 .00000013,0.00012775,0.00092344,-0.00000031,0.00000049,0.36607482,0.00
 000018,0.00763721,0.00000248,-0.00000179,-0.00145203,-0.00000155,0.000
 00264,0.00480011,-0.00000254,0.00000578,0.00684864,-0.00000140,0.00002
 259,-0.03993115,-0.00003051,0.00000616,0.00802375,-0.00000348,0.000000
 29,0.00005193,-0.00000013,-0.00000003,-0.00078817,-0.00000002,0.000000
 49,0.00011940,-0.00000029,-0.00000055,-0.00323101,0.00000042,0.0000179
 3,0.02432295,0.00028889,-0.00000179,-0.00688514,0.00586984,-0.00000050
 ,0.00393561,-0.01082541,0.00000019,-0.00392936,0.05489512,-0.00000651,
 -0.03522525,0.09685317,-0.00002260,-0.14189635,-0.01130305,0.00000245,
 0.01200399,-0.00047848,0.00000026,0.00035209,0.00021806,0.00000036,0.0
 0036771,0.00156113,0.00000002,-0.00107523,-0.00017969,0.00000059,0.002
 31889,-0.03078997,0.00026741,0.66957721,0.00504375,0.00000065,0.028472
 35,-0.00440955,0.00000106,0.00221361,-0.00143494,0.00000015,0.00024616
 ,-0.00463583,0.00000068,-0.00253068,0.00288907,-0.00000061,-0.02650115
 ,-0.05868693,0.00000262,-0.00460953,0.00096252,-0.00000047,-0.00046797
 ,0.00005875,0.00000017,0.00138870,0.00009847,-0.00000007,0.00001612,0.
 00019178,-0.00000013,-0.00138025,0.00330915,-0.00000112,-0.00109698,0.
 05741804,-0.00000001,0.00200251,-0.00000370,0.00000140,0.00682187,-0.0
 0000018,-0.00000019,-0.00085241,0.00000006,0.00000067,0.00525935,-0.00
 000011,0.00000140,0.00358902,0.00000160,0.00000151,-0.03120744,-0.0000
 0591,-0.00000038,-0.00404987,0.00000024,0.00000004,0.00047674,-0.00000
 019,-0.00000009,-0.00078608,0.00000002,-0.00000005,0.00003713,0.000000
 06,-0.00000099,-0.00366166,0.00000165,-0.00000390,0.02186556,-0.002567
 96,-0.00000031,-0.01247886,0.00331354,-0.00000035,0.00116926,-0.000186
 68,0.00000008,0.00064176,-0.00343372,0.00000027,0.00080671,0.00625362,
 -0.00000122,-0.01479681,-0.00457015,-0.00000673,-0.32767592,0.00022097
 ,0.00000005,0.00087772,-0.00018516,-0.00000001,-0.00072088,-0.00000817
 ,0.00000002,-0.00009782,0.00014126,-0.00000009,-0.00073279,-0.00033563
 ,0.00000021,0.00314453,0.00329638,0.00000754,0.35006357,-0.00067185,-0
 .00000078,0.00016866,-0.00013158,0.00000033,-0.00064376,0.00135054,-0.
 00000078,0.00125873,-0.00645669,0.00000133,0.00221409,0.00243599,0.000
 01826,0.04507029,0.00169323,0.00000003,0.00255134,0.00015864,-0.000000
 11,-0.00003845,0.00001227,0.00000002,-0.00019018,-0.00034996,-0.000000
 05,0.00015047,0.00009203,0.00000010,0.00018610,-0.05790625,-0.00005256
 ,-0.10501262,-0.00080429,0.00000059,-0.00193829,0.06057792,0.,-0.00088
 325,-0.00000116,0.00000120,0.00012891,0.00000081,-0.00000166,0.0017595
 9,0.00000123,-0.00000022,0.00202338,-0.00000088,-0.00000664,-0.0030375
 6,0.00000184,-0.00000156,-0.00033162,0.00000125,-0.00000020,-0.0000130
 6,0.00000009,-0.00000003,-0.00008681,0.00000011,-0.00000018,-0.0002186
 7,0.00000015,0.,-0.00065967,-0.00000008,-0.00002527,-0.00273997,-0.000
 24155,0.00000097,0.00050527,0.00000054,0.00003361,0.00355347,-0.000027
 97,0.00000141,-0.00127787,-0.00030529,0.00000011,0.00072688,-0.0007735
 3,0.00000022,-0.00115007,0.00397993,-0.00000111,0.00159181,-0.00304910
 ,-0.00000695,-0.02528095,-0.00440642,0.00000085,0.00560847,-0.00027522
 ,-0.00000007,0.00011642,0.00002830,-0.00000023,0.00002219,0.00028987,-
 0.00000008,-0.00004212,-0.00003951,-0.00000009,0.00040660,-0.05259791,
 -0.00023063,-0.50268869,0.00095324,-0.00000107,-0.00020047,0.05622361,
 0.00023764,0.52216781\\-0.00005458,0.00000079,-0.00009736,-0.00014521,
 -0.00000071,0.00004754,0.00011071,0.00000118,0.00006295,-0.00009023,-0
 .00000071,0.00014211,0.00059090,-0.00000268,-0.00031895,-0.00013617,0.
 00000101,0.00001333,-0.00000121,-0.00000033,-0.00001514,-0.00000395,0.
 00000014,0.00000183,0.00001371,-0.00000024,0.00000126,0.00005155,-0.00
 000030,0.00000789,-0.00036457,0.00000432,0.00019464,0.00000683,0.00000
 017,-0.00003560,0.00002223,-0.00000263,-0.00000450\\\@


 THERE IS SOMETHING FASCINATING ABOUT SCIENCE.
 ONE GETS SUCH WHOLESALE CONJECTURE OUT OF SUCH TRIFLING INVESTMENTS.

                                                       -- MARK TWAIN
 Job cpu time:  0 days  2 hours 31 minutes 38.5 seconds.
 File lengths (MBytes):  RWF=     57 Int=      0 D2E=      0 Chk=     12 Scr=      1
 Normal termination of Gaussian 03 at Sat Sep  2 08:19:42 2006.
