 argument  1 = hi_zora_sf.nw
                                         
                                         


              Northwest Computational Chemistry Package (NWChem) 6.0
              ------------------------------------------------------


                    Environmental Molecular Sciences Laboratory
                       Pacific Northwest National Laboratory
                                Richland, WA 99352

                              Copyright (c) 1994-2010
                       Pacific Northwest National Laboratory
                            Battelle Memorial Institute

             NWChem is an open-source computational chemistry package
                        distributed under the terms of the
                      Educational Community License (ECL) 2.0
             A copy of the license is included with this distribution
                              in the LICENSE.TXT file

                                  ACKNOWLEDGMENT
                                  --------------

            This software and its documentation were developed at the
            EMSL at Pacific Northwest National Laboratory, a multiprogram
            national laboratory, operated for the U.S. Department of Energy
            by Battelle under Contract Number DE-AC05-76RL01830. Support
            for this work was provided by the Department of Energy Office
            of Biological and Environmental Research, Office of Basic
            Energy Sciences, and the Office of Advanced Scientific Computing.


           Job information
           ---------------

    hostname      = arcen
    program       = /home/d3y133/nwchem-releases/nwchem-6.0-gfortran/bin/LINUX64/nwchem
    date          = Fri Aug  6 14:55:46 2010

    compiled      = Fri_Aug_06_13:42:42_2010
    source        = /home/d3y133/nwchem-releases/nwchem-6.0-gfortran
    nwchem branch = 6.0
    input         = hi_zora_sf.nw
    prefix        = hi_zora_sf.
    data base     = ./hi_zora_sf.db
    status        = startup
    nproc         =        4
    time left     =     -1s



           Memory information
           ------------------

    heap     =   13107201 doubles =    100.0 Mbytes
    stack    =   13107201 doubles =    100.0 Mbytes
    global   =   26214400 doubles =    200.0 Mbytes (distinct from heap & stack)
    total    =   52428802 doubles =    400.0 Mbytes
    verify   = yes
    hardfail = no 


           Directory information
           ---------------------

  0 permanent = .
  0 scratch   = .




                                NWChem Input Module
                                -------------------



 Scaling coordinates for geometry "geometry" by  1.889725989
 (inverse scale =  0.529177249)

 ORDER OF PRIMARY AXIS IS BEING SET TO 4
 C4V symmetry detected


                             Geometry "geometry" -> ""
                             -------------------------

 Output coordinates in angstroms (scale by  1.889725989 to convert to a.u.)

  No.       Tag          Charge          X              Y              Z
 ---- ---------------- ---------- -------------- -------------- --------------
    1 H                    1.0000     0.00000000     0.00000000    -1.60505974
    2 I                   53.0000     0.00000000     0.00000000     0.03028415

      Atomic Mass 
      ----------- 

      H                  1.007825
      I                126.900400


 Effective nuclear repulsion energy (a.u.)      17.1501507227

            Nuclear Dipole moment (a.u.) 
            ----------------------------
        X                 Y               Z
 ---------------- ---------------- ----------------
     0.0000000000     0.0000000000     0.0000000000

      Symmetry information
      --------------------

 Group name             C4v       
 Group number             18
 Group order               8
 No. of unique centers     2

      Symmetry unique atoms

     1    2


            XYZ format geometry
            -------------------
     2
 geometry
 H                     0.00000000     0.00000000    -1.60505974
 I                     0.00000000     0.00000000     0.03028415

 ==============================================================================
                                internuclear distances
 ------------------------------------------------------------------------------
       center one      |      center two      | atomic units |  angstroms
 ------------------------------------------------------------------------------
    2 I                |   1 H                |     3.09035  |     1.63534
 ------------------------------------------------------------------------------
                         number of included internuclear distances:          1
 ==============================================================================



  library name resolved from: .nwchemrc
  library file name is: </home/d3y133/nwchem-releases/nwchem-6.0-gfortran/QA/../src/basis/libraries/>
  


 Summary of "ao basis" -> "" (spherical)
 ------------------------------------------------------------------------------
       Tag                 Description            Shells   Functions and Types
 ---------------- ------------------------------  ------  ---------------------
 *                     DZVP (DFT Orbital)             on all atoms 




                           NWChem Geometry Optimization
                           ----------------------------


 maximum gradient threshold         (gmax) =   0.000450
 rms gradient threshold             (grms) =   0.000300
 maximum cartesian step threshold   (xmax) =   0.001800
 rms cartesian step threshold       (xrms) =   0.001200
 fixed trust radius                (trust) =   0.300000
 maximum step size to saddle      (sadstp) =   0.100000
 energy precision                  (eprec) =   5.0D-06
 maximum number of steps          (nptopt) =  100
 initial hessian option           (inhess) =    0
 line search option               (linopt) =    1
 hessian update option            (modupd) =    1
 saddle point option              (modsad) =    0
 initial eigen-mode to follow     (moddir) =    0
 initial variable to follow       (vardir) =    0
 follow first negative mode     (firstneg) =    T
 apply conjugacy                    (opcg) =    F
 source of zmatrix                         =           


          -------------------
          Energy Minimization
          -------------------


 Using diagonal initial Hessian 

          --------
          Step   0
          --------


                         Geometry "geometry" -> "geometry"
                         ---------------------------------

 Output coordinates in angstroms (scale by  1.889725989 to convert to a.u.)

  No.       Tag          Charge          X              Y              Z
 ---- ---------------- ---------- -------------- -------------- --------------
    1 H                    1.0000     0.00000000     0.00000000    -1.60505974
    2 I                   53.0000     0.00000000     0.00000000     0.03028415

      Atomic Mass 
      ----------- 

      H                  1.007825
      I                126.900400


 Effective nuclear repulsion energy (a.u.)      17.1501507227

            Nuclear Dipole moment (a.u.) 
            ----------------------------
        X                 Y               Z
 ---------------- ---------------- ----------------
     0.0000000000     0.0000000000     0.0000000000

      Symmetry information
      --------------------

 Group name             C4v       
 Group number             18
 Group order               8
 No. of unique centers     2

      Symmetry unique atoms

     1    2


                                 NWChem DFT Module
                                 -----------------


                      Basis "ao basis" -> "ao basis" (spherical)
                      -----
  H (Hydrogen)
  ------------
            Exponent  Coefficients 
       -------------- ---------------------------------------------------------
  1 S  5.09991780E+01  0.009661
  1 S  7.48321810E+00  0.073729
  1 S  1.77746760E+00  0.295858
  1 S  5.19329500E-01  0.715905

  2 S  1.54110000E-01  1.000000

  I (Iodine)
  ----------
            Exponent  Coefficients 
       -------------- ---------------------------------------------------------
  1 S  2.74845460E+05 -0.001621
  1 S  4.12331880E+04 -0.012398
  1 S  9.36673330E+03 -0.062201
  1 S  2.63840810E+03 -0.216294
  1 S  8.58774400E+02 -0.462395
  1 S  2.96302520E+02 -0.384842

  2 S  5.61837220E+02  0.114228
  2 S  6.90401460E+01 -0.632291
  2 S  2.99806350E+01 -0.442018

  3 S  5.48696840E+01 -0.270799
  3 S  9.99545850E+00  0.842647
  3 S  4.58886780E+00  0.309166

  4 S  9.12082560E+00 -0.341022
  4 S  2.11967870E+00  0.810065
  4 S  9.70892500E-01  0.396754

  5 S  1.58799650E+00  0.262971
  5 S  2.95335600E-01 -0.751041

  6 S  1.16401600E-01  1.000000

  7 P  4.08945540E+03 -0.007237
  7 P  9.67033590E+02 -0.055839
  7 P  3.09442130E+02 -0.234024
  7 P  1.12458860E+02 -0.504702
  7 P  4.31185900E+01 -0.365963

  8 P  1.64646200E+02 -0.025233
  8 P  2.07365830E+01  0.494419
  8 P  8.15583040E+00  0.574146

  9 P  3.71048720E+00  0.429996
  9 P  1.62499900E+00  0.526237
  9 P  7.14621600E-01  0.123406

 10 P  4.62819300E-01  0.353725
 10 P  1.86431200E-01  0.535583

 11 P  7.14835000E-02  1.000000

 12 D  4.17503240E+02 -0.012725
 12 D  1.23614830E+02 -0.091521
 12 D  4.57790390E+01 -0.307099
 12 D  1.83916630E+01 -0.499640
 12 D  7.42179320E+00 -0.308307

 13 D  6.27385860E+00 -0.259301
 13 D  2.35941460E+00 -0.565077
 13 D  8.37796600E-01 -0.352369

 14 D  2.44000000E-01  1.000000



 Summary of "ao basis" -> "ao basis" (spherical)
 ------------------------------------------------------------------------------
       Tag                 Description            Shells   Functions and Types
 ---------------- ------------------------------  ------  ---------------------
 H                     DZVP (DFT Orbital)            2        2   2s
 I                     DZVP (DFT Orbital)           14       36   6s5p3d


  Caching 1-el integrals 

            General Information
            -------------------
          SCF calculation type: DFT
          Wavefunction type:  closed shell.
          No. of atoms     :     2
          No. of electrons :    54
           Alpha electrons :    27
            Beta electrons :    27
          Charge           :     0
          Spin multiplicity:     1
          Use of symmetry is: on ; symmetry adaption is: on 
          Maximum number of iterations:  30
          AO basis - number of functions:    38
                     number of shells:    16
          Convergence on energy requested: 1.00D-06
          Convergence on density requested: 1.00D-05
          Convergence on gradient requested: 5.00D-04

              XC Information
              --------------
                         B3LYP Method XC Potential
                     Hartree-Fock (Exact) Exchange  0.200          
                        Slater Exchange Functional  0.800 local    
                    Becke 1988 Exchange Functional  0.720 non-local
              Lee-Yang-Parr Correlation Functional  0.810          
                  VWN I RPA Correlation Functional  0.190 local    

             Grid Information
             ----------------
          Grid used for XC integration:  xfine     
          Radial quadrature: Mura-Knowles        
          Angular quadrature: Lebedev. 
          Tag              B.-S. Rad. Rad. Pts. Rad. Cut. Ang. Pts.
          ---              ---------- --------- --------- ---------
          H                   0.35      100           8.0      1202
          I                   1.40      205           7.0      1454
          Grid pruning is: on 
          Number of quadrature shells:   305
          Spatial weights used:  Erf1

          Convergence Information
          -----------------------
          Convergence aids based upon iterative change in 
          total energy or number of iterations. 
          Levelshifting, if invoked, occurs when the 
          HOMO/LUMO gap drops below (HL_TOL): 1.00D-02
          DIIS, if invoked, will attempt to extrapolate 
          using up to (NFOCK): 10 stored Fock matrices.

                    Damping( 0%)  Levelshifting(0.5)       DIIS
                  --------------- ------------------- ---------------
          dE  on:    start            ASAP                start   
          dE off:    2 iters         30 iters            30 iters 


      Screening Tolerance Information
      -------------------------------
          Density screening/tol_rho: 1.00D-10
          AO Gaussian exp screening on grid/accAOfunc:  14
          CD Gaussian exp screening on grid/accCDfunc:  20
          XC Gaussian exp screening on grid/accXCfunc:  20
          Schwarz screening/accCoul: 1.00D-08


      Superposition of Atomic Density Guess
      -------------------------------------

 Sum of atomic energies:       -6917.62689802

      Non-variational initial energy
      ------------------------------

 Total energy =   -6917.675508
 1-e energy   =   -9541.303670
 2-e energy   =    2606.478012
 HOMO         =      -0.354134
 LUMO         =       0.045710


      Symmetry analysis of molecular orbitals - initial
      -------------------------------------------------


 !! scf_movecs_sym_adapt:    6 vectors were symmetry contaminated

  Symmetry fudging

 !! scf_movecs_sym_adapt:    6 vectors were symmetry contaminated

  Numbering of irreducible representations: 

     1 a1          2 a2          3 b1          4 b2          5 e       

  Orbital symmetries:

     1 a1          2 a1          3 a1          4 e           5 e       
     6 a1          7 a1          8 e           9 e          10 a1      
    11 e          12 e          13 b2         14 b1         15 a1      
    16 a1         17 e          18 e          19 a1         20 e       
    21 e          22 b2         23 b1         24 a1         25 a1      
    26 e          27 e          28 a1         29 a1         30 e       
    31 e          32 e          33 e          34 a1         35 b2      
    36 b1         37 a1      

   Time after variat. SCF:      0.7

 Read atomic ZORA corrections from ./hi_zora_sf.zora_sf

 dft_zora_read: failed to open./hi_zora_sf.zora_sf

 Grid_pts file          = ./hi_zora_sf.gridpts.0
 Record size in doubles =  12289        No. of grid_pts per rec  =   3070
 Max. records in memory =     41        Max. recs in file   =    140426


 Wrote atomic ZORA corrections to ./hi_zora_sf.zora_sf

   Time prior to 1st pass:      1.8

 #quartets = 9.316D+03 #integrals = 4.468D+04 #direct =  0.0% #cached =100.0%


 Integral file          = ./hi_zora_sf.aoints.0
 Record size in doubles =  65536        No. of integs per rec  =  43688
 Max. records in memory =      2        Max. records in file   =  26331
 No. of bits per label  =      8        No. of bits per value  =     64


File balance: exchanges=     0  moved=     0  time=   0.0


           Memory utilization after 1st SCF pass: 
           Heap Space remaining (MW):       12.46            12464426
          Stack Space remaining (MW):       13.11            13106897

   convergence    iter        energy       DeltaE   RMS-Dens  Diis-err    time
 ---------------- ----- ----------------- --------- --------- ---------  ------
 d= 0,ls=0.0,diis     1  -7171.6461333227 -7.19D+03  3.30D-02  5.55D+01     2.5
 d= 0,ls=0.0,diis     2  -7171.7075042112 -6.14D-02  1.36D-02  4.76D-02     2.6

 !! scf_movecs_sym_adapt:    2 vectors were symmetry contaminated

  Symmetry fudging
 d= 0,ls=0.0,diis     3  -7171.7100287427 -2.52D-03  6.08D-03  3.32D-02     2.7
 d= 0,ls=0.0,diis     4  -7171.7174637671 -7.44D-03  1.25D-03  5.55D-04     2.8
 d= 0,ls=0.0,diis     5  -7171.7175749881 -1.11D-04  1.58D-04  8.86D-06     2.9

 !! scf_movecs_sym_adapt:    2 vectors were symmetry contaminated

  Symmetry fudging
 d= 0,ls=0.0,diis     6  -7171.7175769491 -1.96D-06  8.16D-06  4.30D-08     3.0
 d= 0,ls=0.0,diis     7  -7171.7175769585 -9.35D-09  7.07D-07  1.45D-10     3.1


         Total DFT energy =    -7171.717576958495
      One electron energy =    -9799.395872949606
           Coulomb energy =     2787.495410881849
    Exchange-Corr. energy =     -176.967265613461
 Nuclear repulsion energy =       17.150150722723

       Scaling correction =       91.841217219797

 Numeric. integr. density =       54.000000190215

     Total iterative time =      1.3s



                       DFT Final Molecular Orbital Analysis
                       ------------------------------------

 Vector   17  Occ=2.000000D+00  E=-4.937676D+00  Symmetry=e
              MO Center= -2.2D-17, -2.3D-16,  2.9D-02, r^2= 2.0D-01
   Bfn.  Coefficient  Atom+Function         Bfn.  Coefficient  Atom+Function  
  ----- ------------  ---------------      ----- ------------  ---------------
    15      0.932277  2 I  px                16     -0.750542  2 I  py         
    12     -0.547155  2 I  px                13      0.440495  2 I  py         
     9     -0.152149  2 I  px         

 Vector   18  Occ=2.000000D+00  E=-4.936228D+00  Symmetry=e
              MO Center= -1.8D-16, -7.0D-17,  2.9D-02, r^2= 2.0D-01
   Bfn.  Coefficient  Atom+Function         Bfn.  Coefficient  Atom+Function  
  ----- ------------  ---------------      ----- ------------  ---------------
    16      0.932277  2 I  py                15      0.750542  2 I  px         
    13     -0.547155  2 I  py                12     -0.440495  2 I  px         
    10     -0.152149  2 I  py         

 Vector   19  Occ=2.000000D+00  E=-2.032152D+00  Symmetry=a1
              MO Center= -5.8D-17,  5.5D-17,  3.0D-02, r^2= 2.8D-01
   Bfn.  Coefficient  Atom+Function         Bfn.  Coefficient  Atom+Function  
  ----- ------------  ---------------      ----- ------------  ---------------
    31     -1.074019  2 I  d  0              26      0.412774  2 I  d  0       

 Vector   20  Occ=2.000000D+00  E=-2.025875D+00  Symmetry=e
              MO Center=  3.2D-17, -4.7D-17,  3.1D-02, r^2= 2.8D-01
   Bfn.  Coefficient  Atom+Function         Bfn.  Coefficient  Atom+Function  
  ----- ------------  ---------------      ----- ------------  ---------------
    30      1.068309  2 I  d -1              25     -0.410574  2 I  d -1       

 Vector   21  Occ=2.000000D+00  E=-2.026041D+00  Symmetry=e
              MO Center=  6.2D-17, -9.7D-16,  3.1D-02, r^2= 2.8D-01
   Bfn.  Coefficient  Atom+Function         Bfn.  Coefficient  Atom+Function  
  ----- ------------  ---------------      ----- ------------  ---------------
    32     -1.068309  2 I  d  1              27      0.410574  2 I  d  1       

 Vector   22  Occ=2.000000D+00  E=-2.011988D+00  Symmetry=b1
              MO Center=  1.4D-16, -4.7D-17,  3.0D-02, r^2= 2.8D-01
   Bfn.  Coefficient  Atom+Function         Bfn.  Coefficient  Atom+Function  
  ----- ------------  ---------------      ----- ------------  ---------------
    33     -1.074622  2 I  d  2              28      0.412932  2 I  d  2       

 Vector   23  Occ=2.000000D+00  E=-2.011988D+00  Symmetry=b2
              MO Center=  1.7D-15, -5.9D-16,  3.0D-02, r^2= 2.8D-01
   Bfn.  Coefficient  Atom+Function         Bfn.  Coefficient  Atom+Function  
  ----- ------------  ---------------      ----- ------------  ---------------
    29      1.074622  2 I  d -2              24     -0.412932  2 I  d -2       

 Vector   24  Occ=2.000000D+00  E=-6.992585D-01  Symmetry=a1
              MO Center=  4.3D-15, -3.6D-15, -2.6D-01, r^2= 1.3D+00
   Bfn.  Coefficient  Atom+Function         Bfn.  Coefficient  Atom+Function  
  ----- ------------  ---------------      ----- ------------  ---------------
     7      0.730887  2 I  s                  6      0.528782  2 I  s          
     8     -0.329540  2 I  s                  5     -0.240803  2 I  s          

 Vector   25  Occ=2.000000D+00  E=-4.151558D-01  Symmetry=a1
              MO Center= -2.8D-15,  1.5D-14, -3.7D-01, r^2= 2.1D+00
   Bfn.  Coefficient  Atom+Function         Bfn.  Coefficient  Atom+Function  
  ----- ------------  ---------------      ----- ------------  ---------------
    20     -0.678427  2 I  pz                17      0.391025  2 I  pz         
     1      0.300816  1 H  s                  7      0.258013  2 I  s          
     2      0.224501  1 H  s                  8     -0.184836  2 I  s          
     6      0.174863  2 I  s                 14     -0.171387  2 I  pz         

 Vector   26  Occ=2.000000D+00  E=-2.818547D-01  Symmetry=e
              MO Center= -1.9D-15, -1.8D-16,  4.1D-03, r^2= 2.0D+00
   Bfn.  Coefficient  Atom+Function         Bfn.  Coefficient  Atom+Function  
  ----- ------------  ---------------      ----- ------------  ---------------
    19     -0.682260  2 I  py                18     -0.631108  2 I  px         
    16      0.373582  2 I  py                15      0.345572  2 I  px         
    22     -0.174386  2 I  py                13     -0.162301  2 I  py         
    21     -0.161312  2 I  px                12     -0.150133  2 I  px         

 Vector   27  Occ=2.000000D+00  E=-2.818659D-01  Symmetry=e
              MO Center= -3.0D-14,  2.8D-14,  4.1D-03, r^2= 2.0D+00
   Bfn.  Coefficient  Atom+Function         Bfn.  Coefficient  Atom+Function  
  ----- ------------  ---------------      ----- ------------  ---------------
    18     -0.682260  2 I  px                19      0.631108  2 I  py         
    15      0.373582  2 I  px                16     -0.345572  2 I  py         
    21     -0.174386  2 I  px                12     -0.162301  2 I  px         
    22      0.161312  2 I  py                13      0.150133  2 I  py         

 Vector   28  Occ=0.000000D+00  E=-3.558063D-02  Symmetry=a1
              MO Center= -4.5D-15, -7.9D-15, -4.6D-01, r^2= 3.2D+00
   Bfn.  Coefficient  Atom+Function         Bfn.  Coefficient  Atom+Function  
  ----- ------------  ---------------      ----- ------------  ---------------
     2     -1.063030  1 H  s                 20     -0.750195  2 I  pz         
    23     -0.562607  2 I  pz                 8      0.397261  2 I  s          
    17      0.349368  2 I  pz                 1     -0.285532  1 H  s          
     7     -0.265605  2 I  s                  6     -0.153286  2 I  s          

 Vector   29  Occ=0.000000D+00  E= 1.508975D-01  Symmetry=a1
              MO Center= -3.1D-14, -3.5D-14,  1.9D-01, r^2= 5.8D+00
   Bfn.  Coefficient  Atom+Function         Bfn.  Coefficient  Atom+Function  
  ----- ------------  ---------------      ----- ------------  ---------------
    23      1.430637  2 I  pz                20     -1.123105  2 I  pz         
    17      0.416650  2 I  pz                 8     -0.244302  2 I  s          
     2      0.182476  1 H  s                 14     -0.172216  2 I  pz         

 Vector   30  Occ=0.000000D+00  E= 1.809636D-01  Symmetry=e
              MO Center=  3.8D-14, -2.8D-14,  2.9D-02, r^2= 5.7D+00
   Bfn.  Coefficient  Atom+Function         Bfn.  Coefficient  Atom+Function  
  ----- ------------  ---------------      ----- ------------  ---------------
    21     -1.077721  2 I  px                18      0.966887  2 I  px         
    22      0.788670  2 I  py                19     -0.707562  2 I  py         
    15     -0.361630  2 I  px                16      0.264639  2 I  py         

 Vector   31  Occ=0.000000D+00  E= 1.809636D-01  Symmetry=e
              MO Center= -1.1D-13, -1.4D-13,  2.9D-02, r^2= 5.7D+00
   Bfn.  Coefficient  Atom+Function         Bfn.  Coefficient  Atom+Function  
  ----- ------------  ---------------      ----- ------------  ---------------
    22     -1.077721  2 I  py                19      0.966887  2 I  py         
    21     -0.788670  2 I  px                18      0.707562  2 I  px         
    16     -0.361630  2 I  py                15     -0.264639  2 I  px         

 Vector   32  Occ=0.000000D+00  E= 2.673712D-01  Symmetry=a1
              MO Center=  1.2D-13,  2.0D-13,  1.4D-01, r^2= 3.1D+00
   Bfn.  Coefficient  Atom+Function         Bfn.  Coefficient  Atom+Function  
  ----- ------------  ---------------      ----- ------------  ---------------
     7      1.766584  2 I  s                  8      1.748578  2 I  s          
    36     -0.479188  2 I  d  0               5     -0.268781  2 I  s          
     2      0.240934  1 H  s                 23      0.223676  2 I  pz         
    20     -0.163676  2 I  pz                31     -0.159943  2 I  d  0       

 Vector   33  Occ=0.000000D+00  E= 2.917511D-01  Symmetry=e
              MO Center=  1.9D-14, -4.8D-15,  5.8D-02, r^2= 2.1D+00
   Bfn.  Coefficient  Atom+Function         Bfn.  Coefficient  Atom+Function  
  ----- ------------  ---------------      ----- ------------  ---------------
    37      1.046706  2 I  d  1              32      0.349694  2 I  d  1       

 Vector   34  Occ=0.000000D+00  E= 2.917511D-01  Symmetry=e
              MO Center=  1.2D-14, -2.2D-14,  5.8D-02, r^2= 2.1D+00
   Bfn.  Coefficient  Atom+Function         Bfn.  Coefficient  Atom+Function  
  ----- ------------  ---------------      ----- ------------  ---------------
    35     -1.046706  2 I  d -1              30     -0.349694  2 I  d -1       

 Vector   35  Occ=0.000000D+00  E= 3.195413D-01  Symmetry=b1
              MO Center=  1.8D-15, -1.1D-14,  3.0D-02, r^2= 2.1D+00
   Bfn.  Coefficient  Atom+Function         Bfn.  Coefficient  Atom+Function  
  ----- ------------  ---------------      ----- ------------  ---------------
    38      1.048270  2 I  d  2              33      0.349195  2 I  d  2       

 Vector   36  Occ=0.000000D+00  E= 3.195413D-01  Symmetry=b2
              MO Center= -1.8D-14,  9.8D-16,  3.0D-02, r^2= 2.1D+00
   Bfn.  Coefficient  Atom+Function         Bfn.  Coefficient  Atom+Function  
  ----- ------------  ---------------      ----- ------------  ---------------
    34      1.048270  2 I  d -2              29      0.349195  2 I  d -2       

 Vector   37  Occ=0.000000D+00  E= 4.748811D-01  Symmetry=a1
              MO Center=  3.9D-15,  1.2D-14, -3.7D-01, r^2= 4.0D+00
   Bfn.  Coefficient  Atom+Function         Bfn.  Coefficient  Atom+Function  
  ----- ------------  ---------------      ----- ------------  ---------------
     8     -2.355908  2 I  s                  2      2.006099  1 H  s          
     7     -1.380759  2 I  s                 36     -1.134587  2 I  d  0       
    23      1.108749  2 I  pz                31     -0.289702  2 I  d  0       
     5      0.184867  2 I  s          

 Vector   38  Occ=0.000000D+00  E= 8.165567D-01  Symmetry=a1
              MO Center=  3.3D-17,  2.2D-17, -1.3D+00, r^2= 2.0D+00
   Bfn.  Coefficient  Atom+Function         Bfn.  Coefficient  Atom+Function  
  ----- ------------  ---------------      ----- ------------  ---------------
     1      1.393807  1 H  s                  2     -1.386112  1 H  s          
    36     -0.473615  2 I  d  0               8      0.465515  2 I  s          
    23     -0.391832  2 I  pz                20      0.211614  2 I  pz         


 center of mass
 --------------
 x =   0.00000000 y =   0.00000000 z =   0.03287898

 moments of inertia (a.u.)
 ------------------
           9.549167316130           0.000000000000           0.000000000000
           0.000000000000           9.549167316130           0.000000000000
           0.000000000000           0.000000000000           0.000000000000

     Multipole analysis of the density
     ---------------------------------

     L   x y z        total         alpha         beta         nuclear
     -   - - -        -----         -----         ----         -------
     0   0 0 0      0.000000    -27.000000    -27.000000     54.000000

     1   1 0 0      0.000000      0.000000      0.000000      0.000000
     1   0 1 0      0.000000      0.000000      0.000000      0.000000
     1   0 0 1     -0.260788     -0.130394     -0.130394      0.000000

     2   2 0 0    -22.137715    -11.068857    -11.068857      0.000000
     2   1 1 0      0.000000      0.000000      0.000000      0.000000
     2   1 0 1      0.000000      0.000000      0.000000      0.000000
     2   0 2 0    -22.137715    -11.068857    -11.068857      0.000000
     2   0 1 1      0.000000      0.000000      0.000000      0.000000
     2   0 0 2    -18.126577    -13.749998    -13.749998      9.373418


 Parallel integral file used       4 records with       0 large values



                            NWChem DFT Gradient Module
                            --------------------------



  charge          =   0.00
  wavefunction    = closed shell

  Using symmetry


                         DFT ENERGY GRADIENTS

    atom               coordinates                        gradient
                 x          y          z           x          y          z
   1 H       0.000000   0.000000  -3.033123    0.000000   0.000000  -0.001815
   2 I       0.000000   0.000000   0.057229    0.000000   0.000000   0.001815

                 ----------------------------------------
                 |  Time  |  1-e(secs)   |  2-e(secs)   |
                 ----------------------------------------
                 |  CPU   |       0.00   |       0.37   |
                 ----------------------------------------
                 |  WALL  |       0.00   |       0.37   |
                 ----------------------------------------

@ Step       Energy      Delta E   Gmax     Grms     Xrms     Xmax   Walltime
@ ---- ---------------- -------- -------- -------- -------- -------- --------
@    0   -7171.71757696  0.0D+00  0.00182  0.00105  0.00000  0.00000      3.9
                                                       ok       ok  


                                 NWChem DFT Module
                                 -----------------


  Caching 1-el integrals 

            General Information
            -------------------
          SCF calculation type: DFT
          Wavefunction type:  closed shell.
          No. of atoms     :     2
          No. of electrons :    54
           Alpha electrons :    27
            Beta electrons :    27
          Charge           :     0
          Spin multiplicity:     1
          Use of symmetry is: on ; symmetry adaption is: on 
          Maximum number of iterations:  30
          AO basis - number of functions:    38
                     number of shells:    16
          Convergence on energy requested: 1.00D-06
          Convergence on density requested: 1.00D-05
          Convergence on gradient requested: 5.00D-04

              XC Information
              --------------
                         B3LYP Method XC Potential
                     Hartree-Fock (Exact) Exchange  0.200          
                        Slater Exchange Functional  0.800 local    
                    Becke 1988 Exchange Functional  0.720 non-local
              Lee-Yang-Parr Correlation Functional  0.810          
                  VWN I RPA Correlation Functional  0.190 local    

             Grid Information
             ----------------
          Grid used for XC integration:  xfine     
          Radial quadrature: Mura-Knowles        
          Angular quadrature: Lebedev. 
          Tag              B.-S. Rad. Rad. Pts. Rad. Cut. Ang. Pts.
          ---              ---------- --------- --------- ---------
          H                   0.35      100           8.0      1202
          I                   1.40      205           7.0      1454
          Grid pruning is: on 
          Number of quadrature shells:   305
          Spatial weights used:  Erf1

          Convergence Information
          -----------------------
          Convergence aids based upon iterative change in 
          total energy or number of iterations. 
          Levelshifting, if invoked, occurs when the 
          HOMO/LUMO gap drops below (HL_TOL): 1.00D-02
          DIIS, if invoked, will attempt to extrapolate 
          using up to (NFOCK): 10 stored Fock matrices.

                    Damping( 0%)  Levelshifting(0.5)       DIIS
                  --------------- ------------------- ---------------
          dE  on:    start            ASAP                start   
          dE off:    2 iters         30 iters            30 iters 


      Screening Tolerance Information
      -------------------------------
          Density screening/tol_rho: 1.00D-10
          AO Gaussian exp screening on grid/accAOfunc:  14
          CD Gaussian exp screening on grid/accCDfunc:  20
          XC Gaussian exp screening on grid/accXCfunc:  20
          Schwarz screening/accCoul: 1.00D-08


 Loading old vectors from job with title :




      Symmetry analysis of molecular orbitals - initial
      -------------------------------------------------

  Numbering of irreducible representations: 

     1 a1          2 a2          3 b1          4 b2          5 e       

  Orbital symmetries:

     1 a1          2 a1          3 a1          4 e           5 e       
     6 a1          7 a1          8 e           9 e          10 a1      
    11 e          12 e          13 b1         14 b2         15 a1      
    16 a1         17 e          18 e          19 a1         20 e       
    21 e          22 b1         23 b2         24 a1         25 a1      
    26 e          27 e          28 a1         29 a1         30 e       
    31 e          32 a1         33 e          34 e          35 b1      
    36 b2         37 a1      

   Time after variat. SCF:      3.7

 Read atomic ZORA corrections from ./hi_zora_sf.zora_sf

   Time prior to 1st pass:      3.7

 #quartets = 9.316D+03 #integrals = 4.468D+04 #direct =  0.0% #cached =100.0%


 Integral file          = ./hi_zora_sf.aoints.0
 Record size in doubles =  65536        No. of integs per rec  =  43688
 Max. records in memory =      2        Max. records in file   =  26331
 No. of bits per label  =      8        No. of bits per value  =     64


File balance: exchanges=     0  moved=     0  time=   0.0


 Grid_pts file          = ./hi_zora_sf.gridpts.0
 Record size in doubles =  12289        No. of grid_pts per rec  =   3070
 Max. records in memory =     41        Max. recs in file   =    140426


 !! scf_movecs_sym_adapt:    2 vectors were symmetry contaminated

  Symmetry fudging

           Memory utilization after 1st SCF pass: 
           Heap Space remaining (MW):       12.46            12464426
          Stack Space remaining (MW):       13.11            13106897

   convergence    iter        energy       DeltaE   RMS-Dens  Diis-err    time
 ---------------- ----- ----------------- --------- --------- ---------  ------
 d= 0,ls=0.0,diis     1  -7171.7175829658 -7.19D+03  1.11D-04  5.61D-05     4.5

 !! scf_movecs_sym_adapt:    2 vectors were symmetry contaminated

  Symmetry fudging
 d= 0,ls=0.0,diis     2  -7171.7175842089 -1.24D-06  4.15D-05  3.31D-07     4.5

 !! scf_movecs_sym_adapt:    2 vectors were symmetry contaminated

  Symmetry fudging
 d= 0,ls=0.0,diis     3  -7171.7175842375 -2.86D-08  1.58D-05  2.27D-07     4.6


         Total DFT energy =    -7171.717584237494
      One electron energy =    -9799.476698090823
           Coulomb energy =     2787.536744845483
    Exchange-Corr. energy =     -176.968176168406
 Nuclear repulsion energy =       17.190545176252

       Scaling correction =       91.841222625593

 Numeric. integr. density =       54.000000199519

     Total iterative time =      0.9s



                       DFT Final Molecular Orbital Analysis
                       ------------------------------------

 Vector   17  Occ=2.000000D+00  E=-4.936140D+00  Symmetry=e
              MO Center= -3.0D-17, -1.1D-16,  2.7D-02, r^2= 2.0D-01
   Bfn.  Coefficient  Atom+Function         Bfn.  Coefficient  Atom+Function  
  ----- ------------  ---------------      ----- ------------  ---------------
    15     -0.901040  2 I  px                16     -0.787767  2 I  py         
    12      0.528823  2 I  px                13      0.462342  2 I  py         

 Vector   18  Occ=2.000000D+00  E=-4.937623D+00  Symmetry=e
              MO Center= -3.5D-17, -3.9D-17,  2.7D-02, r^2= 2.0D-01
   Bfn.  Coefficient  Atom+Function         Bfn.  Coefficient  Atom+Function  
  ----- ------------  ---------------      ----- ------------  ---------------
    16     -0.901040  2 I  py                15      0.787767  2 I  px         
    13      0.528823  2 I  py                12     -0.462342  2 I  px         

 Vector   19  Occ=2.000000D+00  E=-2.032118D+00  Symmetry=a1
              MO Center=  1.4D-17, -2.6D-18,  2.8D-02, r^2= 2.8D-01
   Bfn.  Coefficient  Atom+Function         Bfn.  Coefficient  Atom+Function  
  ----- ------------  ---------------      ----- ------------  ---------------
    31     -1.074005  2 I  d  0              26      0.412769  2 I  d  0       

 Vector   20  Occ=2.000000D+00  E=-2.025726D+00  Symmetry=e
              MO Center= -1.3D-17,  1.9D-16,  2.9D-02, r^2= 2.8D-01
   Bfn.  Coefficient  Atom+Function         Bfn.  Coefficient  Atom+Function  
  ----- ------------  ---------------      ----- ------------  ---------------
    30     -1.021426  2 I  d -1              25      0.392556  2 I  d -1       
    32      0.332784  2 I  d  1       

 Vector   21  Occ=2.000000D+00  E=-2.026063D+00  Symmetry=e
              MO Center=  7.8D-17,  1.3D-17,  2.9D-02, r^2= 2.8D-01
   Bfn.  Coefficient  Atom+Function         Bfn.  Coefficient  Atom+Function  
  ----- ------------  ---------------      ----- ------------  ---------------
    32     -1.021426  2 I  d  1              27      0.392556  2 I  d  1       
    30     -0.332784  2 I  d -1       

 Vector   22  Occ=2.000000D+00  E=-2.011925D+00  Symmetry=b1
              MO Center= -7.5D-16,  3.9D-16,  2.8D-02, r^2= 2.8D-01
   Bfn.  Coefficient  Atom+Function         Bfn.  Coefficient  Atom+Function  
  ----- ------------  ---------------      ----- ------------  ---------------
    33      1.074621  2 I  d  2              28     -0.412932  2 I  d  2       

 Vector   23  Occ=2.000000D+00  E=-2.011925D+00  Symmetry=b2
              MO Center= -9.6D-16, -1.4D-15,  2.8D-02, r^2= 2.8D-01
   Bfn.  Coefficient  Atom+Function         Bfn.  Coefficient  Atom+Function  
  ----- ------------  ---------------      ----- ------------  ---------------
    29      1.074621  2 I  d -2              24     -0.412932  2 I  d -2       

 Vector   24  Occ=2.000000D+00  E=-6.996150D-01  Symmetry=a1
              MO Center=  8.7D-15, -2.2D-15, -2.6D-01, r^2= 1.3D+00
   Bfn.  Coefficient  Atom+Function         Bfn.  Coefficient  Atom+Function  
  ----- ------------  ---------------      ----- ------------  ---------------
     7      0.730417  2 I  s                  6      0.528468  2 I  s          
     8     -0.329154  2 I  s                  5     -0.240666  2 I  s          

 Vector   25  Occ=2.000000D+00  E=-4.154708D-01  Symmetry=a1
              MO Center=  2.4D-14, -2.1D-14, -3.7D-01, r^2= 2.1D+00
   Bfn.  Coefficient  Atom+Function         Bfn.  Coefficient  Atom+Function  
  ----- ------------  ---------------      ----- ------------  ---------------
    20     -0.678648  2 I  pz                17      0.391262  2 I  pz         
     1      0.300841  1 H  s                  7      0.259015  2 I  s          
     2      0.223485  1 H  s                  8     -0.185864  2 I  s          
     6      0.175671  2 I  s                 14     -0.171498  2 I  pz         

 Vector   26  Occ=2.000000D+00  E=-2.818759D-01  Symmetry=e
              MO Center= -4.6D-15,  8.4D-15,  2.0D-03, r^2= 2.0D+00
   Bfn.  Coefficient  Atom+Function         Bfn.  Coefficient  Atom+Function  
  ----- ------------  ---------------      ----- ------------  ---------------
    19     -0.799013  2 I  py                18      0.474715  2 I  px         
    16      0.437513  2 I  py                15     -0.259938  2 I  px         
    22     -0.204224  2 I  py                13     -0.190076  2 I  py         

 Vector   27  Occ=2.000000D+00  E=-2.818657D-01  Symmetry=e
              MO Center=  6.3D-15, -4.0D-14,  2.0D-03, r^2= 2.0D+00
   Bfn.  Coefficient  Atom+Function         Bfn.  Coefficient  Atom+Function  
  ----- ------------  ---------------      ----- ------------  ---------------
    18     -0.799013  2 I  px                19     -0.474715  2 I  py         
    15      0.437513  2 I  px                16      0.259938  2 I  py         
    21     -0.204224  2 I  px                12     -0.190076  2 I  px         

 Vector   28  Occ=0.000000D+00  E=-3.463415D-02  Symmetry=a1
              MO Center=  8.3D-15, -4.4D-15, -4.6D-01, r^2= 3.2D+00
   Bfn.  Coefficient  Atom+Function         Bfn.  Coefficient  Atom+Function  
  ----- ------------  ---------------      ----- ------------  ---------------
     2      1.067076  1 H  s                 20      0.749368  2 I  pz         
    23      0.566341  2 I  pz                 8     -0.401159  2 I  s          
    17     -0.348527  2 I  pz                 1      0.285206  1 H  s          
     7      0.266002  2 I  s                  6      0.153611  2 I  s          

 Vector   29  Occ=0.000000D+00  E= 1.507882D-01  Symmetry=a1
              MO Center=  5.1D-15, -5.5D-16,  1.8D-01, r^2= 5.8D+00
   Bfn.  Coefficient  Atom+Function         Bfn.  Coefficient  Atom+Function  
  ----- ------------  ---------------      ----- ------------  ---------------
    23     -1.429193  2 I  pz                20      1.123372  2 I  pz         
    17     -0.416790  2 I  pz                 8      0.247224  2 I  s          
     2     -0.179449  1 H  s                 14      0.172277  2 I  pz         

 Vector   30  Occ=0.000000D+00  E= 1.809730D-01  Symmetry=e
              MO Center= -6.7D-15,  2.8D-15,  2.7D-02, r^2= 5.7D+00
   Bfn.  Coefficient  Atom+Function         Bfn.  Coefficient  Atom+Function  
  ----- ------------  ---------------      ----- ------------  ---------------
    21      1.265880  2 I  px                18     -1.135687  2 I  px         
    22     -0.425487  2 I  py                15      0.424764  2 I  px         
    19      0.381726  2 I  py                12     -0.175624  2 I  px         

 Vector   31  Occ=0.000000D+00  E= 1.809730D-01  Symmetry=e
              MO Center=  8.2D-16, -1.6D-15,  2.7D-02, r^2= 5.7D+00
   Bfn.  Coefficient  Atom+Function         Bfn.  Coefficient  Atom+Function  
  ----- ------------  ---------------      ----- ------------  ---------------
    22     -1.265880  2 I  py                19      1.135687  2 I  py         
    21     -0.425487  2 I  px                16     -0.424764  2 I  py         
    18      0.381726  2 I  px                13      0.175624  2 I  py         

 Vector   32  Occ=0.000000D+00  E= 2.672682D-01  Symmetry=a1
              MO Center= -2.4D-15, -3.8D-15,  1.4D-01, r^2= 3.1D+00
   Bfn.  Coefficient  Atom+Function         Bfn.  Coefficient  Atom+Function  
  ----- ------------  ---------------      ----- ------------  ---------------
     7      1.766402  2 I  s                  8      1.747284  2 I  s          
    36     -0.478471  2 I  d  0               5     -0.268760  2 I  s          
     2      0.243106  1 H  s                 23      0.226412  2 I  pz         
    20     -0.165377  2 I  pz                31     -0.159718  2 I  d  0       
     1     -0.150014  1 H  s          

 Vector   33  Occ=0.000000D+00  E= 2.916778D-01  Symmetry=e
              MO Center=  5.0D-14,  3.7D-15,  5.6D-02, r^2= 2.1D+00
   Bfn.  Coefficient  Atom+Function         Bfn.  Coefficient  Atom+Function  
  ----- ------------  ---------------      ----- ------------  ---------------
    35     -0.822711  2 I  d -1              37     -0.649145  2 I  d  1       
    30     -0.274870  2 I  d -1              32     -0.216881  2 I  d  1       

 Vector   34  Occ=0.000000D+00  E= 2.916778D-01  Symmetry=e
              MO Center= -2.8D-15,  8.1D-15,  5.6D-02, r^2= 2.1D+00
   Bfn.  Coefficient  Atom+Function         Bfn.  Coefficient  Atom+Function  
  ----- ------------  ---------------      ----- ------------  ---------------
    37      0.822711  2 I  d  1              35     -0.649145  2 I  d -1       
    32      0.274870  2 I  d  1              30     -0.216881  2 I  d -1       

 Vector   35  Occ=0.000000D+00  E= 3.195421D-01  Symmetry=b1
              MO Center= -3.3D-14, -1.1D-14,  2.8D-02, r^2= 2.1D+00
   Bfn.  Coefficient  Atom+Function         Bfn.  Coefficient  Atom+Function  
  ----- ------------  ---------------      ----- ------------  ---------------
    38     -1.048270  2 I  d  2              33     -0.349200  2 I  d  2       

 Vector   36  Occ=0.000000D+00  E= 3.195421D-01  Symmetry=b2
              MO Center= -5.5D-14,  6.2D-14,  2.8D-02, r^2= 2.1D+00
   Bfn.  Coefficient  Atom+Function         Bfn.  Coefficient  Atom+Function  
  ----- ------------  ---------------      ----- ------------  ---------------
    34     -1.048270  2 I  d -2              29     -0.349200  2 I  d -2       

 Vector   37  Occ=0.000000D+00  E= 4.753501D-01  Symmetry=a1
              MO Center=  2.5D-15,  1.6D-15, -3.7D-01, r^2= 4.0D+00
   Bfn.  Coefficient  Atom+Function         Bfn.  Coefficient  Atom+Function  
  ----- ------------  ---------------      ----- ------------  ---------------
     8     -2.364120  2 I  s                  2      2.016640  1 H  s          
     7     -1.380955  2 I  s                 36     -1.135447  2 I  d  0       
    23      1.111171  2 I  pz                31     -0.289552  2 I  d  0       
     5      0.184839  2 I  s          

 Vector   38  Occ=0.000000D+00  E= 8.177086D-01  Symmetry=a1
              MO Center=  3.4D-17,  2.6D-17, -1.3D+00, r^2= 2.0D+00
   Bfn.  Coefficient  Atom+Function         Bfn.  Coefficient  Atom+Function  
  ----- ------------  ---------------      ----- ------------  ---------------
     1      1.394749  1 H  s                  2     -1.381993  1 H  s          
    36     -0.478032  2 I  d  0               8      0.463494  2 I  s          
    23     -0.391344  2 I  pz                20      0.215841  2 I  pz         


 center of mass
 --------------
 x =   0.00000000 y =   0.00000000 z =   0.02930534

 moments of inertia (a.u.)
 ------------------
           9.504342653266           0.000000000000           0.000000000000
           0.000000000000           9.504342653266           0.000000000000
           0.000000000000           0.000000000000           0.000000000000

     Multipole analysis of the density
     ---------------------------------

     L   x y z        total         alpha         beta         nuclear
     -   - - -        -----         -----         ----         -------
     0   0 0 0      0.000000    -27.000000    -27.000000     54.000000

     1   1 0 0      0.000000      0.000000      0.000000      0.000000
     1   0 1 0      0.000000      0.000000      0.000000      0.000000
     1   0 0 1     -0.261029     -0.036112     -0.036112     -0.188805

     2   2 0 0    -22.135171    -11.067585    -11.067585      0.000000
     2   1 1 0      0.000000      0.000000      0.000000      0.000000
     2   1 0 1      0.000000      0.000000      0.000000      0.000000
     2   0 2 0    -22.135171    -11.067585    -11.067585      0.000000
     2   0 1 1      0.000000      0.000000      0.000000      0.000000
     2   0 0 2    -18.127919    -13.728998    -13.728998      9.330078


 Parallel integral file used       4 records with       0 large values

 Line search: 
     step= 1.00 grad=-1.3D-05 hess= 5.9D-06 energy=  -7171.717584 mode=downhill
 new step= 1.12                   predicted energy=  -7171.717584

          --------
          Step   1
          --------


                         Geometry "geometry" -> "geometry"
                         ---------------------------------

 Output coordinates in angstroms (scale by  1.889725989 to convert to a.u.)

  No.       Tag          Charge          X              Y              Z
 ---- ---------------- ---------- -------------- -------------- --------------
    1 H                    1.0000     0.00000000     0.00000000    -1.60291467
    2 I                   53.0000     0.00000000     0.00000000     0.02813908

      Atomic Mass 
      ----------- 

      H                  1.007825
      I                126.900400


 Effective nuclear repulsion energy (a.u.)      17.1952605505

            Nuclear Dipole moment (a.u.) 
            ----------------------------
        X                 Y               Z
 ---------------- ---------------- ----------------
     0.0000000000     0.0000000000    -0.2107869329

      Symmetry information
      --------------------

 Group name             C4v       
 Group number             18
 Group order               8
 No. of unique centers     2

      Symmetry unique atoms

     1    2


                                 NWChem DFT Module
                                 -----------------


  Caching 1-el integrals 

            General Information
            -------------------
          SCF calculation type: DFT
          Wavefunction type:  closed shell.
          No. of atoms     :     2
          No. of electrons :    54
           Alpha electrons :    27
            Beta electrons :    27
          Charge           :     0
          Spin multiplicity:     1
          Use of symmetry is: on ; symmetry adaption is: on 
          Maximum number of iterations:  30
          AO basis - number of functions:    38
                     number of shells:    16
          Convergence on energy requested: 1.00D-06
          Convergence on density requested: 1.00D-05
          Convergence on gradient requested: 5.00D-04

              XC Information
              --------------
                         B3LYP Method XC Potential
                     Hartree-Fock (Exact) Exchange  0.200          
                        Slater Exchange Functional  0.800 local    
                    Becke 1988 Exchange Functional  0.720 non-local
              Lee-Yang-Parr Correlation Functional  0.810          
                  VWN I RPA Correlation Functional  0.190 local    

             Grid Information
             ----------------
          Grid used for XC integration:  xfine     
          Radial quadrature: Mura-Knowles        
          Angular quadrature: Lebedev. 
          Tag              B.-S. Rad. Rad. Pts. Rad. Cut. Ang. Pts.
          ---              ---------- --------- --------- ---------
          H                   0.35      100           8.0      1202
          I                   1.40      205           7.0      1454
          Grid pruning is: on 
          Number of quadrature shells:   305
          Spatial weights used:  Erf1

          Convergence Information
          -----------------------
          Convergence aids based upon iterative change in 
          total energy or number of iterations. 
          Levelshifting, if invoked, occurs when the 
          HOMO/LUMO gap drops below (HL_TOL): 1.00D-02
          DIIS, if invoked, will attempt to extrapolate 
          using up to (NFOCK): 10 stored Fock matrices.

                    Damping( 0%)  Levelshifting(0.5)       DIIS
                  --------------- ------------------- ---------------
          dE  on:    start            ASAP                start   
          dE off:    2 iters         30 iters            30 iters 


      Screening Tolerance Information
      -------------------------------
          Density screening/tol_rho: 1.00D-10
          AO Gaussian exp screening on grid/accAOfunc:  14
          CD Gaussian exp screening on grid/accCDfunc:  20
          XC Gaussian exp screening on grid/accXCfunc:  20
          Schwarz screening/accCoul: 1.00D-08


 Loading old vectors from job with title :




      Symmetry analysis of molecular orbitals - initial
      -------------------------------------------------

  Numbering of irreducible representations: 

     1 a1          2 a2          3 b1          4 b2          5 e       

  Orbital symmetries:

     1 a1          2 a1          3 a1          4 e           5 e       
     6 a1          7 a1          8 e           9 e          10 a1      
    11 e          12 e          13 b1         14 b2         15 a1      
    16 a1         17 e          18 e          19 a1         20 e       
    21 e          22 b1         23 b2         24 a1         25 a1      
    26 e          27 e          28 a1         29 a1         30 e       
    31 e          32 a1         33 e          34 e          35 b1      
    36 b2         37 a1      

   Time after variat. SCF:      4.7

 Read atomic ZORA corrections from ./hi_zora_sf.zora_sf

   Time prior to 1st pass:      4.7

 #quartets = 9.316D+03 #integrals = 4.468D+04 #direct =  0.0% #cached =100.0%


 Integral file          = ./hi_zora_sf.aoints.0
 Record size in doubles =  65536        No. of integs per rec  =  43688
 Max. records in memory =      2        Max. records in file   =  26331
 No. of bits per label  =      8        No. of bits per value  =     64


File balance: exchanges=     0  moved=     0  time=   0.0


 Grid_pts file          = ./hi_zora_sf.gridpts.0
 Record size in doubles =  12289        No. of grid_pts per rec  =   3070
 Max. records in memory =     41        Max. recs in file   =    140426


           Memory utilization after 1st SCF pass: 
           Heap Space remaining (MW):       12.46            12464426
          Stack Space remaining (MW):       13.11            13106897

   convergence    iter        energy       DeltaE   RMS-Dens  Diis-err    time
 ---------------- ----- ----------------- --------- --------- ---------  ------
 d= 0,ls=0.0,diis     1  -7171.7175844621 -7.19D+03  1.62D-05  7.70D-07     5.5

 !! scf_movecs_sym_adapt:    2 vectors were symmetry contaminated

  Symmetry fudging
 d= 0,ls=0.0,diis     2  -7171.7175844807 -1.86D-08  7.01D-06  5.37D-09     5.6


         Total DFT energy =    -7171.717584480668
      One electron energy =    -9799.489514792491
           Coulomb energy =     2787.545088230078
    Exchange-Corr. energy =     -176.968418468745
 Nuclear repulsion energy =       17.195260550489

       Scaling correction =       91.841195610645

 Numeric. integr. density =       54.000000200717

     Total iterative time =      0.8s



                       DFT Final Molecular Orbital Analysis
                       ------------------------------------

 Vector   17  Occ=2.000000D+00  E=-4.937624D+00  Symmetry=e
              MO Center= -2.2D-17, -3.6D-17,  2.7D-02, r^2= 2.0D-01
   Bfn.  Coefficient  Atom+Function         Bfn.  Coefficient  Atom+Function  
  ----- ------------  ---------------      ----- ------------  ---------------
    15      0.851950  2 I  px                16     -0.840613  2 I  py         
    12     -0.500012  2 I  px                13      0.493358  2 I  py         

 Vector   18  Occ=2.000000D+00  E=-4.936134D+00  Symmetry=e
              MO Center= -7.4D-17, -2.0D-16,  2.7D-02, r^2= 2.0D-01
   Bfn.  Coefficient  Atom+Function         Bfn.  Coefficient  Atom+Function  
  ----- ------------  ---------------      ----- ------------  ---------------
    16     -0.851950  2 I  py                15     -0.840613  2 I  px         
    13      0.500012  2 I  py                12      0.493358  2 I  px         

 Vector   19  Occ=2.000000D+00  E=-2.032120D+00  Symmetry=a1
              MO Center=  8.5D-18,  3.4D-17,  2.8D-02, r^2= 2.8D-01
   Bfn.  Coefficient  Atom+Function         Bfn.  Coefficient  Atom+Function  
  ----- ------------  ---------------      ----- ------------  ---------------
    31      1.074003  2 I  d  0              26     -0.412768  2 I  d  0       

 Vector   20  Occ=2.000000D+00  E=-2.025869D+00  Symmetry=e
              MO Center= -8.0D-19,  5.2D-17,  2.9D-02, r^2= 2.8D-01
   Bfn.  Coefficient  Atom+Function         Bfn.  Coefficient  Atom+Function  
  ----- ------------  ---------------      ----- ------------  ---------------
    30     -1.074064  2 I  d -1              25      0.412786  2 I  d -1       

 Vector   21  Occ=2.000000D+00  E=-2.025918D+00  Symmetry=e
              MO Center=  8.3D-17, -2.0D-17,  2.9D-02, r^2= 2.8D-01
   Bfn.  Coefficient  Atom+Function         Bfn.  Coefficient  Atom+Function  
  ----- ------------  ---------------      ----- ------------  ---------------
    32      1.074064  2 I  d  1              27     -0.412786  2 I  d  1       

 Vector   22  Occ=2.000000D+00  E=-2.011923D+00  Symmetry=b1
              MO Center= -1.8D-15, -1.0D-15,  2.8D-02, r^2= 2.8D-01
   Bfn.  Coefficient  Atom+Function         Bfn.  Coefficient  Atom+Function  
  ----- ------------  ---------------      ----- ------------  ---------------
    33     -1.074621  2 I  d  2              28      0.412932  2 I  d  2       

 Vector   23  Occ=2.000000D+00  E=-2.011923D+00  Symmetry=b2
              MO Center= -3.2D-16,  9.5D-16,  2.8D-02, r^2= 2.8D-01
   Bfn.  Coefficient  Atom+Function         Bfn.  Coefficient  Atom+Function  
  ----- ------------  ---------------      ----- ------------  ---------------
    29      1.074621  2 I  d -2              24     -0.412932  2 I  d -2       

 Vector   24  Occ=2.000000D+00  E=-6.996583D-01  Symmetry=a1
              MO Center= -4.5D-15, -3.2D-16, -2.6D-01, r^2= 1.3D+00
   Bfn.  Coefficient  Atom+Function         Bfn.  Coefficient  Atom+Function  
  ----- ------------  ---------------      ----- ------------  ---------------
     7      0.730369  2 I  s                  6      0.528434  2 I  s          
     8     -0.329110  2 I  s                  5     -0.240652  2 I  s          

 Vector   25  Occ=2.000000D+00  E=-4.155108D-01  Symmetry=a1
              MO Center= -8.3D-15,  8.4D-15, -3.7D-01, r^2= 2.1D+00
   Bfn.  Coefficient  Atom+Function         Bfn.  Coefficient  Atom+Function  
  ----- ------------  ---------------      ----- ------------  ---------------
    20      0.678688  2 I  pz                17     -0.391297  2 I  pz         
     1     -0.300843  1 H  s                  7     -0.259114  2 I  s          
     2     -0.223360  1 H  s                  8      0.185975  2 I  s          
     6     -0.175753  2 I  s                 14      0.171514  2 I  pz         

 Vector   26  Occ=2.000000D+00  E=-2.818800D-01  Symmetry=e
              MO Center=  2.3D-14, -8.7D-15,  1.8D-03, r^2= 2.0D+00
   Bfn.  Coefficient  Atom+Function         Bfn.  Coefficient  Atom+Function  
  ----- ------------  ---------------      ----- ------------  ---------------
    18     -0.735296  2 I  px                19      0.568437  2 I  py         
    15      0.402624  2 I  px                16     -0.311257  2 I  py         
    21     -0.187936  2 I  px                12     -0.174919  2 I  px         

 Vector   27  Occ=2.000000D+00  E=-2.818693D-01  Symmetry=e
              MO Center=  5.4D-15,  7.1D-15,  1.8D-03, r^2= 2.0D+00
   Bfn.  Coefficient  Atom+Function         Bfn.  Coefficient  Atom+Function  
  ----- ------------  ---------------      ----- ------------  ---------------
    19      0.735296  2 I  py                18      0.568437  2 I  px         
    16     -0.402624  2 I  py                15     -0.311257  2 I  px         
    22      0.187936  2 I  py                13      0.174919  2 I  py         

 Vector   28  Occ=0.000000D+00  E=-3.452546D-02  Symmetry=a1
              MO Center= -3.3D-15,  5.3D-15, -4.6D-01, r^2= 3.2D+00
   Bfn.  Coefficient  Atom+Function         Bfn.  Coefficient  Atom+Function  
  ----- ------------  ---------------      ----- ------------  ---------------
     2     -1.067542  1 H  s                 20     -0.749255  2 I  pz         
    23     -0.566780  2 I  pz                 8      0.401612  2 I  s          
    17      0.348420  2 I  pz                 1     -0.285170  1 H  s          
     7     -0.266054  2 I  s                  6     -0.153652  2 I  s          

 Vector   29  Occ=0.000000D+00  E= 1.507736D-01  Symmetry=a1
              MO Center=  6.1D-15,  1.5D-14,  1.8D-01, r^2= 5.8D+00
   Bfn.  Coefficient  Atom+Function         Bfn.  Coefficient  Atom+Function  
  ----- ------------  ---------------      ----- ------------  ---------------
    23      1.429027  2 I  pz                20     -1.123411  2 I  pz         
    17      0.416810  2 I  pz                 8     -0.247510  2 I  s          
     2      0.179096  1 H  s                 14     -0.172285  2 I  pz         

 Vector   30  Occ=0.000000D+00  E= 1.809727D-01  Symmetry=e
              MO Center=  2.3D-15,  2.3D-14,  2.7D-02, r^2= 5.7D+00
   Bfn.  Coefficient  Atom+Function         Bfn.  Coefficient  Atom+Function  
  ----- ------------  ---------------      ----- ------------  ---------------
    22      1.334391  2 I  py                19     -1.197149  2 I  py         
    16      0.447751  2 I  py                13     -0.185129  2 I  py         

 Vector   31  Occ=0.000000D+00  E= 1.809727D-01  Symmetry=e
              MO Center=  7.1D-15, -3.2D-17,  2.7D-02, r^2= 5.7D+00
   Bfn.  Coefficient  Atom+Function         Bfn.  Coefficient  Atom+Function  
  ----- ------------  ---------------      ----- ------------  ---------------
    21     -1.334391  2 I  px                18      1.197149  2 I  px         
    15     -0.447751  2 I  px                12      0.185129  2 I  px         

 Vector   32  Occ=0.000000D+00  E= 2.672531D-01  Symmetry=a1
              MO Center= -1.7D-14, -2.9D-14,  1.4D-01, r^2= 3.1D+00
   Bfn.  Coefficient  Atom+Function         Bfn.  Coefficient  Atom+Function  
  ----- ------------  ---------------      ----- ------------  ---------------
     7      1.766381  2 I  s                  8      1.747134  2 I  s          
    36     -0.478393  2 I  d  0               5     -0.268758  2 I  s          
     2      0.243360  1 H  s                 23      0.226694  2 I  pz         
    20     -0.165538  2 I  pz                31     -0.159693  2 I  d  0       
     1     -0.150058  1 H  s          

 Vector   33  Occ=0.000000D+00  E= 2.916661D-01  Symmetry=e
              MO Center= -1.6D-15, -1.7D-14,  5.6D-02, r^2= 2.1D+00
   Bfn.  Coefficient  Atom+Function         Bfn.  Coefficient  Atom+Function  
  ----- ------------  ---------------      ----- ------------  ---------------
    35      1.010171  2 I  d -1              30      0.337502  2 I  d -1       
    37     -0.278921  2 I  d  1       

 Vector   34  Occ=0.000000D+00  E= 2.916661D-01  Symmetry=e
              MO Center=  1.8D-14, -5.5D-15,  5.6D-02, r^2= 2.1D+00
   Bfn.  Coefficient  Atom+Function         Bfn.  Coefficient  Atom+Function  
  ----- ------------  ---------------      ----- ------------  ---------------
    37      1.010171  2 I  d  1              32      0.337502  2 I  d  1       
    35      0.278921  2 I  d -1       

 Vector   35  Occ=0.000000D+00  E= 3.195397D-01  Symmetry=b1
              MO Center= -6.4D-15, -1.2D-14,  2.8D-02, r^2= 2.1D+00
   Bfn.  Coefficient  Atom+Function         Bfn.  Coefficient  Atom+Function  
  ----- ------------  ---------------      ----- ------------  ---------------
    38      1.048270  2 I  d  2              33      0.349200  2 I  d  2       

 Vector   36  Occ=0.000000D+00  E= 3.195397D-01  Symmetry=b2
              MO Center= -1.3D-14,  5.9D-15,  2.8D-02, r^2= 2.1D+00
   Bfn.  Coefficient  Atom+Function         Bfn.  Coefficient  Atom+Function  
  ----- ------------  ---------------      ----- ------------  ---------------
    34     -1.048270  2 I  d -2              29     -0.349200  2 I  d -2       

 Vector   37  Occ=0.000000D+00  E= 4.754017D-01  Symmetry=a1
              MO Center= -6.5D-15,  8.0D-15, -3.7D-01, r^2= 4.0D+00
   Bfn.  Coefficient  Atom+Function         Bfn.  Coefficient  Atom+Function  
  ----- ------------  ---------------      ----- ------------  ---------------
     8     -2.365083  2 I  s                  2      2.017869  1 H  s          
     7     -1.380979  2 I  s                 36     -1.135548  2 I  d  0       
    23      1.111454  2 I  pz                31     -0.289534  2 I  d  0       
     5      0.184836  2 I  s          

 Vector   38  Occ=0.000000D+00  E= 8.178448D-01  Symmetry=a1
              MO Center=  3.4D-17,  2.7D-17, -1.3D+00, r^2= 2.0D+00
   Bfn.  Coefficient  Atom+Function         Bfn.  Coefficient  Atom+Function  
  ----- ------------  ---------------      ----- ------------  ---------------
     1     -1.394861  1 H  s                  2      1.381517  1 H  s          
    36      0.478541  2 I  d  0               8     -0.463265  2 I  s          
    23      0.391288  2 I  pz                20     -0.216337  2 I  pz         


 center of mass
 --------------
 x =   0.00000000 y =   0.00000000 z =   0.02888927

 moments of inertia (a.u.)
 ------------------
           9.499130706934           0.000000000000           0.000000000000
           0.000000000000           9.499130706934           0.000000000000
           0.000000000000           0.000000000000           0.000000000000

     Multipole analysis of the density
     ---------------------------------

     L   x y z        total         alpha         beta         nuclear
     -   - - -        -----         -----         ----         -------
     0   0 0 0      0.000000    -27.000000    -27.000000     54.000000

     1   1 0 0      0.000000      0.000000      0.000000      0.000000
     1   0 1 0      0.000000      0.000000      0.000000      0.000000
     1   0 0 1     -0.261198     -0.025205     -0.025205     -0.210787

     2   2 0 0    -22.134837    -11.067419    -11.067419      0.000000
     2   1 1 0      0.000000      0.000000      0.000000      0.000000
     2   1 0 1      0.000000      0.000000      0.000000      0.000000
     2   0 2 0    -22.134837    -11.067419    -11.067419      0.000000
     2   0 1 1      0.000000      0.000000      0.000000      0.000000
     2   0 0 2    -18.127971    -13.726548    -13.726548      9.325125


 Parallel integral file used       4 records with       0 large values



                            NWChem DFT Gradient Module
                            --------------------------



  charge          =   0.00
  wavefunction    = closed shell

  Using symmetry


                         DFT ENERGY GRADIENTS

    atom               coordinates                        gradient
                 x          y          z           x          y          z
   1 H       0.000000   0.000000  -3.029070    0.000000   0.000000  -0.000261
   2 I       0.000000   0.000000   0.053175    0.000000   0.000000   0.000261

                 ----------------------------------------
                 |  Time  |  1-e(secs)   |  2-e(secs)   |
                 ----------------------------------------
                 |  CPU   |       0.00   |       0.37   |
                 ----------------------------------------
                 |  WALL  |       0.00   |       0.37   |
                 ----------------------------------------

  Step       Energy      Delta E   Gmax     Grms     Xrms     Xmax   Walltime
  ---- ---------------- -------- -------- -------- -------- -------- --------
@    1   -7171.71758448 -7.5D-06  0.00026  0.00015  0.00234  0.00405      6.6
                                     ok       ok                    


                                 NWChem DFT Module
                                 -----------------


  Caching 1-el integrals 

            General Information
            -------------------
          SCF calculation type: DFT
          Wavefunction type:  closed shell.
          No. of atoms     :     2
          No. of electrons :    54
           Alpha electrons :    27
            Beta electrons :    27
          Charge           :     0
          Spin multiplicity:     1
          Use of symmetry is: on ; symmetry adaption is: on 
          Maximum number of iterations:  30
          AO basis - number of functions:    38
                     number of shells:    16
          Convergence on energy requested: 1.00D-06
          Convergence on density requested: 1.00D-05
          Convergence on gradient requested: 5.00D-04

              XC Information
              --------------
                         B3LYP Method XC Potential
                     Hartree-Fock (Exact) Exchange  0.200          
                        Slater Exchange Functional  0.800 local    
                    Becke 1988 Exchange Functional  0.720 non-local
              Lee-Yang-Parr Correlation Functional  0.810          
                  VWN I RPA Correlation Functional  0.190 local    

             Grid Information
             ----------------
          Grid used for XC integration:  xfine     
          Radial quadrature: Mura-Knowles        
          Angular quadrature: Lebedev. 
          Tag              B.-S. Rad. Rad. Pts. Rad. Cut. Ang. Pts.
          ---              ---------- --------- --------- ---------
          H                   0.35      100           8.0      1202
          I                   1.40      205           7.0      1454
          Grid pruning is: on 
          Number of quadrature shells:   305
          Spatial weights used:  Erf1

          Convergence Information
          -----------------------
          Convergence aids based upon iterative change in 
          total energy or number of iterations. 
          Levelshifting, if invoked, occurs when the 
          HOMO/LUMO gap drops below (HL_TOL): 1.00D-02
          DIIS, if invoked, will attempt to extrapolate 
          using up to (NFOCK): 10 stored Fock matrices.

                    Damping( 0%)  Levelshifting(0.5)       DIIS
                  --------------- ------------------- ---------------
          dE  on:    start            ASAP                start   
          dE off:    2 iters         30 iters            30 iters 


      Screening Tolerance Information
      -------------------------------
          Density screening/tol_rho: 1.00D-10
          AO Gaussian exp screening on grid/accAOfunc:  14
          CD Gaussian exp screening on grid/accCDfunc:  20
          XC Gaussian exp screening on grid/accXCfunc:  20
          Schwarz screening/accCoul: 1.00D-08


 Loading old vectors from job with title :




      Symmetry analysis of molecular orbitals - initial
      -------------------------------------------------

  Numbering of irreducible representations: 

     1 a1          2 a2          3 b1          4 b2          5 e       

  Orbital symmetries:

     1 a1          2 a1          3 a1          4 e           5 e       
     6 a1          7 a1          8 e           9 e          10 a1      
    11 e          12 e          13 b1         14 b2         15 a1      
    16 a1         17 e          18 e          19 a1         20 e       
    21 e          22 b1         23 b2         24 a1         25 a1      
    26 e          27 e          28 a1         29 a1         30 e       
    31 e          32 a1         33 e          34 e          35 b1      
    36 b2         37 a1      

   Time after variat. SCF:      6.2

 Read atomic ZORA corrections from ./hi_zora_sf.zora_sf

   Time prior to 1st pass:      6.2

 #quartets = 9.316D+03 #integrals = 4.468D+04 #direct =  0.0% #cached =100.0%


 Integral file          = ./hi_zora_sf.aoints.0
 Record size in doubles =  65536        No. of integs per rec  =  43688
 Max. records in memory =      2        Max. records in file   =  26331
 No. of bits per label  =      8        No. of bits per value  =     64


File balance: exchanges=     0  moved=     0  time=   0.0


 Grid_pts file          = ./hi_zora_sf.gridpts.0
 Record size in doubles =  12289        No. of grid_pts per rec  =   3070
 Max. records in memory =     41        Max. recs in file   =    140426


 !! scf_movecs_sym_adapt:    2 vectors were symmetry contaminated

  Symmetry fudging

           Memory utilization after 1st SCF pass: 
           Heap Space remaining (MW):       12.46            12464426
          Stack Space remaining (MW):       13.11            13106897

   convergence    iter        energy       DeltaE   RMS-Dens  Diis-err    time
 ---------------- ----- ----------------- --------- --------- ---------  ------
 d= 0,ls=0.0,diis     1  -7171.7175844521 -7.19D+03  2.31D-05  2.00D-06     7.0

 !! scf_movecs_sym_adapt:    2 vectors were symmetry contaminated

  Symmetry fudging
 d= 0,ls=0.0,diis     2  -7171.7175844979 -4.59D-08  9.52D-06  1.55D-08     7.0


         Total DFT energy =    -7171.717584497920
      One electron energy =    -9799.505135902889
           Coulomb energy =     2787.553314133597
    Exchange-Corr. energy =     -176.968615180545
 Nuclear repulsion energy =       17.202852451918

       Scaling correction =       91.841189572590

 Numeric. integr. density =       54.000000202645

     Total iterative time =      0.8s



                       DFT Final Molecular Orbital Analysis
                       ------------------------------------

 Vector   17  Occ=2.000000D+00  E=-4.936696D+00  Symmetry=e
              MO Center= -5.1D-17, -6.2D-17,  2.7D-02, r^2= 2.0D-01
   Bfn.  Coefficient  Atom+Function         Bfn.  Coefficient  Atom+Function  
  ----- ------------  ---------------      ----- ------------  ---------------
    15      1.190487  2 I  px                12     -0.698700  2 I  px         
     9     -0.194289  2 I  px         

 Vector   18  Occ=2.000000D+00  E=-4.937041D+00  Symmetry=e
              MO Center= -5.6D-16, -4.9D-16,  2.7D-02, r^2= 2.0D-01
   Bfn.  Coefficient  Atom+Function         Bfn.  Coefficient  Atom+Function  
  ----- ------------  ---------------      ----- ------------  ---------------
    16      1.190487  2 I  py                13     -0.698700  2 I  py         
    10     -0.194289  2 I  py         

 Vector   19  Occ=2.000000D+00  E=-2.032117D+00  Symmetry=a1
              MO Center= -5.4D-17, -7.3D-17,  2.8D-02, r^2= 2.8D-01
   Bfn.  Coefficient  Atom+Function         Bfn.  Coefficient  Atom+Function  
  ----- ------------  ---------------      ----- ------------  ---------------
    31      1.074001  2 I  d  0              26     -0.412767  2 I  d  0       

 Vector   20  Occ=2.000000D+00  E=-2.025921D+00  Symmetry=e
              MO Center=  3.7D-18,  2.4D-17,  2.9D-02, r^2= 2.8D-01
   Bfn.  Coefficient  Atom+Function         Bfn.  Coefficient  Atom+Function  
  ----- ------------  ---------------      ----- ------------  ---------------
    30     -1.062873  2 I  d -1              25      0.408485  2 I  d -1       
    32     -0.156057  2 I  d  1       

 Vector   21  Occ=2.000000D+00  E=-2.025848D+00  Symmetry=e
              MO Center=  2.3D-16,  5.8D-17,  2.9D-02, r^2= 2.8D-01
   Bfn.  Coefficient  Atom+Function         Bfn.  Coefficient  Atom+Function  
  ----- ------------  ---------------      ----- ------------  ---------------
    32      1.062873  2 I  d  1              27     -0.408485  2 I  d  1       
    30     -0.156057  2 I  d -1       

 Vector   22  Occ=2.000000D+00  E=-2.011914D+00  Symmetry=b1
              MO Center=  1.5D-16,  3.1D-16,  2.8D-02, r^2= 2.8D-01
   Bfn.  Coefficient  Atom+Function         Bfn.  Coefficient  Atom+Function  
  ----- ------------  ---------------      ----- ------------  ---------------
    33      1.074620  2 I  d  2              28     -0.412932  2 I  d  2       

 Vector   23  Occ=2.000000D+00  E=-2.011914D+00  Symmetry=b2
              MO Center=  1.3D-16, -4.5D-16,  2.8D-02, r^2= 2.8D-01
   Bfn.  Coefficient  Atom+Function         Bfn.  Coefficient  Atom+Function  
  ----- ------------  ---------------      ----- ------------  ---------------
    29      1.074620  2 I  d -2              24     -0.412932  2 I  d -2       

 Vector   24  Occ=2.000000D+00  E=-6.997230D-01  Symmetry=a1
              MO Center=  7.7D-15,  4.9D-15, -2.7D-01, r^2= 1.3D+00
   Bfn.  Coefficient  Atom+Function         Bfn.  Coefficient  Atom+Function  
  ----- ------------  ---------------      ----- ------------  ---------------
     7      0.730292  2 I  s                  6      0.528382  2 I  s          
     8     -0.329041  2 I  s                  5     -0.240630  2 I  s          

 Vector   25  Occ=2.000000D+00  E=-4.155670D-01  Symmetry=a1
              MO Center= -1.3D-14, -1.8D-14, -3.7D-01, r^2= 2.1D+00
   Bfn.  Coefficient  Atom+Function         Bfn.  Coefficient  Atom+Function  
  ----- ------------  ---------------      ----- ------------  ---------------
    20     -0.678753  2 I  pz                17      0.391353  2 I  pz         
     1      0.300843  1 H  s                  7      0.259268  2 I  s          
     2      0.223159  1 H  s                  8     -0.186150  2 I  s          
     6      0.175881  2 I  s                 14     -0.171540  2 I  pz         

 Vector   26  Occ=2.000000D+00  E=-2.818835D-01  Symmetry=e
              MO Center= -1.3D-15,  1.1D-15,  1.4D-03, r^2= 2.0D+00
   Bfn.  Coefficient  Atom+Function         Bfn.  Coefficient  Atom+Function  
  ----- ------------  ---------------      ----- ------------  ---------------
    19      0.726633  2 I  py                18     -0.579473  2 I  px         
    16     -0.397880  2 I  py                15      0.317300  2 I  px         
    22      0.185719  2 I  py                13      0.172858  2 I  py         

 Vector   27  Occ=2.000000D+00  E=-2.818724D-01  Symmetry=e
              MO Center=  3.2D-15,  1.6D-15,  1.4D-03, r^2= 2.0D+00
   Bfn.  Coefficient  Atom+Function         Bfn.  Coefficient  Atom+Function  
  ----- ------------  ---------------      ----- ------------  ---------------
    18      0.726633  2 I  px                19      0.579473  2 I  py         
    15     -0.397880  2 I  px                16     -0.317300  2 I  py         
    21      0.185719  2 I  px                12      0.172858  2 I  px         

 Vector   28  Occ=0.000000D+00  E=-3.434393D-02  Symmetry=a1
              MO Center= -2.4D-15, -5.7D-15, -4.6D-01, r^2= 3.2D+00
   Bfn.  Coefficient  Atom+Function         Bfn.  Coefficient  Atom+Function  
  ----- ------------  ---------------      ----- ------------  ---------------
     2      1.068299  1 H  s                 20      0.749059  2 I  pz         
    23      0.567500  2 I  pz                 8     -0.402340  2 I  s          
    17     -0.348244  2 I  pz                 1      0.285107  1 H  s          
     7      0.266140  2 I  s                  6      0.153716  2 I  s          

 Vector   29  Occ=0.000000D+00  E= 1.507530D-01  Symmetry=a1
              MO Center= -8.2D-16,  1.1D-14,  1.8D-01, r^2= 5.8D+00
   Bfn.  Coefficient  Atom+Function         Bfn.  Coefficient  Atom+Function  
  ----- ------------  ---------------      ----- ------------  ---------------
    23      1.428761  2 I  pz                20     -1.123484  2 I  pz         
    17      0.416847  2 I  pz                 8     -0.247976  2 I  s          
     2      0.178532  1 H  s                 14     -0.172301  2 I  pz         

 Vector   30  Occ=0.000000D+00  E= 1.809737D-01  Symmetry=e
              MO Center=  9.6D-15,  2.7D-15,  2.7D-02, r^2= 5.7D+00
   Bfn.  Coefficient  Atom+Function         Bfn.  Coefficient  Atom+Function  
  ----- ------------  ---------------      ----- ------------  ---------------
    21     -1.334999  2 I  px                18      1.197691  2 I  px         
    15     -0.447954  2 I  px                12      0.185212  2 I  px         

 Vector   31  Occ=0.000000D+00  E= 1.809737D-01  Symmetry=e
              MO Center=  5.5D-16, -2.6D-14,  2.7D-02, r^2= 5.7D+00
   Bfn.  Coefficient  Atom+Function         Bfn.  Coefficient  Atom+Function  
  ----- ------------  ---------------      ----- ------------  ---------------
    22     -1.334999  2 I  py                19      1.197691  2 I  py         
    16     -0.447954  2 I  py                13      0.185212  2 I  py         

 Vector   32  Occ=0.000000D+00  E= 2.672316D-01  Symmetry=a1
              MO Center= -1.6D-15,  3.0D-14,  1.4D-01, r^2= 3.1D+00
   Bfn.  Coefficient  Atom+Function         Bfn.  Coefficient  Atom+Function  
  ----- ------------  ---------------      ----- ------------  ---------------
     7     -1.766352  2 I  s                  8     -1.746903  2 I  s          
[...]
   1 H       0.000000   0.000000  -3.038389    0.001203   0.001607  -0.001948
   2 I       0.000000   0.000000   0.052495    0.000000   0.000000   0.000000

 atom:   2 xyz: 1(+) wall time:      28.2      date:  Fri Aug  6 14:56:14 2010


                                 NWChem DFT Module
                                 -----------------


  Caching 1-el integrals 
   Time after variat. SCF:     26.5

 Read atomic ZORA corrections from ./hi_zora_sf.zora_sf

   Time prior to 1st pass:     26.5


         Total DFT energy =    -7171.721095843262
      One electron energy =    -9799.417938442544
           Coulomb energy =     2787.459452420367
    Exchange-Corr. energy =     -176.965371654637
 Nuclear repulsion energy =       17.202761833552

       Scaling correction =       91.905135335986

 Numeric. integr. density =       54.000000369921

     Total iterative time =      2.2s




                         DFT ENERGY GRADIENTS

    atom               coordinates                        gradient
                 x          y          z           x          y          z
   1 H       0.000000   0.000000  -3.028389    0.001207   0.001618  -0.000046
   2 I       0.010000   0.000000   0.052495   -0.001207  -0.001618   0.000046

 atom:   2 xyz: 1(-) wall time:      31.5      date:  Fri Aug  6 14:56:17 2010


                                 NWChem DFT Module
                                 -----------------


  Caching 1-el integrals 
   Time after variat. SCF:     29.7

 Read atomic ZORA corrections from ./hi_zora_sf.zora_sf

   Time prior to 1st pass:     29.7


         Total DFT energy =    -7171.721071672789
      One electron energy =    -9799.418070135569
           Coulomb energy =     2787.459611107285
    Exchange-Corr. energy =     -176.965374478057
 Nuclear repulsion energy =       17.202761833552

       Scaling correction =       91.905135196665

 Numeric. integr. density =       54.000000370026

     Total iterative time =      2.2s




                         DFT ENERGY GRADIENTS

    atom               coordinates                        gradient
                 x          y          z           x          y          z
   1 H       0.000000   0.000000  -3.028389    0.001208   0.001615  -0.000036
   2 I      -0.010000   0.000000   0.052495   -0.001208  -0.001615   0.000036

 atom:   2 xyz: 2(+) wall time:      35.0      date:  Fri Aug  6 14:56:21 2010


                                 NWChem DFT Module
                                 -----------------


  Caching 1-el integrals 
   Time after variat. SCF:     32.8

 Read atomic ZORA corrections from ./hi_zora_sf.zora_sf

   Time prior to 1st pass:     32.8


         Total DFT energy =    -7171.721100783874
      One electron energy =    -9799.417901695380
           Coulomb energy =     2787.459411097965
    Exchange-Corr. energy =     -176.965372020012
 Nuclear repulsion energy =       17.202761833552

       Scaling correction =       91.905135471471

 Numeric. integr. density =       54.000001295846

     Total iterative time =      2.2s




                         DFT ENERGY GRADIENTS

    atom               coordinates                        gradient
                 x          y          z           x          y          z
   1 H       0.000000   0.000000  -3.028389    0.001209   0.001617  -0.000051
   2 I       0.000000   0.010000   0.052495   -0.001209  -0.001617   0.000051

 atom:   2 xyz: 2(-) wall time:      38.2      date:  Fri Aug  6 14:56:24 2010


                                 NWChem DFT Module
                                 -----------------


  Caching 1-el integrals 
   Time after variat. SCF:     35.9

 Read atomic ZORA corrections from ./hi_zora_sf.zora_sf

   Time prior to 1st pass:     35.9


         Total DFT energy =    -7171.721068439416
      One electron energy =    -9799.418106997897
           Coulomb energy =     2787.459652531340
    Exchange-Corr. energy =     -176.965375806412
 Nuclear repulsion energy =       17.202761833552

       Scaling correction =       91.905135071434

 Numeric. integr. density =       54.000001297441

     Total iterative time =      2.2s




                         DFT ENERGY GRADIENTS

    atom               coordinates                        gradient
                 x          y          z           x          y          z
   1 H       0.000000   0.000000  -3.028389    0.001207   0.001615  -0.000031
   2 I       0.000000  -0.010000   0.052495   -0.001207  -0.001615   0.000031

 atom:   2 xyz: 3(+) wall time:      41.4      date:  Fri Aug  6 14:56:27 2010


                                 NWChem DFT Module
                                 -----------------


  Caching 1-el integrals 
   Time after variat. SCF:     39.1

 Read atomic ZORA corrections from ./hi_zora_sf.zora_sf

   Time prior to 1st pass:     39.1


         Total DFT energy =    -7171.721075301374
      One electron energy =    -9799.306529141870
           Coulomb energy =     2787.402291165359
    Exchange-Corr. energy =     -176.964033045095
 Nuclear repulsion energy =       17.147195720232

       Scaling correction =       91.905159412717

 Numeric. integr. density =       54.000000650063

     Total iterative time =      2.2s




                         DFT ENERGY GRADIENTS

    atom               coordinates                        gradient
                 x          y          z           x          y          z
   1 H       0.000000   0.000000  -3.028389    0.001203   0.001607  -0.001948
   2 I       0.000000   0.000000   0.062495   -0.001203  -0.001607   0.001948

 atom:   2 xyz: 3(-) wall time:      44.7      date:  Fri Aug  6 14:56:31 2010


                                 NWChem DFT Module
                                 -----------------


  Caching 1-el integrals 
   Time after variat. SCF:     42.2

 Read atomic ZORA corrections from ./hi_zora_sf.zora_sf

   Time prior to 1st pass:     42.2


         Total DFT energy =    -7171.721073368340
      One electron energy =    -9799.531939318584
           Coulomb energy =     2787.518758423528
    Exchange-Corr. energy =     -176.966764137036
 Nuclear repulsion energy =       17.258871663752

       Scaling correction =       91.905109038161

 Numeric. integr. density =       54.000000678246

     Total iterative time =      2.2s




                         DFT ENERGY GRADIENTS

    atom               coordinates                        gradient
                 x          y          z           x          y          z
   1 H       0.000000   0.000000  -3.028389    0.001212   0.001626   0.001931
   2 I       0.000000   0.000000   0.042495   -0.001212  -0.001626  -0.001931

  
  finite difference hessian delta =   1.000000000000000E-002

              1        2        3        4        5        6      
    1    0.0000   0.0000   0.0000   0.0000   0.0000   0.0000
    2    0.0000   0.0000   0.0000   0.0000   0.0000   0.0000
    3    0.0000   0.0000   0.1939   0.0000   0.0000  -0.1939
    4    0.0000   0.0000   0.0000   0.0000   0.0000   0.0000
    5    0.0000   0.0000   0.0000   0.0000   0.0000   0.0000
    6    0.0000   0.0000  -0.1939   0.0000   0.0000   0.1939
  

  finite difference derivative dipole; delta =   1.000000000000000E-002

  
  
 X vector of derivative dipole (au) [debye/angstrom]
 d_dipole_x/<atom=   1,x> =     0.0862     [    0.4139]
 d_dipole_x/<atom=   1,y> =     0.0000     [    0.0000]
 d_dipole_x/<atom=   1,z> =     0.0000     [    0.0000]
 d_dipole_x/<atom=   2,x> =    -0.0862     [   -0.4139]
 d_dipole_x/<atom=   2,y> =     0.0000     [    0.0000]
 d_dipole_x/<atom=   2,z> =     0.0000     [    0.0000]
  
 Y vector of derivative dipole (au) [debye/angstrom]
 d_dipole_y/<atom=   1,x> =     0.0000     [    0.0000]
 d_dipole_y/<atom=   1,y> =     0.0862     [    0.4139]
 d_dipole_y/<atom=   1,z> =     0.0000     [    0.0000]
 d_dipole_y/<atom=   2,x> =     0.0000     [    0.0000]
 d_dipole_y/<atom=   2,y> =    -0.0862     [   -0.4139]
 d_dipole_y/<atom=   2,z> =     0.0000     [    0.0000]
  
 Z vector of derivative dipole (au) [debye/angstrom]
 d_dipole_z/<atom=   1,x> =     0.0000     [    0.0000]
 d_dipole_z/<atom=   1,y> =     0.0000     [    0.0000]
 d_dipole_z/<atom=   1,z> =    -0.0694     [   -0.3334]
 d_dipole_z/<atom=   2,x> =     0.0000     [    0.0000]
 d_dipole_z/<atom=   2,y> =     0.0000     [    0.0000]
 d_dipole_z/<atom=   2,z> =     0.0694     [    0.3334]
  
  
  triangle hessian written to ./hi_zora_sf.hess
  derivative dipole written to ./hi_zora_sf.fd_ddipole

 Deleting state for dft with suffix hess
        ./hi_zora_sf.movecs



  Vibrational analysis via the FX method 

  See chapter 2 in "Molecular Vibrations" by Wilson, Decius and Cross

  Vib: Default input used 

  Nuclear Hessian passed symmetry test 



 ---------------------------- Atom information ----------------------------
     atom    #        X              Y              Z            mass
 --------------------------------------------------------------------------
    H        1  0.0000000D+00  0.0000000D+00 -3.0283894D+00  1.0078250D+00
    I        2  0.0000000D+00  0.0000000D+00  5.2495020D-02  1.2690040D+02
 --------------------------------------------------------------------------




          ----------------------------------------------------
          MASS-WEIGHTED NUCLEAR HESSIAN (Hartree/Bohr/Bohr/Kamu)
          ----------------------------------------------------


              1           2           3           4           5           6
   ----- ----- ----- ----- -----
    1  -2.29024D-02
    2   0.00000D+00-2.29024D-02
    3   0.00000D+00 0.00000D+00 1.92429D+02
    4   2.03827D-03 0.00000D+00 0.00000D+00-1.81644D-04
    5   0.00000D+00 2.03827D-03 0.00000D+00 0.00000D+00-1.81644D-04
    6   0.00000D+00 0.00000D+00-1.71488D+01 0.00000D+00 0.00000D+00 1.52825D+00



          -------------------------------------------------
          NORMAL MODE EIGENVECTORS IN CARTESIAN COORDINATES
          -------------------------------------------------
                 (Frequencies expressed in cm-1)

                    1           2           3           4           5           6
 
 Frequency        -24.70      -24.70       -0.08       -0.08        0.02     2263.90
 
           1     0.99219     0.00000     0.08830     0.00000     0.00000     0.00000
           2     0.00000     0.99219     0.00000     0.08830     0.00000     0.00000
           3     0.00000     0.00000     0.00000     0.00000    -0.08842    -0.99218
           4    -0.00787     0.00000     0.08842     0.00000     0.00000     0.00000
           5     0.00000    -0.00787     0.00000     0.08842     0.00000     0.00000
           6     0.00000     0.00000     0.00000     0.00000    -0.08842     0.00788



 ----------------------------------------------------------------------------
 Normal Eigenvalue ||         Derivative Dipole Moments (debye/angs)
  Mode   [cm**-1]  ||      [d/dqX]             [d/dqY]           [d/dqZ]
 ------ ---------- || ------------------ ------------------ -----------------
    1      -24.698 ||       0.414               0.000             0.000
    2      -24.698 ||       0.000               0.414             0.000
    3       -0.080 ||       0.000               0.000             0.000
    4       -0.080 ||       0.000               0.000             0.000
    5        0.016 ||       0.000               0.000             0.000
    6     2263.903 ||       0.000               0.000             0.333
 ----------------------------------------------------------------------------



  
  
 ----------------------------------------------------------------------------
 Normal Eigenvalue ||                 Infra Red Intensities
  Mode   [cm**-1]  || [atomic units] [(debye/angs)**2] [(KM/mol)] [arbitrary]
 ------ ---------- || -------------- ----------------- ---------- -----------
    1      -24.698 ||    0.007427           0.171         7.241      22.651
    2      -24.698 ||    0.007427           0.171         7.241      22.651
    3       -0.080 ||    0.000000           0.000         0.000       0.000
    4       -0.080 ||    0.000000           0.000         0.000       0.000
    5        0.016 ||    0.000000           0.000         0.000       0.000
    6     2263.903 ||    0.004819           0.111         4.698      14.697
 ----------------------------------------------------------------------------





        Vibrational analysis via the FX method 
  --- with translations and rotations projected out ---
  --- via the Eckart algorithm                      ---
 Dependent rotation vector no.                    3
  found in ECKART; assuming linear geometry
 Projected Nuclear Hessian trans-rot subspace norm:1.9259D-34
                         (should be close to zero!) 


From the projected analysis 
The Zero-Point Energy (Kcal/mol) =           3.23738193

 center of mass
 --------------
 x =   0.00000000 y =   0.00000000 z =   0.02821986

 moments of inertia (a.u.)
 ------------------
           9.490748312084           0.000000000000           0.000000000000
           0.000000000000           9.490748312084           0.000000000000
           0.000000000000           0.000000000000           0.000000000000

 Rotational Constants
 --------------------
 A=   0.000000 cm-1  (  0.000000 K)
 B=   6.343038 cm-1  (  9.126013 K)
 C=   6.343038 cm-1  (  9.126013 K)


 Temperature                      =   298.15K
 frequency scaling parameter      =   1.0000


 Linear Molecule                   

 Zero-Point correction to Energy  =    3.235 kcal/mol  (  0.005155 au)
 Thermal correction to Energy     =    4.716 kcal/mol  (  0.007515 au)
 Thermal correction to Enthalpy   =    5.308 kcal/mol  (  0.008458 au)

 Total Entropy                    =   49.346 cal/mol-K
   - Translational                =   40.434 cal/mol-K (mol. weight = 127.9082)
   - Rotational                   =    8.912 cal/mol-K (symmetry #  =        1)
   - Vibrational                  =    0.000 cal/mol-K

 Cv (constant volume heat capacity) =    4.970 cal/mol-K
   - Translational                  =    2.979 cal/mol-K
   - Rotational                     =    1.986 cal/mol-K
   - Vibrational                    =    0.004 cal/mol-K



          -------------------------------------------------
          NORMAL MODE EIGENVECTORS IN CARTESIAN COORDINATES
          -------------------------------------------------
             (Projected Frequencies expressed in cm-1)

                    1           2           3           4           5           6
 
 P.Frequency        0.00        0.00        0.00        0.00        0.00     2263.90
 
           1     0.00000     0.99611     0.00000     0.00000     0.00000     0.00000
           2     0.00000     0.00000     0.99611     0.00000     0.00000     0.00000
           3    -0.08842     0.00000     0.00000     0.00000     0.00000    -0.99218
           4     0.00000     0.00000     0.00000     0.08877     0.00000     0.00000
           5     0.00000     0.00000     0.00000     0.00000     0.08877     0.00000
           6    -0.08842     0.00000     0.00000     0.00000     0.00000     0.00788



 ----------------------------------------------------------------------------
 Normal Eigenvalue ||    Projected Derivative Dipole Moments (debye/angs)
  Mode   [cm**-1]  ||      [d/dqX]             [d/dqY]           [d/dqZ]
 ------ ---------- || ------------------ ------------------ -----------------
    1        0.000 ||       0.000               0.000             0.000
    2        0.000 ||       0.412               0.000             0.000
    3        0.000 ||       0.000               0.412             0.000
    4        0.000 ||      -0.037               0.000             0.000
    5        0.000 ||       0.000              -0.037             0.000
    6     2263.903 ||       0.000               0.000             0.333
 ----------------------------------------------------------------------------



  
  
 ----------------------------------------------------------------------------
 Normal Eigenvalue ||           Projected Infra Red Intensities
  Mode   [cm**-1]  || [atomic units] [(debye/angs)**2] [(KM/mol)] [arbitrary]
 ------ ---------- || -------------- ----------------- ---------- -----------
    1        0.000 ||    0.000000           0.000         0.000       0.000
    2        0.000 ||    0.007369           0.170         7.184      22.473
    3        0.000 ||    0.007369           0.170         7.184      22.473
    4        0.000 ||    0.000059           0.001         0.057       0.178
    5        0.000 ||    0.000059           0.001         0.057       0.178
    6     2263.903 ||    0.004819           0.111         4.698      14.697
 ----------------------------------------------------------------------------



 vib:animation  F

 Task  times  cpu:       37.7s     wall:       39.7s
 Summary of allocated global arrays
-----------------------------------
  No active global arrays



                         GA Statistics for process    0
                         ------------------------------

       create   destroy   get      put      acc     scatter   gather  read&inc
calls: 1880     1880     1.11e+05 6997     4220        0        0     3951     
number of processes/call 1.01e+00 1.13e+00 1.00e+00 0.00e+00 0.00e+00
bytes total:             6.61e+07 1.33e+07 1.84e+07 0.00e+00 0.00e+00 3.16e+04
bytes remote:            1.53e+06 1.07e+06 0.00e+00 0.00e+00 0.00e+00 0.00e+00
Max memory consumed for GA by this process: 450528 bytes
MA_summarize_allocated_blocks: starting scan ...
MA_summarize_allocated_blocks: scan completed: 0 heap blocks, 0 stack blocks
MA usage statistics:

	allocation statistics:
					      heap	     stack
					      ----	     -----
	current number of blocks	         0	         0
	maximum number of blocks	        25	        54
	current total bytes		         0	         0
	maximum total bytes		   6190360	  22510984
	maximum total K-bytes		      6191	     22511
	maximum total M-bytes		         7	        23


                                NWChem Input Module
                                -------------------





                                     CITATION
                                     --------
                Please cite the following reference when publishing
                           results obtained with NWChem:

                 M. Valiev, E.J. Bylaska, N. Govind, K. Kowalski,
              T.P. Straatsma, H.J.J. van Dam, D. Wang, J. Nieplocha,
                        E. Apra, T.L. Windus, W.A. de Jong
                 "NWChem: a comprehensive and scalable open-source
                  solution for large scale molecular simulations"
                      Comput. Phys. Commun. 181, 1477 (2010)
                           doi:10.1016/j.cpc.2010.04.018

                              AUTHORS & CONTRIBUTORS
                              ----------------------
      E. J. Bylaska, W. A. de Jong, N. Govind, K. Kowalski, T. P. Straatsma,
     M. Valiev, H. J. J. Van Dam, D. Wang, E. Apra, T. L. Windus, J. Hammond,
     J. Autschbach, P. Nichols, S. Hirata, M. T. Hackler, Y. Zhao, P.-D. Fan,
      R. J. Harrison, M. Dupuis, D. M. A. Smith, J. Nieplocha, V. Tipparaju,
          M. Krishnan, A. Vazquez-Mayagoitia, L. Jensen, M. Swart, Q. Wu,
          T. Van Voorhis, A. A. Auer, M. Nooijen, L. D. Crosby, E. Brown,
             G. Cisneros, G. I. Fann, H. Fruchtl, J. Garza, K. Hirao,
        R. Kendall, J. A. Nichols, K. Tsemekhman, K. Wolinski, J. Anchell,
       D. Bernholdt, P. Borowski, T. Clark, D. Clerc, H. Dachsel, M. Deegan,
        K. Dyall, D. Elwood, E. Glendening, M. Gutowski, A. Hess, J. Jaffe,
        B. Johnson, J. Ju, R. Kobayashi, R. Kutteh, Z. Lin, R. Littlefield,
    X. Long, B. Meng, T. Nakajima, S. Niu, L. Pollack, M. Rosing, G. Sandrone,
       M. Stave, H. Taylor, G. Thomas, J. H. van Lenthe, A. Wong, Z. Zhang.

 Total times  cpu:       45.3s     wall:       48.0s
