 Entering Gaussian System, Link 0=g09
 Initial command:
 /mf/frisch/g09/l1.exe /altix/s0/scratch/Gau-25820.inp -scrdir=/altix/s0/scratch,110gw
 Entering Link 1 = /mf/frisch/g09/l1.exe PID=     25821.
  
 Copyright (c) 1988,1990,1992,1993,1995,1998,2003,2009,2010,
            Gaussian, Inc.  All Rights Reserved.
  
 This is part of the Gaussian(R) 09 program.  It is based on
 the Gaussian(R) 03 system (copyright 2003, Gaussian, Inc.),
 the Gaussian(R) 98 system (copyright 1998, Gaussian, Inc.),
 the Gaussian(R) 94 system (copyright 1995, Gaussian, Inc.),
 the Gaussian 92(TM) system (copyright 1992, Gaussian, Inc.),
 the Gaussian 90(TM) system (copyright 1990, Gaussian, Inc.),
 the Gaussian 88(TM) system (copyright 1988, Gaussian, Inc.),
 the Gaussian 86(TM) system (copyright 1986, Carnegie Mellon
 University), and the Gaussian 82(TM) system (copyright 1983,
 Carnegie Mellon University). Gaussian is a federally registered
 trademark of Gaussian, Inc.
  
 This software contains proprietary and confidential information,
 including trade secrets, belonging to Gaussian, Inc.
  
 This software is provided under written license and may be
 used, copied, transmitted, or stored only in accord with that
 written license.
  
 The following legend is applicable only to US Government
 contracts under FAR:
  
                    RESTRICTED RIGHTS LEGEND
  
 Use, reproduction and disclosure by the US Government is
 subject to restrictions as set forth in subparagraphs (a)
 and (c) of the Commercial Computer Software - Restricted
 Rights clause in FAR 52.227-19.
  
 Gaussian, Inc.
 340 Quinnipiac St., Bldg. 40, Wallingford CT 06492
  
  
 ---------------------------------------------------------------
 Warning -- This program may not be used in any manner that
 competes with the business of Gaussian, Inc. or will provide
 assistance to any competitor of Gaussian, Inc.  The licensee
 of this program is prohibited from giving any competitor of
 Gaussian, Inc. access to this program.  By using this program,
 the user acknowledges that Gaussian, Inc. is engaged in the
 business of creating and licensing software in the field of
 computational chemistry and represents and warrants to the
 licensee that it is not a competitor of Gaussian, Inc. and that
 it will not use this program in any manner prohibited above.
 ---------------------------------------------------------------
  

 Cite this work as:
 Gaussian 09, Revision B.01,
 M. J. Frisch, G. W. Trucks, H. B. Schlegel, G. E. Scuseria, 
 M. A. Robb, J. R. Cheeseman, G. Scalmani, V. Barone, B. Mennucci, 
 G. A. Petersson, H. Nakatsuji, M. Caricato, X. Li, H. P. Hratchian, 
 A. F. Izmaylov, J. Bloino, G. Zheng, J. L. Sonnenberg, M. Hada, 
 M. Ehara, K. Toyota, R. Fukuda, J. Hasegawa, M. Ishida, T. Nakajima, 
 Y. Honda, O. Kitao, H. Nakai, T. Vreven, J. A. Montgomery, Jr., 
 J. E. Peralta, F. Ogliaro, M. Bearpark, J. J. Heyd, E. Brothers, 
 K. N. Kudin, V. N. Staroverov, T. Keith, R. Kobayashi, J. Normand, 
 K. Raghavachari, A. Rendell, J. C. Burant, S. S. Iyengar, J. Tomasi, 
 M. Cossi, N. Rega, J. M. Millam, M. Klene, J. E. Knox, J. B. Cross, 
 V. Bakken, C. Adamo, J. Jaramillo, R. Gomperts, R. E. Stratmann, 
 O. Yazyev, A. J. Austin, R. Cammi, C. Pomelli, J. W. Ochterski, 
 R. L. Martin, K. Morokuma, V. G. Zakrzewski, G. A. Voth, 
 P. Salvador, J. J. Dannenberg, S. Dapprich, A. D. Daniels, 
 O. Farkas, J. B. Foresman, J. V. Ortiz, J. Cioslowski, 
 and D. J. Fox, Gaussian, Inc., Wallingford CT, 2010.
 
 ******************************************
 Gaussian 09:  IA64L-G09RevB.01  8-Jun-2010
                12-Jun-2010 
 ******************************************
 ---------------------------------
 #P TEST 6-311G** scf=conventional
 ---------------------------------
 1/38=1/1;
 2/12=2,17=6,18=5,40=1/2;
 3/5=4,6=6,7=101,11=9,16=1,25=14,30=1/1,2,3,11,14;
 4//1;
 5/5=1/2;
 6/7=2,8=2,9=2,10=2,28=1/1;
 99/5=1,9=1/99;
 Leave Link    1 at Sat Jun 12 22:35:40 2010, MaxMem=          0 cpu:       0.0
 (Enter /mf/frisch/g09/l101.exe)
 -----------------------------------------------
 Gaussian Test Job 05 6-311G**//6-31G* ACETYLENE
 -----------------------------------------------
 Symbolic Z-matrix:
 Charge =  0 Multiplicity = 1
 C
 C                    1    AA
 X                    1     1.       2     90. 
 H                    1    AH       3     90.      2     180.     0
 X                    2     1.       1     90.      3     0.       0
 H                    2    AH       5     90.      1     180.     0
       Variables:
  AA                    1.18548                  
  AH                    1.05698                  
 
 NAtoms=      4 NQM=      4 NQMF=      0 NMic=      0 NMicF=      0 NTot=      4.
                    Isotopes and Nuclear Properties:
 (Nuclear quadrupole moments (NQMom) in fm**2, nuclear magnetic moments (NMagM)
  in nuclear magnetons)

  Atom         1           2           3           4
 IAtWgt=          12          12           1           1
 AtmWgt=  12.0000000  12.0000000   1.0078250   1.0078250
 NucSpn=           0           0           1           1
 AtZEff=   0.0000000   0.0000000   0.0000000   0.0000000
 NQMom=    0.0000000   0.0000000   0.0000000   0.0000000
 NMagM=    0.0000000   0.0000000   2.7928460   2.7928460
 Leave Link  101 at Sat Jun 12 22:35:40 2010, MaxMem=   33554432 cpu:       0.0
 (Enter /mf/frisch/g09/l202.exe)
                          Input orientation:                          
 ---------------------------------------------------------------------
 Center     Atomic      Atomic             Coordinates (Angstroms)
 Number     Number       Type             X           Y           Z
 ---------------------------------------------------------------------
      1          6           0        0.000000    0.000000    0.000000
      2          6           0        0.000000    0.000000    1.185480
      3          1           0        0.000000    0.000000   -1.056980
      4          1           0        0.000000    0.000000    2.242460
 ---------------------------------------------------------------------
                    Distance matrix (angstroms):
                    1          2          3          4
     1  C    0.000000
     2  C    1.185480   0.000000
     3  H    1.056980   2.242460   0.000000
     4  H    2.242460   1.056980   3.299440   0.000000
 Stoichiometry    C2H2
 Framework group  D*H[C*(HC.CH)]
 Deg. of freedom     2
 Full point group                 D*H     NOp   8
 Largest Abelian subgroup         D2H     NOp   8
 Largest concise Abelian subgroup C2      NOp   2
                         Standard orientation:                         
 ---------------------------------------------------------------------
 Center     Atomic      Atomic             Coordinates (Angstroms)
 Number     Number       Type             X           Y           Z
 ---------------------------------------------------------------------
      1          6           0        0.000000    0.000000    0.592740
      2          6           0        0.000000    0.000000   -0.592740
      3          1           0        0.000000    0.000000    1.649720
      4          1           0        0.000000    0.000000   -1.649720
 ---------------------------------------------------------------------
 Rotational constants (GHZ):      0.0000000     36.3113836     36.3113836
 Leave Link  202 at Sat Jun 12 22:35:40 2010, MaxMem=   33554432 cpu:       0.0
 (Enter /mf/frisch/g09/l301.exe)
 Standard basis: 6-311G(d,p) (5D, 7F)
 Ernie: Thresh=  0.10000D-02 Tol=  0.10000D-05 Strict=F.
 There are    13 symmetry adapted basis functions of AG  symmetry.
 There are     1 symmetry adapted basis functions of B1G symmetry.
 There are     5 symmetry adapted basis functions of B2G symmetry.
 There are     5 symmetry adapted basis functions of B3G symmetry.
 There are     1 symmetry adapted basis functions of AU  symmetry.
 There are    13 symmetry adapted basis functions of B1U symmetry.
 There are     5 symmetry adapted basis functions of B2U symmetry.
 There are     5 symmetry adapted basis functions of B3U symmetry.
 Integral buffers will be    131072 words long.
 Raffenetti 1 integral format.
 Two-electron integral symmetry is turned on.
    48 basis functions,    80 primitive gaussians,    50 cartesian basis functions
     7 alpha electrons        7 beta electrons
       nuclear repulsion energy        25.0697142677 Hartrees.
 IExCor=    0 DFT=F Ex=HF Corr=None ExCW=0 ScaHFX=  1.000000
 ScaDFX=  1.000000  1.000000  1.000000  1.000000 ScalE2=  1.000000  1.000000
 IRadAn=      0 IRanWt=     -1 IRanGd=            0 ICorTp=0
 NAtoms=    4 NActive=    4 NUniq=    2 SFac= 4.00D+00 NAtFMM=   50 NAOKFM=F Big=F
 Leave Link  301 at Sat Jun 12 22:35:40 2010, MaxMem=   33554432 cpu:       0.0
 (Enter /mf/frisch/g09/l302.exe)
 NPDir=0 NMtPBC=     1 NCelOv=     1 NCel=       1 NClECP=     1 NCelD=      1
         NCelK=      1 NCelE2=     1 NClLst=     1 CellRange=     0.0.
 One-electron integrals computed using PRISM.
 One-electron integral symmetry used in STVInt
 NBasis=    48 RedAO= T  NBF=    13     1     5     5     1    13     5     5
 NBsUse=    48 1.00D-06 NBFU=    13     1     5     5     1    13     5     5
 Leave Link  302 at Sat Jun 12 22:35:40 2010, MaxMem=   33554432 cpu:       0.0
 (Enter /mf/frisch/g09/l303.exe)
 DipDrv:  MaxL=1.
 Leave Link  303 at Sat Jun 12 22:35:40 2010, MaxMem=   33554432 cpu:       0.0
 (Enter /mf/frisch/g09/l311.exe)
 Out2e will use a cutoff of  1.00D-10
 Standard cutoffs selected in Shell.
        43277 integrals produced for a total of        43277.
 Shell:  FmtGen was called     7094 times.
 Leave Link  311 at Sat Jun 12 22:35:40 2010, MaxMem=   33554432 cpu:       0.0
 (Enter /mf/frisch/g09/l314.exe)
 Phoenix requires     267328 words of memory.
 Out2e will use a cutoff of  1.00D-10
 Standard cutoffs used.
 PQCut1= 1.00D-20 PQCut2= 1.00D-20 PQCut3= 1.00D+02
        47788 integrals produced for a total of        91065.
 PHOENIX SHELL PASSES=    2708  NUMBER PROCESSED=    1059
          FAST PASSES=    2708
 Leave Link  314 at Sat Jun 12 22:35:41 2010, MaxMem=   33554432 cpu:       0.0
 (Enter /mf/frisch/g09/l401.exe)
 Harris functional with IExCor=  205 diagonalized for initial guess.
 ExpMin= 1.03D-01 ExpMax= 4.56D+03 ExpMxC= 6.82D+02 IAcc=1 IRadAn=         1 AccDes= 0.00D+00
 HarFok:  IExCor=  205 AccDes= 0.00D+00 IRadAn=         1 IDoV= 1
 ScaDFX=  1.000000  1.000000  1.000000  1.000000
 FoFCou: FMM=F IPFlag=           0 FMFlag=      100000 FMFlg1=           0
         NFxFlg=           0 DoJE=T BraDBF=F KetDBF=T FulRan=T
         Omega=  0.000000  0.000000  1.000000  0.000000  0.000000 ICntrl=     500 IOpCl=  0
         NMat0=    1 NMatS0=    1 NMatT0=    0 NMatD0=    1 NMtDS0=    0 NMtDT0=    0
         I1Cent=           4 NGrid=           0.
 Petite list used in FoFCou.
 Harris En= -76.9725576974997    
 Initial guess orbital symmetries:
       Occupied  (SGG) (SGU) (SGG) (SGU) (SGG) (PIU) (PIU)
       Virtual   (PIG) (PIG) (SGU) (SGG) (SGG) (SGU) (PIU) (PIU)
                 (PIG) (PIG) (SGU) (SGG) (SGG) (SGU) (PIU) (PIU)
                 (SGU) (DLTG) (DLTG) (PIG) (PIG) (SGG) (DLTU) (DLTU)
                 (PIU) (PIU) (SGU) (PIG) (PIG) (SGU) (SGG) (PIU)
                 (PIU) (PIG) (PIG) (SGG) (SGG) (SGU) (SGU) (SGG)
                 (SGU)
 The electronic state of the initial guess is 1-SGG.
 Leave Link  401 at Sat Jun 12 22:35:41 2010, MaxMem=   33554432 cpu:       0.0
 (Enter /mf/frisch/g09/l502.exe)
 Closed shell SCF:
 Requested convergence on RMS density matrix=1.00D-08 within 128 cycles.
 Requested convergence on MAX density matrix=1.00D-06.
 Requested convergence on             energy=1.00D-06.
 No special actions if energy rises.
 Using DIIS extrapolation, IDIIS=  1040.
 Unsorted integral processing.
 Integral symmetry usage will be decided dynamically.
 Two-electron integrals will be kept in memory, NGetB=      292886.
 IEnd=      292886 IEndB=      292886 NGot=    33554432 MDV=    33523690
 LenX=    33261546 LenY=    33539940

 Cycle   1  Pass 1  IDiag  1:
 E= -76.7159525363699    
 DIIS: error= 7.79D-02 at cycle   1 NSaved=   1.
 NSaved= 1 IEnMin= 1 EnMin= -76.7159525363699     IErMin= 1 ErrMin= 7.79D-02
 ErrMax= 7.79D-02 EMaxC= 1.00D-01 BMatC= 1.93D-01 BMatP= 1.93D-01
 IDIUse=3 WtCom= 2.21D-01 WtEn= 7.79D-01
 Coeff-Com:  0.100D+01
 Coeff-En:   0.100D+01
 Coeff:      0.100D+01
 Gap=     0.517 Goal=   None    Shift=    0.000
 GapD=    0.517 DampG=2.000 DampE=0.500 DampFc=1.0000 IDamp=-1.
 RMSDP=6.16D-03 MaxDP=8.50D-02              OVMax= 1.33D-01

 Cycle   2  Pass 1  IDiag  1:
 E= -76.8288683133515     Delta-E=       -0.112915776982 Rises=F Damp=F
 DIIS: error= 2.19D-02 at cycle   2 NSaved=   2.
 NSaved= 2 IEnMin= 2 EnMin= -76.8288683133515     IErMin= 2 ErrMin= 2.19D-02
 ErrMax= 2.19D-02 EMaxC= 1.00D-01 BMatC= 1.39D-02 BMatP= 1.93D-01
 IDIUse=3 WtCom= 7.81D-01 WtEn= 2.19D-01
 Coeff-Com:  0.151D+00 0.849D+00
 Coeff-En:   0.000D+00 0.100D+01
 Coeff:      0.118D+00 0.882D+00
 Gap=     0.601 Goal=   None    Shift=    0.000
 RMSDP=1.96D-03 MaxDP=2.85D-02 DE=-1.13D-01 OVMax= 3.79D-02

 Cycle   3  Pass 1  IDiag  1:
 E= -76.8407722569878     Delta-E=       -0.011903943636 Rises=F Damp=F
 DIIS: error= 4.75D-03 at cycle   3 NSaved=   3.
 NSaved= 3 IEnMin= 3 EnMin= -76.8407722569878     IErMin= 3 ErrMin= 4.75D-03
 ErrMax= 4.75D-03 EMaxC= 1.00D-01 BMatC= 4.54D-04 BMatP= 1.39D-02
 IDIUse=3 WtCom= 9.53D-01 WtEn= 4.75D-02
 Coeff-Com: -0.180D-01 0.114D+00 0.903D+00
 Coeff-En:   0.000D+00 0.000D+00 0.100D+01
 Coeff:     -0.171D-01 0.109D+00 0.908D+00
 Gap=     0.580 Goal=   None    Shift=    0.000
 RMSDP=3.26D-04 MaxDP=3.31D-03 DE=-1.19D-02 OVMax= 6.13D-03

 Cycle   4  Pass 1  IDiag  1:
 E= -76.8412101048246     Delta-E=       -0.000437847837 Rises=F Damp=F
 DIIS: error= 2.33D-04 at cycle   4 NSaved=   4.
 NSaved= 4 IEnMin= 4 EnMin= -76.8412101048246     IErMin= 4 ErrMin= 2.33D-04
 ErrMax= 2.33D-04 EMaxC= 1.00D-01 BMatC= 1.38D-06 BMatP= 4.54D-04
 IDIUse=3 WtCom= 9.98D-01 WtEn= 2.33D-03
 Coeff-Com:  0.239D-02-0.245D-01-0.147D+00 0.117D+01
 Coeff-En:   0.000D+00 0.000D+00 0.000D+00 0.100D+01
 Coeff:      0.238D-02-0.244D-01-0.147D+00 0.117D+01
 Gap=     0.580 Goal=   None    Shift=    0.000
 RMSDP=7.03D-05 MaxDP=1.22D-03 DE=-4.38D-04 OVMax= 4.77D-04

 Cycle   5  Pass 1  IDiag  1:
 E= -76.8412121344604     Delta-E=       -0.000002029636 Rises=F Damp=F
 DIIS: error= 3.07D-05 at cycle   5 NSaved=   5.
 NSaved= 5 IEnMin= 5 EnMin= -76.8412121344604     IErMin= 5 ErrMin= 3.07D-05
 ErrMax= 3.07D-05 EMaxC= 1.00D-01 BMatC= 2.63D-08 BMatP= 1.38D-06
 IDIUse=1 WtCom= 1.00D+00 WtEn= 0.00D+00
 Coeff-Com: -0.199D-03 0.230D-02 0.153D-01-0.215D+00 0.120D+01
 Coeff:     -0.199D-03 0.230D-02 0.153D-01-0.215D+00 0.120D+01
 Gap=     0.580 Goal=   None    Shift=    0.000
 RMSDP=7.72D-06 MaxDP=1.28D-04 DE=-2.03D-06 OVMax= 9.58D-05

 Cycle   6  Pass 1  IDiag  1:
 E= -76.8412121775721     Delta-E=       -0.000000043112 Rises=F Damp=F
 DIIS: error= 3.49D-06 at cycle   6 NSaved=   6.
 NSaved= 6 IEnMin= 6 EnMin= -76.8412121775721     IErMin= 6 ErrMin= 3.49D-06
 ErrMax= 3.49D-06 EMaxC= 1.00D-01 BMatC= 2.45D-10 BMatP= 2.63D-08
 IDIUse=1 WtCom= 1.00D+00 WtEn= 0.00D+00
 Coeff-Com: -0.546D-05 0.544D-04 0.207D-03 0.129D-01-0.170D+00 0.116D+01
 Coeff:     -0.546D-05 0.544D-04 0.207D-03 0.129D-01-0.170D+00 0.116D+01
 Gap=     0.580 Goal=   None    Shift=    0.000
 RMSDP=5.61D-07 MaxDP=4.91D-06 DE=-4.31D-08 OVMax= 1.05D-05

 Cycle   7  Pass 1  IDiag  1:
 E= -76.8412121779833     Delta-E=       -0.000000000411 Rises=F Damp=F
 DIIS: error= 3.46D-07 at cycle   7 NSaved=   7.
 NSaved= 7 IEnMin= 7 EnMin= -76.8412121779833     IErMin= 7 ErrMin= 3.46D-07
 ErrMax= 3.46D-07 EMaxC= 1.00D-01 BMatC= 2.76D-12 BMatP= 2.45D-10
 IDIUse=1 WtCom= 1.00D+00 WtEn= 0.00D+00
 Coeff-Com:  0.586D-06-0.187D-04-0.117D-03 0.429D-03 0.951D-02-0.169D+00
 Coeff-Com:  0.116D+01
 Coeff:      0.586D-06-0.187D-04-0.117D-03 0.429D-03 0.951D-02-0.169D+00
 Coeff:      0.116D+01
 Gap=     0.580 Goal=   None    Shift=    0.000
 RMSDP=1.06D-07 MaxDP=1.62D-06 DE=-4.11D-10 OVMax= 1.03D-06

 Cycle   8  Pass 1  IDiag  1:
 E= -76.8412121779878     Delta-E=       -0.000000000005 Rises=F Damp=F
 DIIS: error= 1.78D-08 at cycle   8 NSaved=   8.
 NSaved= 8 IEnMin= 8 EnMin= -76.8412121779878     IErMin= 8 ErrMin= 1.78D-08
 ErrMax= 1.78D-08 EMaxC= 1.00D-01 BMatC= 9.15D-15 BMatP= 2.76D-12
 IDIUse=1 WtCom= 1.00D+00 WtEn= 0.00D+00
 Coeff-Com: -0.230D-06 0.377D-05 0.245D-04-0.214D-03 0.117D-04 0.153D-01
 Coeff-Com: -0.151D+00 0.114D+01
 Coeff:     -0.230D-06 0.377D-05 0.245D-04-0.214D-03 0.117D-04 0.153D-01
 Coeff:     -0.151D+00 0.114D+01
 Gap=     0.580 Goal=   None    Shift=    0.000
 RMSDP=4.04D-09 MaxDP=6.04D-08 DE=-4.50D-12 OVMax= 5.04D-08

 SCF Done:  E(RHF) =  -76.8412121780     A.U. after    8 cycles
             Convg  =    0.4039D-08             -V/T =  2.0001
 KE= 7.683370366615D+01 PE=-2.291221812877D+02 EE= 5.037755117588D+01
 Leave Link  502 at Sat Jun 12 22:35:41 2010, MaxMem=   33554432 cpu:       0.0
 (Enter /mf/frisch/g09/l601.exe)
 Copying SCF densities to generalized density rwf, IOpCl= 0 IROHF=0.

 **********************************************************************

            Population analysis using the SCF density.

 **********************************************************************

 Orbital symmetries:
       Occupied  (SGG) (SGU) (SGG) (SGU) (SGG) (PIU) (PIU)
       Virtual   (SGU) (SGG) (PIG) (PIG) (SGG) (SGU) (PIU) (PIU)
                 (SGU) (PIG) (PIG) (SGG) (SGG) (SGU) (SGU) (PIU)
                 (PIU) (DLTG) (DLTG) (PIG) (PIG) (SGG) (DLTU) (DLTU)
                 (PIU) (PIU) (SGU) (SGG) (SGU) (PIG) (PIG) (PIU)
                 (PIU) (SGG) (PIG) (PIG) (SGU) (SGG) (SGU) (SGG)
                 (SGU)
 The electronic state is 1-SGG.
 Alpha  occ. eigenvalues --  -11.23341 -11.22916  -1.03355  -0.76432  -0.68125
 Alpha  occ. eigenvalues --   -0.41250  -0.41250
 Alpha virt. eigenvalues --    0.16710   0.18435   0.19721   0.19721   0.42049
 Alpha virt. eigenvalues --    0.43615   0.56612   0.56612   0.69153   0.74123
 Alpha virt. eigenvalues --    0.74123   0.81178   0.91587   1.20172   1.26472
 Alpha virt. eigenvalues --    1.29990   1.29990   1.41203   1.41203   1.70022
 Alpha virt. eigenvalues --    1.70022   1.80621   1.86297   1.86297   2.15016
 Alpha virt. eigenvalues --    2.15016   2.44278   2.79591   2.81387   2.82186
 Alpha virt. eigenvalues --    2.82186   3.03520   3.03520   3.28195   3.33214
 Alpha virt. eigenvalues --    3.33214   3.70614   3.74002   4.18292  24.73803
 Alpha virt. eigenvalues --   26.36256
          Condensed to atoms (all electrons):
              1          2          3          4
     1  C    4.870882   0.867124   0.440204  -0.048455
     2  C    0.867124   4.870882  -0.048455   0.440204
     3  H    0.440204  -0.048455   0.478072   0.000423
     4  H   -0.048455   0.440204   0.000423   0.478072
 Mulliken atomic charges:
              1
     1  C   -0.129756
     2  C   -0.129756
     3  H    0.129756
     4  H    0.129756
 Sum of Mulliken atomic charges =   0.00000
 Mulliken charges with hydrogens summed into heavy atoms:
              1
     1  C    0.000000
     2  C    0.000000
 Sum of Mulliken charges with hydrogens summed into heavy atoms =   0.00000
 Electronic spatial extent (au):  <R**2>=             59.8287
 Charge=              0.0000 electrons
 Dipole moment (field-independent basis, Debye):
    X=              0.0000    Y=              0.0000    Z=              0.0000  Tot=              0.0000
 Quadrupole moment (field-independent basis, Debye-Ang):
   XX=            -13.6821   YY=            -13.6821   ZZ=             -6.7121
   XY=              0.0000   XZ=              0.0000   YZ=              0.0000
 Traceless Quadrupole moment (field-independent basis, Debye-Ang):
   XX=             -2.3233   YY=             -2.3233   ZZ=              4.6466
   XY=              0.0000   XZ=              0.0000   YZ=              0.0000
 Octapole moment (field-independent basis, Debye-Ang**2):
  XXX=              0.0000  YYY=              0.0000  ZZZ=              0.0000  XYY=              0.0000
  XXY=              0.0000  XXZ=              0.0000  XZZ=              0.0000  YZZ=              0.0000
  YYZ=              0.0000  XYZ=              0.0000
 Hexadecapole moment (field-independent basis, Debye-Ang**3):
 XXXX=            -15.6460 YYYY=            -15.6460 ZZZZ=            -35.1981 XXXY=              0.0000
 XXXZ=              0.0000 YYYX=              0.0000 YYYZ=              0.0000 ZZZX=              0.0000
 ZZZY=              0.0000 XXYY=             -5.2153 XXZZ=            -11.8730 YYZZ=            -11.8730
 XXYZ=              0.0000 YYXZ=              0.0000 ZZXY=              0.0000
 N-N= 2.506971426773D+01 E-N=-2.291221813195D+02  KE= 7.683370366615D+01
 Symmetry AG   KE= 3.809562229986D+01
 Symmetry B1G  KE= 1.081809480213D-34
 Symmetry B2G  KE= 3.158950588632D-32
 Symmetry B3G  KE= 2.908015769421D-32
 Symmetry AU   KE= 4.265470913942D-34
 Symmetry B1U  KE= 3.449359995009D+01
 Symmetry B2U  KE= 2.122240708102D+00
 Symmetry B3U  KE= 2.122240708102D+00
 No NMR shielding tensors so no spin-rotation constants.
 Leave Link  601 at Sat Jun 12 22:35:41 2010, MaxMem=   33554432 cpu:       0.0
 (Enter /mf/frisch/g09/l9999.exe)

 Test job not archived.
 1\1\GINC-ALTIX\SP\RHF\6-311G(d,p)\C2H2\FRISCH\12-Jun-2010\0\\#P TEST 6
 -311G** scf=conventional\\Gaussian Test Job 05 6-311G**//6-31G* ACETYL
 ENE\\0,1\C\C,1,1.18548\X,1,1.,2,90.\H,1,1.05698,3,90.,2,180.,0\X,2,1.,
 1,90.,3,0.,0\H,2,1.05698,5,90.,1,180.,0\\Version=IA64L-G09RevB.01\Stat
 e=1-SGG\HF=-76.8412122\RMSD=4.039e-09\Dipole=0.,0.,0.\Quadrupole=-1.72
 73351,-1.7273351,3.4546702,0.,0.,0.\PG=D*H [C*(H1C1.C1H1)]\\@


 THOSE WHO ARE UNABLE TO LEARN FROM PAST MEETINGS
 ARE CONDEMNED TO REPEAT THEM.
 Job cpu time:  0 days  0 hours  0 minutes  0.0 seconds.
 File lengths (MBytes):  RWF=      5 Int=      2 D2E=      0 Chk=      1 Scr=      1
 Normal termination of Gaussian 09 at Sat Jun 12 22:35:41 2010.
