 Entering Gaussian System, Link 0=g09
 Initial command:
 /mf/frisch/g09/l1.exe /altix/s0/scratch/Gau-25857.inp -scrdir=/altix/s0/scratch,110gw
 Entering Link 1 = /mf/frisch/g09/l1.exe PID=     25858.
  
 Copyright (c) 1988,1990,1992,1993,1995,1998,2003,2009,2010,
            Gaussian, Inc.  All Rights Reserved.
  
 This is part of the Gaussian(R) 09 program.  It is based on
 the Gaussian(R) 03 system (copyright 2003, Gaussian, Inc.),
 the Gaussian(R) 98 system (copyright 1998, Gaussian, Inc.),
 the Gaussian(R) 94 system (copyright 1995, Gaussian, Inc.),
 the Gaussian 92(TM) system (copyright 1992, Gaussian, Inc.),
 the Gaussian 90(TM) system (copyright 1990, Gaussian, Inc.),
 the Gaussian 88(TM) system (copyright 1988, Gaussian, Inc.),
 the Gaussian 86(TM) system (copyright 1986, Carnegie Mellon
 University), and the Gaussian 82(TM) system (copyright 1983,
 Carnegie Mellon University). Gaussian is a federally registered
 trademark of Gaussian, Inc.
  
 This software contains proprietary and confidential information,
 including trade secrets, belonging to Gaussian, Inc.
  
 This software is provided under written license and may be
 used, copied, transmitted, or stored only in accord with that
 written license.
  
 The following legend is applicable only to US Government
 contracts under FAR:
  
                    RESTRICTED RIGHTS LEGEND
  
 Use, reproduction and disclosure by the US Government is
 subject to restrictions as set forth in subparagraphs (a)
 and (c) of the Commercial Computer Software - Restricted
 Rights clause in FAR 52.227-19.
  
 Gaussian, Inc.
 340 Quinnipiac St., Bldg. 40, Wallingford CT 06492
  
  
 ---------------------------------------------------------------
 Warning -- This program may not be used in any manner that
 competes with the business of Gaussian, Inc. or will provide
 assistance to any competitor of Gaussian, Inc.  The licensee
 of this program is prohibited from giving any competitor of
 Gaussian, Inc. access to this program.  By using this program,
 the user acknowledges that Gaussian, Inc. is engaged in the
 business of creating and licensing software in the field of
 computational chemistry and represents and warrants to the
 licensee that it is not a competitor of Gaussian, Inc. and that
 it will not use this program in any manner prohibited above.
 ---------------------------------------------------------------
  

 Cite this work as:
 Gaussian 09, Revision B.01,
 M. J. Frisch, G. W. Trucks, H. B. Schlegel, G. E. Scuseria, 
 M. A. Robb, J. R. Cheeseman, G. Scalmani, V. Barone, B. Mennucci, 
 G. A. Petersson, H. Nakatsuji, M. Caricato, X. Li, H. P. Hratchian, 
 A. F. Izmaylov, J. Bloino, G. Zheng, J. L. Sonnenberg, M. Hada, 
 M. Ehara, K. Toyota, R. Fukuda, J. Hasegawa, M. Ishida, T. Nakajima, 
 Y. Honda, O. Kitao, H. Nakai, T. Vreven, J. A. Montgomery, Jr., 
 J. E. Peralta, F. Ogliaro, M. Bearpark, J. J. Heyd, E. Brothers, 
 K. N. Kudin, V. N. Staroverov, T. Keith, R. Kobayashi, J. Normand, 
 K. Raghavachari, A. Rendell, J. C. Burant, S. S. Iyengar, J. Tomasi, 
 M. Cossi, N. Rega, J. M. Millam, M. Klene, J. E. Knox, J. B. Cross, 
 V. Bakken, C. Adamo, J. Jaramillo, R. Gomperts, R. E. Stratmann, 
 O. Yazyev, A. J. Austin, R. Cammi, C. Pomelli, J. W. Ochterski, 
 R. L. Martin, K. Morokuma, V. G. Zakrzewski, G. A. Voth, 
 P. Salvador, J. J. Dannenberg, S. Dapprich, A. D. Daniels, 
 O. Farkas, J. B. Foresman, J. V. Ortiz, J. Cioslowski, 
 and D. J. Fox, Gaussian, Inc., Wallingford CT, 2010.
 
 ******************************************
 Gaussian 09:  IA64L-G09RevB.01  8-Jun-2010
                12-Jun-2010 
 ******************************************
 -------------------------------------------
 #p rhf/gen 6d iop(5/8=2) test pop=reg scfdm
 -------------------------------------------
 1/38=1/1;
 2/12=2,17=6,18=5,40=1/2;
 3/5=7,8=2,11=1,16=1,25=14,30=1,116=1/1,2,3,11,14;
 4//1;
 5/5=1,8=2,21=2/3;
 6/28=1/1;
 99/5=1,9=1/99;
 Leave Link    1 at Sat Jun 12 22:35:42 2010, MaxMem=          0 cpu:       0.0
 (Enter /mf/frisch/g09/l101.exe)
 ----------------------------------------------------------------------
 Gaussian Test Job 06 GENERAL BASIS: 6-31G* READ IN, LINK 503 REGULAR S
 CF, RAF 2-INT
 ----------------------------------------------------------------------
 Symbolic Z-matrix:
 Charge =  0 Multiplicity = 1
 O
 H                    1     0.96 
 H                    1     0.96     2     109.47122 
 
     1 tetrahedral angles replaced.
 NAtoms=      3 NQM=      3 NQMF=      0 NMic=      0 NMicF=      0 NTot=      3.
    1 tetrahedral angles replaced.
                    Isotopes and Nuclear Properties:
 (Nuclear quadrupole moments (NQMom) in fm**2, nuclear magnetic moments (NMagM)
  in nuclear magnetons)

  Atom         1           2           3
 IAtWgt=          16           1           1
 AtmWgt=  15.9949146   1.0078250   1.0078250
 NucSpn=           0           1           1
 AtZEff=   0.0000000   0.0000000   0.0000000
 NQMom=    0.0000000   0.0000000   0.0000000
 NMagM=    0.0000000   2.7928460   2.7928460
 Leave Link  101 at Sat Jun 12 22:35:42 2010, MaxMem=   33554432 cpu:       0.0
 (Enter /mf/frisch/g09/l202.exe)
                          Input orientation:                          
 ---------------------------------------------------------------------
 Center     Atomic      Atomic             Coordinates (Angstroms)
 Number     Number       Type             X           Y           Z
 ---------------------------------------------------------------------
      1          8           0        0.000000    0.000000    0.000000
      2          1           0        0.000000    0.000000    0.960000
      3          1           0        0.905097    0.000000   -0.320000
 ---------------------------------------------------------------------
                    Distance matrix (angstroms):
                    1          2          3
     1  O    0.000000
     2  H    0.960000   0.000000
     3  H    0.960000   1.567673   0.000000
 Stoichiometry    H2O
 Framework group  C2V[C2(O),SGV(H2)]
 Deg. of freedom     2
 Full point group                 C2V     NOp   4
 Largest Abelian subgroup         C2V     NOp   4
 Largest concise Abelian subgroup C2      NOp   2
                         Standard orientation:                         
 ---------------------------------------------------------------------
 Center     Atomic      Atomic             Coordinates (Angstroms)
 Number     Number       Type             X           Y           Z
 ---------------------------------------------------------------------
      1          8           0        0.000000    0.000000    0.110851
      2          1           0        0.000000    0.783837   -0.443405
      3          1           0        0.000000   -0.783837   -0.443405
 ---------------------------------------------------------------------
 Rotational constants (GHZ):    919.0227225    408.0852053    282.5991530
 Leave Link  202 at Sat Jun 12 22:35:42 2010, MaxMem=   33554432 cpu:       0.0
 (Enter /mf/frisch/g09/l301.exe)
 General basis read from cards:  (6D, 7F)
 Centers:   1
 S 6 1.00
     Exponent=  5.4846716600D+03 Coefficients=  1.8310744300D-03
     Exponent=  8.2523494600D+02 Coefficients=  1.3950172200D-02
     Exponent=  1.8804695800D+02 Coefficients=  6.8445078100D-02
     Exponent=  5.2964500000D+01 Coefficients=  2.3271433600D-01
     Exponent=  1.6897570400D+01 Coefficients=  4.7019289800D-01
     Exponent=  5.7996353400D+00 Coefficients=  3.5852085300D-01
 SP 3 0.99
     Exponent=  1.5855133400D+01 Coefficients= -1.1077754900D-01  7.0874268200D-02
     Exponent=  3.6730268200D+00 Coefficients= -1.4802626200D-01  3.3975283900D-01
     Exponent=  1.0343452200D+00 Coefficients=  1.1307670100D+00  7.2715857700D-01
 SP 1 0.98
     Exponent=  2.8113892400D-01 Coefficients=  1.0000000000D+00  1.0000000000D+00
 D 1 1.
     Exponent=  8.0000000000D-01 Coefficients=  1.0000000000D+00
 ****
 Centers:   2  3
 S 3 1.20
     Exponent=  1.3007734000D+01 Coefficients=  3.3494604340D-02
     Exponent=  1.9620794200D+00 Coefficients=  2.3472695350D-01
     Exponent=  4.4452895300D-01 Coefficients=  8.1375732600D-01
 S 1 1.15
     Exponent=  1.2194915600D-01 Coefficients=  1.0000000000D+00
 ****
 Ernie: Thresh=  0.10000D-02 Tol=  0.10000D-05 Strict=F.
 There are    10 symmetry adapted basis functions of A1  symmetry.
 There are     1 symmetry adapted basis functions of A2  symmetry.
 There are     3 symmetry adapted basis functions of B1  symmetry.
 There are     5 symmetry adapted basis functions of B2  symmetry.
 Integral buffers will be    131072 words long.
 Raffenetti 1 integral format.
 Two-electron integral symmetry is turned on.
    19 basis functions,    36 primitive gaussians,    19 cartesian basis functions
     5 alpha electrons        5 beta electrons
       nuclear repulsion energy         9.1571759100 Hartrees.
 IExCor=    0 DFT=F Ex=HF Corr=None ExCW=0 ScaHFX=  1.000000
 ScaDFX=  1.000000  1.000000  1.000000  1.000000 ScalE2=  1.000000  1.000000
 IRadAn=      0 IRanWt=     -1 IRanGd=            0 ICorTp=0
 NAtoms=    3 NActive=    3 NUniq=    2 SFac= 2.25D+00 NAtFMM=   50 NAOKFM=F Big=F
 Leave Link  301 at Sat Jun 12 22:35:42 2010, MaxMem=   33554432 cpu:       0.0
 (Enter /mf/frisch/g09/l302.exe)
 NPDir=0 NMtPBC=     1 NCelOv=     1 NCel=       1 NClECP=     1 NCelD=      1
         NCelK=      1 NCelE2=     1 NClLst=     1 CellRange=     0.0.
 One-electron integrals computed using PRISM.
 One-electron integral symmetry used in STVInt
 NBasis=    19 RedAO= T  NBF=    10     1     3     5
 NBsUse=    19 1.00D-06 NBFU=    10     1     3     5
 Leave Link  302 at Sat Jun 12 22:35:42 2010, MaxMem=   33554432 cpu:       0.0
 (Enter /mf/frisch/g09/l303.exe)
 DipDrv:  MaxL=1.
 Leave Link  303 at Sat Jun 12 22:35:42 2010, MaxMem=   33554432 cpu:       0.0
 (Enter /mf/frisch/g09/l311.exe)
 Out2e will use a cutoff of  1.00D-10
 Standard cutoffs selected in Shell.
         1314 integrals produced for a total of         1314.
 Shell:  FmtGen was called      535 times.
 Leave Link  311 at Sat Jun 12 22:35:42 2010, MaxMem=   33554432 cpu:       0.0
 (Enter /mf/frisch/g09/l314.exe)
 Phoenix requires     267328 words of memory.
 Out2e will use a cutoff of  1.00D-10
 Standard cutoffs used.
 PQCut1= 1.00D-20 PQCut2= 1.00D-20 PQCut3= 1.00D+02
         3251 integrals produced for a total of         4565.
 PHOENIX SHELL PASSES=     158  NUMBER PROCESSED=      74
          FAST PASSES=     158
 Leave Link  314 at Sat Jun 12 22:35:42 2010, MaxMem=   33554432 cpu:       0.0
 (Enter /mf/frisch/g09/l401.exe)
 Harris functional with IExCor=  205 diagonalized for initial guess.
 ExpMin= 1.61D-01 ExpMax= 5.48D+03 ExpMxC= 8.25D+02 IAcc=1 IRadAn=         1 AccDes= 0.00D+00
 HarFok:  IExCor=  205 AccDes= 0.00D+00 IRadAn=         1 IDoV= 1
 ScaDFX=  1.000000  1.000000  1.000000  1.000000
 FoFCou: FMM=F IPFlag=           0 FMFlag=      100000 FMFlg1=           0
         NFxFlg=           0 DoJE=T BraDBF=F KetDBF=T FulRan=T
         Omega=  0.000000  0.000000  1.000000  0.000000  0.000000 ICntrl=     500 IOpCl=  0
         NMat0=    1 NMatS0=    1 NMatT0=    0 NMatD0=    1 NMtDS0=    0 NMtDT0=    0
         I1Cent=           4 NGrid=           0.
 Petite list used in FoFCou.
 Harris En= -76.0987300928239    
 Initial guess orbital symmetries:
       Occupied  (A1) (A1) (B2) (A1) (B1)
       Virtual   (A1) (B2) (B2) (A1) (B1) (A1) (B2) (A1) (A2) (A1)
                 (B1) (A1) (B2) (A1)
 The electronic state of the initial guess is 1-A1.
 Leave Link  401 at Sat Jun 12 22:35:42 2010, MaxMem=   33554432 cpu:       0.0
 (Enter /mf/frisch/g09/l503.exe)
 TCache will use  33291484 words for buffer space.
 REAL RHF PROCEDURE FOR CLOSED SHELLS
 ************************************
 CLASSICAL SCF
********************************************************
 CYCLE     ELECTRONIC ENERGY     CONVERGENCE  EXTRAP.
********************************************************
    0     E= -75.9337104502147    
                                 0.2955D-01
    1     E= -75.9857362622735    
                                 0.1798D-01
    2     E= -76.0016203720985    
                                 0.1018D-01
    3     E= -76.0070236039798    
                                 0.6093D-02
                                             4-POINT.
    4     (NON-VARIATIONAL)
                                 0.2229D-02
    5     E= -76.0098686860554    
                                 0.1501D-04
    6     E= -76.0098687058033    
                                 0.7433D-05
    7     E= -76.0098687095430    
                                 0.2985D-05
    8     E= -76.0098687103510    
                                 0.1788D-05
    9     E= -76.0098687105424    
                                 0.7898D-06
   10     E= -76.0098687105915    
                                 0.5081D-06
   11     E= -76.0098687106049    
                                 0.2426D-06
   12     E= -76.0098687106089    
                                 0.1576D-06
   13     E= -76.0098687106101    
                                 0.8051D-07
   14     E= -76.0098687106105    
                                 0.5133D-07
   15     E= -76.0098687106107    
                                 0.2758D-07
   16     E= -76.0098687106107    
                                 0.1718D-07
   17     E= -76.0098687106106    
                                 0.9542D-08
 ITERATION TERMINATED  DENSITY MATRIX CONVERGES

                       -76.0098687106    
                       -76.0098687106    
                       -76.0098687106    
                       -76.0098687106    
                       -76.0098687106    
 SCF Done:  E(RRHF) =  -76.0098687106     a.u. after   18 cycles
            Convg  =   0.9542D-08             -V/T =   0.0000
 TCache kept 14 files containing      2205 words out of a limit of  33291484
 There were      574 hits and         6 misses.
 Leave Link  503 at Sat Jun 12 22:35:43 2010, MaxMem=   33554432 cpu:       0.0
 (Enter /mf/frisch/g09/l601.exe)
 Copying SCF densities to generalized density rwf, IOpCl= 0 IROHF=0.

 **********************************************************************

            Population analysis using the SCF density.

 **********************************************************************

 Orbital symmetries:
       Occupied  (A1) (A1) (B2) (A1) (B1)
       Virtual   (A1) (B2) (B2) (A1) (A1) (B1) (B2) (A1) (A2) (A1)
                 (B1) (A1) (B2) (A1)
 The electronic state is 1-A1.
 Alpha  occ. eigenvalues --  -20.55795  -1.33613  -0.71418  -0.56029  -0.49560
 Alpha virt. eigenvalues --    0.21060   0.30390   1.04582   1.11665   1.15957
 Alpha virt. eigenvalues --    1.16928   1.38461   1.41676   2.03065   2.03552
 Alpha virt. eigenvalues --    2.07411   2.62752   2.94207   3.97813
     Molecular Orbital Coefficients:
                           1         2         3         4         5
                        (A1)--O   (A1)--O   (B2)--O   (A1)--O   (B1)--O
     Eigenvalues --   -20.55795  -1.33613  -0.71418  -0.56029  -0.49560
   1 1   O  1S          0.99463  -0.21029   0.00000  -0.07006   0.00000
   2        2S          0.02114   0.47674   0.00000   0.15689   0.00000
   3        2PX         0.00000   0.00000   0.00000   0.00000   0.63896
   4        2PY         0.00000   0.00000   0.50492   0.00000   0.00000
   5        2PZ        -0.00130  -0.08745   0.00000   0.56095   0.00000
   6        3S          0.00416   0.44270   0.00000   0.31456   0.00000
   7        3PX         0.00000   0.00000   0.00000   0.00000   0.51224
   8        3PY         0.00000   0.00000   0.30371   0.00000   0.00000
   9        3PZ         0.00045  -0.04846   0.00000   0.41268   0.00000
  10        4XX        -0.00393  -0.00119   0.00000   0.01143   0.00000
  11        4YY        -0.00422   0.02852   0.00000  -0.00063   0.00000
  12        4ZZ        -0.00408   0.01898   0.00000  -0.04411   0.00000
  13        4XY         0.00000   0.00000   0.00000   0.00000   0.00000
  14        4XZ         0.00000   0.00000   0.00000   0.00000  -0.03242
  15        4YZ         0.00000   0.00000  -0.04935   0.00000   0.00000
  16 2   H  1S          0.00033   0.12927   0.23261  -0.13733   0.00000
  17        2S         -0.00022   0.00228   0.10637  -0.08522   0.00000
  18 3   H  1S          0.00033   0.12927  -0.23261  -0.13733   0.00000
  19        2S         -0.00022   0.00228  -0.10637  -0.08522   0.00000
                           6         7         8         9        10
                        (A1)--V   (B2)--V   (B2)--V   (A1)--V   (A1)--V
     Eigenvalues --     0.21060   0.30390   1.04582   1.11665   1.15957
   1 1   O  1S         -0.10244   0.00000   0.00000   0.02986   0.04523
   2        2S          0.06086   0.00000   0.00000  -0.68284   0.52381
   3        2PX         0.00000   0.00000   0.00000   0.00000   0.00000
   4        2PY         0.00000  -0.32768  -0.12005   0.00000   0.00000
   5        2PZ        -0.21160   0.00000   0.00000  -0.09661   0.85201
   6        3S          1.42064   0.00000   0.00000   1.04248  -1.21488
   7        3PX         0.00000   0.00000   0.00000   0.00000   0.00000
   8        3PY         0.00000  -0.84514  -0.66946   0.00000   0.00000
   9        3PZ        -0.48764   0.00000   0.00000   0.53216  -0.62788
  10        4XX        -0.07082   0.00000   0.00000  -0.33264   0.13191
  11        4YY        -0.05622   0.00000   0.00000  -0.01023   0.32038
  12        4ZZ        -0.04522   0.00000   0.00000  -0.23411   0.21240
  13        4XY         0.00000   0.00000   0.00000   0.00000   0.00000
  14        4XZ         0.00000   0.00000   0.00000   0.00000   0.00000
  15        4YZ         0.00000   0.02295  -0.20910   0.00000   0.00000
  16 2   H  1S         -0.06031   0.04533   0.84580   0.79378   0.35940
  17        2S         -1.04330   1.37930  -0.43891  -0.54962  -0.09202
  18 3   H  1S         -0.06031  -0.04533  -0.84580   0.79378   0.35940
  19        2S         -1.04330  -1.37930   0.43891  -0.54962  -0.09202
     Density Matrix:
                           1         2         3         4         5
   1 1   O  1S          2.07684
   2        2S         -0.18044   0.50469
   3        2PX         0.00000   0.00000   0.81653
   4        2PY         0.00000   0.00000   0.00000   0.50989
   5        2PZ        -0.04442   0.09258   0.00000   0.00000   0.64463
   6        3S         -0.22198   0.52099   0.00000   0.00000   0.27547
   7        3PX         0.00000   0.00000   0.65460   0.00000   0.00000
   8        3PY         0.00000   0.00000   0.00000   0.30670   0.00000
   9        3PZ        -0.03655   0.08331   0.00000   0.00000   0.47147
  10        4XX        -0.00893   0.00229   0.00000   0.00000   0.01304
  11        4YY        -0.02030   0.02682   0.00000   0.00000  -0.00569
  12        4ZZ        -0.00992   0.00408   0.00000   0.00000  -0.05280
  13        4XY         0.00000   0.00000   0.00000   0.00000   0.00000
  14        4XZ         0.00000   0.00000  -0.04143   0.00000   0.00000
  15        4YZ         0.00000   0.00000   0.00000  -0.04983   0.00000
  16 2   H  1S         -0.03446   0.08018   0.00000   0.23490  -0.17668
  17        2S          0.01054  -0.02458   0.00000   0.10742  -0.09600
  18 3   H  1S         -0.03446   0.08018   0.00000  -0.23490  -0.17668
  19        2S          0.01054  -0.02458   0.00000  -0.10742  -0.09600
                           6         7         8         9        10
   6        3S          0.58990
   7        3PX         0.00000   0.52478
   8        3PY         0.00000   0.00000   0.18448
   9        3PZ         0.21673   0.00000   0.00000   0.34531
  10        4XX         0.00611   0.00000   0.00000   0.00955   0.00030
  11        4YY         0.02482   0.00000   0.00000  -0.00329  -0.00005
  12        4ZZ        -0.01098   0.00000   0.00000  -0.03825  -0.00102
  13        4XY         0.00000   0.00000   0.00000   0.00000   0.00000
  14        4XZ         0.00000  -0.03321   0.00000   0.00000   0.00000
  15        4YZ         0.00000   0.00000  -0.02998   0.00000   0.00000
  16 2   H  1S          0.02806   0.00000   0.14129  -0.12587  -0.00345
  17        2S         -0.05160   0.00000   0.06461  -0.07056  -0.00195
  18 3   H  1S          0.02806   0.00000  -0.14129  -0.12587  -0.00345
  19        2S         -0.05160   0.00000  -0.06461  -0.07056  -0.00195
                          11        12        13        14        15
  11        4YY         0.00166
  12        4ZZ         0.00117   0.00465
  13        4XY         0.00000   0.00000   0.00000
  14        4XZ         0.00000   0.00000   0.00000   0.00210
  15        4YZ         0.00000   0.00000   0.00000   0.00000   0.00487
  16 2   H  1S          0.00755   0.01702   0.00000   0.00000  -0.02296
  17        2S          0.00024   0.00761   0.00000   0.00000  -0.01050
  18 3   H  1S          0.00755   0.01702   0.00000   0.00000   0.02296
  19        2S          0.00024   0.00761   0.00000   0.00000   0.01050
                          16        17        18        19
  16 2   H  1S          0.17935
  17        2S          0.07348   0.03717
  18 3   H  1S         -0.03707  -0.02549   0.17935
  19        2S         -0.02549  -0.00810   0.07348   0.03717
    Full Mulliken population analysis:
                           1         2         3         4         5
   1 1   O  1S          2.07684
   2        2S         -0.04217   0.50469
   3        2PX         0.00000   0.00000   0.81653
   4        2PY         0.00000   0.00000   0.00000   0.50989
   5        2PZ         0.00000   0.00000   0.00000   0.00000   0.64463
   6        3S         -0.03713   0.39785   0.00000   0.00000   0.00000
   7        3PX         0.00000   0.00000   0.32829   0.00000   0.00000
   8        3PY         0.00000   0.00000   0.00000   0.15382   0.00000
   9        3PZ         0.00000   0.00000   0.00000   0.00000   0.23645
  10        4XX        -0.00030   0.00125   0.00000   0.00000   0.00000
  11        4YY        -0.00068   0.01467   0.00000   0.00000   0.00000
  12        4ZZ        -0.00033   0.00223   0.00000   0.00000   0.00000
  13        4XY         0.00000   0.00000   0.00000   0.00000   0.00000
  14        4XZ         0.00000   0.00000   0.00000   0.00000   0.00000
  15        4YZ         0.00000   0.00000   0.00000   0.00000   0.00000
  16 2   H  1S         -0.00119   0.01982   0.00000   0.05490   0.02920
  17        2S          0.00073  -0.00933   0.00000   0.01296   0.00819
  18 3   H  1S         -0.00119   0.01982   0.00000   0.05490   0.02920
  19        2S          0.00073  -0.00933   0.00000   0.01296   0.00819
                           6         7         8         9        10
   6        3S          0.58990
   7        3PX         0.00000   0.52478
   8        3PY         0.00000   0.00000   0.18448
   9        3PZ         0.00000   0.00000   0.00000   0.34531
  10        4XX         0.00427   0.00000   0.00000   0.00000   0.00030
  11        4YY         0.01735   0.00000   0.00000   0.00000  -0.00002
  12        4ZZ        -0.00768   0.00000   0.00000   0.00000  -0.00034
  13        4XY         0.00000   0.00000   0.00000   0.00000   0.00000
  14        4XZ         0.00000   0.00000   0.00000   0.00000   0.00000
  15        4YZ         0.00000   0.00000   0.00000   0.00000   0.00000
  16 2   H  1S          0.01196   0.00000   0.06731   0.04240  -0.00057
  17        2S         -0.03523   0.00000   0.02540   0.01961  -0.00078
  18 3   H  1S          0.01196   0.00000   0.06731   0.04240  -0.00057
  19        2S         -0.03523   0.00000   0.02540   0.01961  -0.00078
                          11        12        13        14        15
  11        4YY         0.00166
  12        4ZZ         0.00039   0.00465
  13        4XY         0.00000   0.00000   0.00000
  14        4XZ         0.00000   0.00000   0.00000   0.00210
  15        4YZ         0.00000   0.00000   0.00000   0.00000   0.00487
  16 2   H  1S          0.00321   0.00503   0.00000   0.00000   0.00728
  17        2S          0.00011   0.00322   0.00000   0.00000   0.00061
  18 3   H  1S          0.00321   0.00503   0.00000   0.00000   0.00728
  19        2S          0.00011   0.00322   0.00000   0.00000   0.00061
                          16        17        18        19
  16 2   H  1S          0.17935
  17        2S          0.04837   0.03717
  18 3   H  1S         -0.00158  -0.00530   0.17935
  19        2S         -0.00530  -0.00399   0.04837   0.03717
     Gross orbital populations:
                           1
   1 1   O  1S          1.99529
   2        2S          0.89952
   3        2PX         1.14483
   4        2PY         0.79944
   5        2PZ         0.95587
   6        3S          0.91801
   7        3PX         0.85307
   8        3PY         0.52370
   9        3PZ         0.70578
  10        4XX         0.00246
  11        4YY         0.04001
  12        4ZZ         0.01542
  13        4XY         0.00000
  14        4XZ         0.00210
  15        4YZ         0.02065
  16 2   H  1S          0.46019
  17        2S          0.10173
  18 3   H  1S          0.46019
  19        2S          0.10173
          Condensed to atoms (all electrons):
              1          2          3
     1  O    8.346477   0.264837   0.264837
     2  H    0.264837   0.313264  -0.016175
     3  H    0.264837  -0.016175   0.313264
 Mulliken atomic charges:
              1
     1  O   -0.876150
     2  H    0.438075
     3  H    0.438075
 Sum of Mulliken atomic charges =   0.00000
 Mulliken charges with hydrogens summed into heavy atoms:
              1
     1  O    0.000000
 Sum of Mulliken charges with hydrogens summed into heavy atoms =   0.00000
 Electronic spatial extent (au):  <R**2>=             18.9611
 Charge=              0.0000 electrons
 Dipole moment (field-independent basis, Debye):
    X=              0.0000    Y=              0.0000    Z=             -2.1386  Tot=              2.1386
 Quadrupole moment (field-independent basis, Debye-Ang):
   XX=             -7.2321   YY=             -3.8956   ZZ=             -6.1126
   XY=              0.0000   XZ=              0.0000   YZ=              0.0000
 Traceless Quadrupole moment (field-independent basis, Debye-Ang):
   XX=             -1.4854   YY=              1.8512   ZZ=             -0.3658
   XY=              0.0000   XZ=              0.0000   YZ=              0.0000
 Octapole moment (field-independent basis, Debye-Ang**2):
  XXX=              0.0000  YYY=              0.0000  ZZZ=             -1.3411  XYY=              0.0000
  XXY=              0.0000  XXZ=             -0.3668  XZZ=              0.0000  YZZ=              0.0000
  YYZ=             -1.4023  XYZ=              0.0000
 Hexadecapole moment (field-independent basis, Debye-Ang**3):
 XXXX=             -5.2144 YYYY=             -5.2965 ZZZZ=             -6.0105 XXXY=              0.0000
 XXXZ=              0.0000 YYYX=              0.0000 YYYZ=              0.0000 ZZZX=              0.0000
 ZZZY=              0.0000 XXYY=             -2.0596 XXZZ=             -1.9114 YYZZ=             -1.6066
 XXYZ=              0.0000 YYXZ=              0.0000 ZZXY=              0.0000
 N-N= 9.157175909978D+00 E-N=-1.988071170605D+02  KE= 7.580134933075D+01
 Symmetry A1   KE= 6.775219605251D+01
 Symmetry A2   KE= 6.472220796182D-31
 Symmetry B1   KE= 4.548363635561D+00
 Symmetry B2   KE= 3.500789642675D+00
 Orbital energies and kinetic energies (alpha):
                                 1                 2
   1         (A1)--O         -20.557955         29.145038
   2         (A1)--O          -1.336134          2.570182
   3         (B2)--O          -0.714183          1.750395
   4         (A1)--O          -0.560291          2.160879
   5         (B1)--O          -0.495597          2.274182
   6         (A1)--V           0.210596          0.980769
   7         (B2)--V           0.303899          0.990688
   8         (B2)--V           1.045821          2.060983
   9         (A1)--V           1.116648          2.420530
  10         (A1)--V           1.159574          3.375439
 Total kinetic energy from orbitals= 7.580134834440D+01
 No NMR shielding tensors so no spin-rotation constants.
 Leave Link  601 at Sat Jun 12 22:35:43 2010, MaxMem=   33554432 cpu:       0.0
 (Enter /mf/frisch/g09/l9999.exe)

 Test job not archived.
 1\1\GINC-ALTIX\SP\RHF\Gen\H2O1\FRISCH\12-Jun-2010\0\\#p rhf/gen 6d iop
 (5/8=2) test pop=reg scfdm\\Gaussian Test Job 06 GENERAL BASIS: 6-31G*
  READ IN, LINK 503 REGULAR SCF, RAF 2-INT\\0,1\O\H,1,0.96\H,1,0.96,2,1
 09.47122063\\Version=IA64L-G09RevB.01\State=1-A1\HF=-76.0098687\RMSD=9
 .542e-09\Dipole=0.686999,0.,0.4857817\Quadrupole=0.2774616,-1.1043451,
 0.8268835,0.,-0.777,0.\PG=C02V [C2(O1),SGV(H2)]\\@


 TERRY FORSTER, PORTLY ATLANTA BRAVES RELIEVER,
 ANNOUNCING THAT HE WAS GOING TO A FAT FARM:
 "A WAIST IS A TERRIBLE THING TO MIND."
 Job cpu time:  0 days  0 hours  0 minutes  0.0 seconds.
 File lengths (MBytes):  RWF=      5 Int=      1 D2E=      0 Chk=      1 Scr=      1
 Normal termination of Gaussian 09 at Sat Jun 12 22:35:43 2010.
