 Entering Gaussian System, Link 0=g09
 Initial command:
 /mf/frisch/g09/l1.exe /altix/s0/scratch/Gau-25691.inp -scrdir=/altix/s0/scratch,110gw
 Entering Link 1 = /mf/frisch/g09/l1.exe PID=     25692.
  
 Copyright (c) 1988,1990,1992,1993,1995,1998,2003,2009,2010,
            Gaussian, Inc.  All Rights Reserved.
  
 This is part of the Gaussian(R) 09 program.  It is based on
 the Gaussian(R) 03 system (copyright 2003, Gaussian, Inc.),
 the Gaussian(R) 98 system (copyright 1998, Gaussian, Inc.),
 the Gaussian(R) 94 system (copyright 1995, Gaussian, Inc.),
 the Gaussian 92(TM) system (copyright 1992, Gaussian, Inc.),
 the Gaussian 90(TM) system (copyright 1990, Gaussian, Inc.),
 the Gaussian 88(TM) system (copyright 1988, Gaussian, Inc.),
 the Gaussian 86(TM) system (copyright 1986, Carnegie Mellon
 University), and the Gaussian 82(TM) system (copyright 1983,
 Carnegie Mellon University). Gaussian is a federally registered
 trademark of Gaussian, Inc.
  
 This software contains proprietary and confidential information,
 including trade secrets, belonging to Gaussian, Inc.
  
 This software is provided under written license and may be
 used, copied, transmitted, or stored only in accord with that
 written license.
  
 The following legend is applicable only to US Government
 contracts under FAR:
  
                    RESTRICTED RIGHTS LEGEND
  
 Use, reproduction and disclosure by the US Government is
 subject to restrictions as set forth in subparagraphs (a)
 and (c) of the Commercial Computer Software - Restricted
 Rights clause in FAR 52.227-19.
  
 Gaussian, Inc.
 340 Quinnipiac St., Bldg. 40, Wallingford CT 06492
  
  
 ---------------------------------------------------------------
 Warning -- This program may not be used in any manner that
 competes with the business of Gaussian, Inc. or will provide
 assistance to any competitor of Gaussian, Inc.  The licensee
 of this program is prohibited from giving any competitor of
 Gaussian, Inc. access to this program.  By using this program,
 the user acknowledges that Gaussian, Inc. is engaged in the
 business of creating and licensing software in the field of
 computational chemistry and represents and warrants to the
 licensee that it is not a competitor of Gaussian, Inc. and that
 it will not use this program in any manner prohibited above.
 ---------------------------------------------------------------
  

 Cite this work as:
 Gaussian 09, Revision B.01,
 M. J. Frisch, G. W. Trucks, H. B. Schlegel, G. E. Scuseria, 
 M. A. Robb, J. R. Cheeseman, G. Scalmani, V. Barone, B. Mennucci, 
 G. A. Petersson, H. Nakatsuji, M. Caricato, X. Li, H. P. Hratchian, 
 A. F. Izmaylov, J. Bloino, G. Zheng, J. L. Sonnenberg, M. Hada, 
 M. Ehara, K. Toyota, R. Fukuda, J. Hasegawa, M. Ishida, T. Nakajima, 
 Y. Honda, O. Kitao, H. Nakai, T. Vreven, J. A. Montgomery, Jr., 
 J. E. Peralta, F. Ogliaro, M. Bearpark, J. J. Heyd, E. Brothers, 
 K. N. Kudin, V. N. Staroverov, T. Keith, R. Kobayashi, J. Normand, 
 K. Raghavachari, A. Rendell, J. C. Burant, S. S. Iyengar, J. Tomasi, 
 M. Cossi, N. Rega, J. M. Millam, M. Klene, J. E. Knox, J. B. Cross, 
 V. Bakken, C. Adamo, J. Jaramillo, R. Gomperts, R. E. Stratmann, 
 O. Yazyev, A. J. Austin, R. Cammi, C. Pomelli, J. W. Ochterski, 
 R. L. Martin, K. Morokuma, V. G. Zakrzewski, G. A. Voth, 
 P. Salvador, J. J. Dannenberg, S. Dapprich, A. D. Daniels, 
 O. Farkas, J. B. Foresman, J. V. Ortiz, J. Cioslowski, 
 and D. J. Fox, Gaussian, Inc., Wallingford CT, 2010.
 
 ******************************************
 Gaussian 09:  IA64L-G09RevB.01  8-Jun-2010
                12-Jun-2010 
 ******************************************
 -------------------
 #P TEST 3-21G SCFDM
 -------------------
 1/38=1/1;
 2/12=2,17=6,18=5,40=1/2;
 3/5=5,11=9,16=1,25=14,30=1/1,2,3,11,14;
 4//1;
 5/5=1,21=2/3;
 6/7=2,8=2,9=2,10=2,28=1/1;
 99/5=1,9=1/99;
 Leave Link    1 at Sat Jun 12 22:35:36 2010, MaxMem=          0 cpu:       0.0
 (Enter /mf/frisch/g09/l101.exe)
 ---------------------------------------------------------------
 Gaussian Test Job 03 STEEPEST DESCENT SCF 3-21G//3-21G ETHYLENE
 ---------------------------------------------------------------
 Symbolic Z-matrix:
 Charge =  0 Multiplicity = 1
 C
 C                    1    CC
 H                    1    CH       2    HCC
 H                    1    CH       2    HCC      3     180.     0
 H                    2    CH       1    HCC      3     180.     0
 H                    2    CH       1    HCC      4     180.     0
       Variables:
  CC                    1.31477                  
  CH                    1.07363                  
  HCC                 121.8867                   
 
 NAtoms=      6 NQM=      6 NQMF=      0 NMic=      0 NMicF=      0 NTot=      6.
                    Isotopes and Nuclear Properties:
 (Nuclear quadrupole moments (NQMom) in fm**2, nuclear magnetic moments (NMagM)
  in nuclear magnetons)

  Atom         1           2           3           4           5           6
 IAtWgt=          12          12           1           1           1           1
 AtmWgt=  12.0000000  12.0000000   1.0078250   1.0078250   1.0078250   1.0078250
 NucSpn=           0           0           1           1           1           1
 AtZEff=   0.0000000   0.0000000   0.0000000   0.0000000   0.0000000   0.0000000
 NQMom=    0.0000000   0.0000000   0.0000000   0.0000000   0.0000000   0.0000000
 NMagM=    0.0000000   0.0000000   2.7928460   2.7928460   2.7928460   2.7928460
 Leave Link  101 at Sat Jun 12 22:35:37 2010, MaxMem=   33554432 cpu:       0.0
 (Enter /mf/frisch/g09/l202.exe)
                          Input orientation:                          
 ---------------------------------------------------------------------
 Center     Atomic      Atomic             Coordinates (Angstroms)
 Number     Number       Type             X           Y           Z
 ---------------------------------------------------------------------
      1          6           0        0.000000    0.000000    0.000000
      2          6           0        0.000000    0.000000    1.314770
      3          1           0        0.911613    0.000000   -0.567136
      4          1           0       -0.911613    0.000000   -0.567136
      5          1           0       -0.911613    0.000000    1.881906
      6          1           0        0.911613    0.000000    1.881906
 ---------------------------------------------------------------------
                    Distance matrix (angstroms):
                    1          2          3          4          5
     1  C    0.000000
     2  C    1.314770   0.000000
     3  H    1.073630   2.091078   0.000000
     4  H    1.073630   2.091078   1.823226   0.000000
     5  H    2.091078   1.073630   3.053188   2.449041   0.000000
     6  H    2.091078   1.073630   2.449041   3.053188   1.823226
                    6
     6  H    0.000000
 Stoichiometry    C2H4
 Framework group  D2H[C2"(C.C),SG(H4)]
 Deg. of freedom     3
 Full point group                 D2H     NOp   8
 Largest Abelian subgroup         D2H     NOp   8
 Largest concise Abelian subgroup D2      NOp   4
                         Standard orientation:                         
 ---------------------------------------------------------------------
 Center     Atomic      Atomic             Coordinates (Angstroms)
 Number     Number       Type             X           Y           Z
 ---------------------------------------------------------------------
      1          6           0        0.000000    0.000000    0.657385
      2          6           0        0.000000    0.000000   -0.657385
      3          1           0        0.000000    0.911613    1.224521
      4          1           0        0.000000   -0.911613    1.224521
      5          1           0        0.000000   -0.911613   -1.224521
      6          1           0        0.000000    0.911613   -1.224521
 ---------------------------------------------------------------------
 Rotational constants (GHZ):    150.8519411     30.7849006     25.5672911
 Leave Link  202 at Sat Jun 12 22:35:37 2010, MaxMem=   33554432 cpu:       0.0
 (Enter /mf/frisch/g09/l301.exe)
 Standard basis: 3-21G (6D, 7F)
 Ernie: Thresh=  0.10000D-02 Tol=  0.10000D-05 Strict=F.
 There are     7 symmetry adapted basis functions of AG  symmetry.
 There are     0 symmetry adapted basis functions of B1G symmetry.
 There are     2 symmetry adapted basis functions of B2G symmetry.
 There are     4 symmetry adapted basis functions of B3G symmetry.
 There are     0 symmetry adapted basis functions of AU  symmetry.
 There are     7 symmetry adapted basis functions of B1U symmetry.
 There are     4 symmetry adapted basis functions of B2U symmetry.
 There are     2 symmetry adapted basis functions of B3U symmetry.
 Integral buffers will be    131072 words long.
 Raffenetti 1 integral format.
 Two-electron integral symmetry is turned on.
    26 basis functions,    42 primitive gaussians,    26 cartesian basis functions
     8 alpha electrons        8 beta electrons
       nuclear repulsion energy        33.7515964544 Hartrees.
 IExCor=    0 DFT=F Ex=HF Corr=None ExCW=0 ScaHFX=  1.000000
 ScaDFX=  1.000000  1.000000  1.000000  1.000000 ScalE2=  1.000000  1.000000
 IRadAn=      0 IRanWt=     -1 IRanGd=            0 ICorTp=0
 NAtoms=    6 NActive=    6 NUniq=    2 SFac= 4.00D+00 NAtFMM=   50 NAOKFM=F Big=F
 Leave Link  301 at Sat Jun 12 22:35:37 2010, MaxMem=   33554432 cpu:       0.0
 (Enter /mf/frisch/g09/l302.exe)
 NPDir=0 NMtPBC=     1 NCelOv=     1 NCel=       1 NClECP=     1 NCelD=      1
         NCelK=      1 NCelE2=     1 NClLst=     1 CellRange=     0.0.
 One-electron integrals computed using PRISM.
 One-electron integral symmetry used in STVInt
 NBasis=    26 RedAO= T  NBF=     7     0     2     4     0     7     4     2
 NBsUse=    26 1.00D-06 NBFU=     7     0     2     4     0     7     4     2
 Leave Link  302 at Sat Jun 12 22:35:37 2010, MaxMem=   33554432 cpu:       0.0
 (Enter /mf/frisch/g09/l303.exe)
 DipDrv:  MaxL=1.
 Leave Link  303 at Sat Jun 12 22:35:37 2010, MaxMem=   33554432 cpu:       0.0
 (Enter /mf/frisch/g09/l311.exe)
 Out2e will use a cutoff of  1.00D-10
 Standard cutoffs selected in Shell.
        10363 integrals produced for a total of        10363.
 Shell:  FmtGen was called     1570 times.
 Leave Link  311 at Sat Jun 12 22:35:37 2010, MaxMem=   33554432 cpu:       0.0
 (Enter /mf/frisch/g09/l314.exe)
 Phoenix requires     263168 words of memory.
 Out2e will use a cutoff of  1.00D-10
 Phenix exits -- no d or f functions.
            0 integrals produced for a total of        10363.
 PHOENIX SHELL PASSES=       0  NUMBER PROCESSED=       0
          FAST PASSES=       0
 Leave Link  314 at Sat Jun 12 22:35:37 2010, MaxMem=   33554432 cpu:       0.0
 (Enter /mf/frisch/g09/l401.exe)
 Harris functional with IExCor=  205 diagonalized for initial guess.
 ExpMin= 1.83D-01 ExpMax= 1.72D+02 ExpMxC= 1.72D+02 IAcc=1 IRadAn=         1 AccDes= 0.00D+00
 HarFok:  IExCor=  205 AccDes= 0.00D+00 IRadAn=         1 IDoV= 1
 ScaDFX=  1.000000  1.000000  1.000000  1.000000
 FoFCou: FMM=F IPFlag=           0 FMFlag=      100000 FMFlg1=           0
         NFxFlg=           0 DoJE=T BraDBF=F KetDBF=T FulRan=T
         Omega=  0.000000  0.000000  1.000000  0.000000  0.000000 ICntrl=     500 IOpCl=  0
         NMat0=    1 NMatS0=    1 NMatT0=    0 NMatD0=    1 NMtDS0=    0 NMtDT0=    0
         I1Cent=           4 NGrid=           0.
 Petite list used in FoFCou.
 Harris En= -77.7777536502422    
 Initial guess orbital symmetries:
       Occupied  (B1U) (AG) (AG) (B1U) (B2U) (AG) (B3G) (B3U)
       Virtual   (B2G) (B2U) (AG) (B1U) (B3G) (B1U) (AG) (B3U)
                 (B2U) (B2G) (B1U) (AG) (B3G) (B2U) (B1U) (AG)
                 (B3G) (B1U)
 The electronic state of the initial guess is 1-AG.
 Leave Link  401 at Sat Jun 12 22:35:37 2010, MaxMem=   33554432 cpu:       0.0
 (Enter /mf/frisch/g09/l503.exe)
 TCache will use  33291484 words for buffer space.
 REAL RHF PROCEDURE FOR CLOSED SHELLS
 ************************************
 STEEPEST DESCENT
                          METHOD B
 TAU(0)= 0.3000      MAX. DEGREE OF SEARCH POLYNOMIAL= 9
 ************************************************************************
 CYC PT     ELECTRONIC ENERGY   CONVERGENCE PTS/DEG  LAMBDA     (DE/DL)
 ************************************************************************
   0( 1)  E= -77.4954777116734    
                                                              -0.2734D+00
                                                   0.3000D+00
   0( 2)  E= -77.5613859183352    
                                                   0.6000D+00
   0( 3)  E= -77.5948534831802    
                                                   0.9000D+00
   0( 4)  E= -77.5964430655026    
                                                   0.1200D+01
   0( 5)  E= -77.5678531277620    
 Inv2:  IOpt= 1 Iter= 1 AM= 2.88D-13 Conv= 1.00D-12.
                                             5  5  0.7646D+00
                                 0.2095D-01
   1( 1)  E= -77.5995883023115    
                                                              -0.2449D-02
                                                   0.1606D+01
   1( 2)  E= -77.6006858235277    
                                                   0.3211D+01
   1( 3)  E= -77.5961328899847    
 Inv2:  IOpt= 1 Iter= 1 AM= 6.66D-17 Conv= 1.00D-12.
                                             3  3  0.1114D+01
                                 0.3381D-02
   2( 1)  E= -77.6009513940064    
                                                              -0.7407D-04
                                                   0.2339D+01
   2( 2)  E= -77.6009011125991    
 Inv2:  IOpt= 1 Iter= 1 AM= 1.07D-17 Conv= 1.00D-12.
                                             2  2  0.9064D+00
                                 0.4161D-03
   3( 1)  E= -77.6009849624337    
                                                              -0.5331D-05
                                                   0.1903D+01
   3( 2)  E= -77.6009859630562    
                                                   0.3807D+01
   3( 3)  E= -77.6009686770309    
 Inv2:  IOpt= 1 Iter= 1 AM= 6.13D-17 Conv= 1.00D-12.
                                             3  3  0.1056D+01
                                 0.1936D-03
   4( 1)  E= -77.6009877764119    
                                                              -0.5535D-06
                                                   0.2217D+01
   4( 2)  E= -77.6009875220891    
 Inv2:  IOpt= 1 Iter= 1 AM= 2.28D-17 Conv= 1.00D-12.
                                             2  2  0.9183D+00
                                 0.4240D-04
   5( 1)  E= -77.6009880305510    
                                                              -0.4527D-07
                                                   0.1928D+01
   5( 2)  E= -77.6009880386641    
                                                   0.3857D+01
   5( 3)  E= -77.6009878884028    
 Inv2:  IOpt= 1 Iter= 1 AM= 1.19D-16 Conv= 1.00D-12.
 NO MINIMUM FOUND
                                             3  3  0.3857D+01
                                 0.7136D-04
   6( 1)  E= -77.6009878884028    
 *** ENERGY RISES ***
 REPEAT THE PREVIOUS SEARCH WITH TAU =        0.192844820204D+00
   5( 1)  E= -111.352584484915    
                                                   0.1928D+00
   5( 2)  E= -77.6009880384893    
                                                   0.3857D+00
   5( 3)  E= -77.6009880448438    
                                                   0.5785D+00
   5( 4)  E= -77.6009880496146    
                                                   0.7714D+00
   5( 5)  E= -77.6009880528016    
                                                   0.9642D+00
   5( 6)  E= -77.6009880544048    
                                                   0.1157D+01
   5( 7)  E= -77.6009880544241    
                                                   0.1350D+01
   5( 8)  E= -77.6009880528597    
 Inv2:  IOpt= 1 Iter= 1 AM= 4.94D-09 Conv= 1.00D-12.
 Inv2:  IOpt= 1 Iter= 2 AM= 9.15D-22 Conv= 1.00D-12.
                                             8  8  0.1037D+01
                                 0.5217D-04
   6( 1)  E= -77.6009880545983    
                                                              -0.4820D-08
                                                   0.2420D+00
   6( 2)  E= -77.6009880556185    
                                                   0.4840D+00
   6( 3)  E= -77.6009880563464    
                                                   0.7260D+00
   6( 4)  E= -77.6009880567821    
                                                   0.9680D+00
   6( 5)  E= -77.6009880569253    
                                                   0.1210D+01
   6( 6)  E= -77.6009880567763    
 Inv2:  IOpt= 1 Iter= 1 AM= 8.11D-12 Conv= 1.00D-12.
 Inv2:  IOpt= 1 Iter= 2 AM= 3.99D-26 Conv= 1.00D-12.
                                             6  6  0.9805D+00
                                 0.4596D-05
   7( 1)  E= -77.6009880569248    
                                                              -0.4887D-09
                                                   0.2574D+00
   7( 2)  E= -77.6009880570341    
                                                   0.5148D+00
   7( 3)  E= -77.6009880571106    
                                                   0.7722D+00
   7( 4)  E= -77.6009880571543    
                                                   0.1030D+01
   7( 5)  E= -77.6009880571650    
                                                   0.1287D+01
   7( 6)  E= -77.6009880571431    
 Inv2:  IOpt= 1 Iter= 1 AM= 4.78D-12 Conv= 1.00D-12.
 Inv2:  IOpt= 1 Iter= 2 AM= 9.78D-26 Conv= 1.00D-12.
                                             6  6  0.1119D+01
                                 0.2045D-05
   8( 1)  E= -77.6009880571610    
                                                              -0.7476D-10
                                                   0.3358D+00
   8( 2)  E= -77.6009880571810    
                                                   0.6715D+00
   8( 3)  E= -77.6009880571908    
                                                   0.1007D+01
   8( 4)  E= -77.6009880571903    
 Inv2:  IOpt= 1 Iter= 1 AM= 4.73D-14 Conv= 1.00D-12.
                                             4  4  0.8158D+00
                                 0.3796D-06
   9( 1)  E= -77.6009880571918    
                                                              -0.3288D-11
                                                   0.2855D+00
   9( 2)  E= -77.6009880571926    
                                                   0.5711D+00
   9( 3)  E= -77.6009880571933    
                                                   0.8566D+00
   9( 4)  E= -77.6009880571936    
                                                   0.1142D+01
   9( 5)  E= -77.6009880571939    
                                                   0.1428D+01
   9( 6)  E= -77.6009880571939    
 Inv2:  IOpt= 1 Iter= 1 AM= 4.01D-12 Conv= 1.00D-12.
 Inv2:  IOpt= 1 Iter= 2 AM= 3.59D-26 Conv= 1.00D-12.
                                             6  6  0.5127D+00
                                 0.8453D-07
  10( 1)  E= -77.6009880571931    
                                                              -0.1252D-11
                                                   0.2153D+00
  10( 2)  E= -77.6009880571933    
                                                   0.4306D+00
  10( 3)  E= -77.6009880571935    
                                                   0.6459D+00
  10( 4)  E= -77.6009880571938    
                                                   0.8613D+00
  10( 5)  E= -77.6009880571938    
                                                   0.1077D+01
  10( 6)  E= -77.6009880571940    
                                                   0.1292D+01
  10( 7)  E= -77.6009880571940    
                                                   0.1507D+01
  10( 8)  E= -77.6009880571940    
                                                   0.1723D+01
  10( 9)  E= -77.6009880571940    
 Inv2:  IOpt= 1 Iter= 1 AM= 2.88D-08 Conv= 1.00D-12.
 Inv2:  IOpt= 1 Iter= 2 AM= 7.78D-20 Conv= 1.00D-12.
                                             9  9  0.6944D+00
                                 0.7161D-07
  11( 1)  E= -77.6009880571937    
                                                              -0.3443D-12
                                                   0.3646D+00
  11( 2)  E= -77.6009880571938    
                                                   0.7291D+00
  11( 3)  E= -77.6009880571939    
                                                   0.1094D+01
  11( 4)  E= -77.6009880571940    
                                                   0.1458D+01
  11( 5)  E= -77.6009880571940    
                                                   0.1823D+01
  11( 6)  E= -77.6009880571940    
 Inv2:  IOpt= 1 Iter= 1 AM= 2.49D-12 Conv= 1.00D-12.
 Inv2:  IOpt= 1 Iter= 2 AM= 5.53D-26 Conv= 1.00D-12.
                                             6  6  0.5066D-01
                                 0.2695D-08
 ITERATION TERMINATED  DENSITY MATRIX CONVERGES

                       -77.6009880572    
                       -77.6009880572    
                       -77.6009880572    
                       -77.6009880572    
                       -77.6009880572    
 SCF Done:  E(RRHF) =  -77.6009880572     a.u. after   12 cycles
            Convg  =   0.2695D-08             -V/T =   0.0000
 TCache kept 15 files containing      5043 words out of a limit of  33291484
 There were     1103 hits and         6 misses.
 Leave Link  503 at Sat Jun 12 22:35:37 2010, MaxMem=   33554432 cpu:       0.0
 (Enter /mf/frisch/g09/l601.exe)
 Copying SCF densities to generalized density rwf, IOpCl= 0 IROHF=0.

 **********************************************************************

            Population analysis using the SCF density.

 **********************************************************************

 Orbital symmetries:
       Occupied  (AG) (B1U) (AG) (B1U) (B2U) (AG) (B3G) (B3U)
       Virtual   (B2G) (AG) (B2U) (B1U) (B3G) (B1U) (AG) (B2U)
                 (B3U) (B2G) (B1U) (AG) (B3G) (B2U) (B1U) (B3G)
                 (AG) (B1U)
 The electronic state is 1-AG.
 Alpha  occ. eigenvalues --  -11.16610 -11.16589  -1.03837  -0.78868  -0.64682
 Alpha  occ. eigenvalues --   -0.59077  -0.49898  -0.37976
 Alpha virt. eigenvalues --    0.18670   0.29868   0.31321   0.34380   0.43945
 Alpha virt. eigenvalues --    0.54534   0.87001   0.92627   0.99037   1.08026
 Alpha virt. eigenvalues --    1.11711   1.12821   1.32611   1.35640   1.41180
 Alpha virt. eigenvalues --    1.64705   1.66288   1.97434
          Condensed to atoms (all electrons):
              1          2          3          4          5          6
     1  C    5.203751   0.531039   0.394560   0.394560  -0.049271  -0.049271
     2  C    0.531039   5.203751  -0.049271  -0.049271   0.394560   0.394560
     3  H    0.394560  -0.049271   0.464438  -0.022350   0.002237  -0.002296
     4  H    0.394560  -0.049271  -0.022350   0.464438  -0.002296   0.002237
     5  H   -0.049271   0.394560   0.002237  -0.002296   0.464438  -0.022350
     6  H   -0.049271   0.394560  -0.002296   0.002237  -0.022350   0.464438
 Mulliken atomic charges:
              1
     1  C   -0.425367
     2  C   -0.425367
     3  H    0.212683
     4  H    0.212683
     5  H    0.212683
     6  H    0.212683
 Sum of Mulliken atomic charges =   0.00000
 Mulliken charges with hydrogens summed into heavy atoms:
              1
     1  C    0.000000
     2  C    0.000000
 Sum of Mulliken charges with hydrogens summed into heavy atoms =   0.00000
 Electronic spatial extent (au):  <R**2>=             81.5820
 Charge=              0.0000 electrons
 Dipole moment (field-independent basis, Debye):
    X=              0.0000    Y=              0.0000    Z=              0.0000  Tot=              0.0000
 Quadrupole moment (field-independent basis, Debye-Ang):
   XX=            -15.6224   YY=            -12.3241   ZZ=            -12.1001
   XY=              0.0000   XZ=              0.0000   YZ=              0.0000
 Traceless Quadrupole moment (field-independent basis, Debye-Ang):
   XX=             -2.2736   YY=              1.0248   ZZ=              1.2488
   XY=              0.0000   XZ=              0.0000   YZ=              0.0000
 Octapole moment (field-independent basis, Debye-Ang**2):
  XXX=              0.0000  YYY=              0.0000  ZZZ=              0.0000  XYY=              0.0000
  XXY=              0.0000  XXZ=              0.0000  XZZ=              0.0000  YZZ=              0.0000
  YYZ=              0.0000  XYZ=              0.0000
 Hexadecapole moment (field-independent basis, Debye-Ang**3):
 XXXX=            -16.3207 YYYY=            -24.7628 ZZZZ=            -64.1187 XXXY=              0.0000
 XXXZ=              0.0000 YYYX=              0.0000 YYYZ=              0.0000 ZZZX=              0.0000
 ZZZY=              0.0000 XXYY=             -7.4690 XXZZ=            -14.5524 YYZZ=            -12.2734
 XXYZ=              0.0000 YYXZ=              0.0000 ZZXY=              0.0000
 N-N= 3.375159645436D+01 E-N=-2.475823666645D+02  KE= 7.742794011600D+01
 Symmetry AG   KE= 3.733188860241D+01
 Symmetry B1G  KE= 0.000000000000D+00
 Symmetry B2G  KE= 1.857519059793D-17
 Symmetry B3G  KE= 2.080376413011D+00
 Symmetry AU   KE= 0.000000000000D+00
 Symmetry B1U  KE= 3.422149721855D+01
 Symmetry B2U  KE= 1.847067665417D+00
 Symmetry B3U  KE= 1.947110216611D+00
 No NMR shielding tensors so no spin-rotation constants.
 Leave Link  601 at Sat Jun 12 22:35:38 2010, MaxMem=   33554432 cpu:       0.0
 (Enter /mf/frisch/g09/l9999.exe)

 Test job not archived.
 1\1\GINC-ALTIX\SP\RHF\3-21G\C2H4\FRISCH\12-Jun-2010\0\\#P TEST 3-21G S
 CFDM\\Gaussian Test Job 03 STEEPEST DESCENT SCF 3-21G//3-21G ETHYLENE\
 \0,1\C\C,1,1.31477\H,1,1.07363,2,121.8867\H,1,1.07363,2,121.8867,3,180
 .,0\H,2,1.07363,1,121.8867,3,180.,0\H,2,1.07363,1,121.8867,4,180.,0\\V
 ersion=IA64L-G09RevB.01\State=1-AG\HF=-77.6009881\RMSD=2.695e-09\Dipol
 e=0.,0.,0.\Quadrupole=0.7618853,-1.6903354,0.92845,0.,0.,0.\PG=D02H [C
 2"(C1.C1),SG(H4)]\\@


 A ROPE OVER THE TOP OF A FENCE HAS THE SAME LENGTH ON EACH SIDE.
 WEIGHS 1/3 POUND PER FOOT.  ON ONE END HANGS A MONKEY HOLDING A
 BANANA, AND ON THE OTHER END A WEIGHT EQUAL TO THE WEIGHT
 OF THE MONKEY.  THE BANANA WEIGHS TWO OUNCES PER INCH.
 THE ROPE IS AS LONG AS THE AGE OF THE MONKEY, 
 AND THE WEIGHT OF THE MONKEY (IN OUNCES) IS AS MUCH
 AS THE AGE OF THE MONKEY'S MOTHER.  THE COMBINED AGES OF MONKEY
 AND MOTHER ARE THIRTY YEARS.  HALF THE WEIGHT OF THE MONKEY,
  PLUS THE WEIGHT OF THE BANANA, IS ONE FOURTH AS MUCH AS THE WEIGHT
 OF THE WEIGHT AND THE ROPE.
 THE MONKEY'S MOTHER IS HALF AS OLD AS THE MONKEY WILL BE
 WHEN IT IS 3 TIMES AS OLD AS ITS MOTHER WAS WHEN
 SHE WAS HALF AS OLD AS THE MONKEY WILL BE WHEN IT IS
 AS OLD AS ITS MOTHER WILL BE WHEN SHE IS 4 TIMES AS
 OLD AS THE MONKEY WAS WHEN IT WAS TWICE AS OLD AS 
 ITS MOTHER WAS WHEN SHE WAS ONE THIRD AS OLD AS THE
 MONKEY WAS WHEN IT WAS AS OLD AS ITS MOTHER WAS WHEN 
 SHE WAS 3 TIMES AS OLD AS THE MONKEY WAS WHEN IT WAS AS OLD AS ITS
 MOTHER WAS WHEN SHE WAS 3 TIMES AS OLD AS THE MONKEY 
 WAS WHEN IT WAS ONE FOURTH WAS OLD AS IT IS NOW.

 HOW LONG IS THE BANANA?
 Job cpu time:  0 days  0 hours  0 minutes  0.0 seconds.
 File lengths (MBytes):  RWF=      5 Int=      1 D2E=      0 Chk=      1 Scr=      1
 Normal termination of Gaussian 09 at Sat Jun 12 22:35:38 2010.
