 Entering Gaussian System, Link 0=g09
 Initial command:
 /mf/frisch/g09/l1.exe /altix/s0/scratch/Gau-24847.inp -scrdir=/altix/s0/scratch,110gw
 Entering Link 1 = /mf/frisch/g09/l1.exe PID=     24848.
  
 Copyright (c) 1988,1990,1992,1993,1995,1998,2003,2009,2010,
            Gaussian, Inc.  All Rights Reserved.
  
 This is part of the Gaussian(R) 09 program.  It is based on
 the Gaussian(R) 03 system (copyright 2003, Gaussian, Inc.),
 the Gaussian(R) 98 system (copyright 1998, Gaussian, Inc.),
 the Gaussian(R) 94 system (copyright 1995, Gaussian, Inc.),
 the Gaussian 92(TM) system (copyright 1992, Gaussian, Inc.),
 the Gaussian 90(TM) system (copyright 1990, Gaussian, Inc.),
 the Gaussian 88(TM) system (copyright 1988, Gaussian, Inc.),
 the Gaussian 86(TM) system (copyright 1986, Carnegie Mellon
 University), and the Gaussian 82(TM) system (copyright 1983,
 Carnegie Mellon University). Gaussian is a federally registered
 trademark of Gaussian, Inc.
  
 This software contains proprietary and confidential information,
 including trade secrets, belonging to Gaussian, Inc.
  
 This software is provided under written license and may be
 used, copied, transmitted, or stored only in accord with that
 written license.
  
 The following legend is applicable only to US Government
 contracts under FAR:
  
                    RESTRICTED RIGHTS LEGEND
  
 Use, reproduction and disclosure by the US Government is
 subject to restrictions as set forth in subparagraphs (a)
 and (c) of the Commercial Computer Software - Restricted
 Rights clause in FAR 52.227-19.
  
 Gaussian, Inc.
 340 Quinnipiac St., Bldg. 40, Wallingford CT 06492
  
  
 ---------------------------------------------------------------
 Warning -- This program may not be used in any manner that
 competes with the business of Gaussian, Inc. or will provide
 assistance to any competitor of Gaussian, Inc.  The licensee
 of this program is prohibited from giving any competitor of
 Gaussian, Inc. access to this program.  By using this program,
 the user acknowledges that Gaussian, Inc. is engaged in the
 business of creating and licensing software in the field of
 computational chemistry and represents and warrants to the
 licensee that it is not a competitor of Gaussian, Inc. and that
 it will not use this program in any manner prohibited above.
 ---------------------------------------------------------------
  

 Cite this work as:
 Gaussian 09, Revision B.01,
 M. J. Frisch, G. W. Trucks, H. B. Schlegel, G. E. Scuseria, 
 M. A. Robb, J. R. Cheeseman, G. Scalmani, V. Barone, B. Mennucci, 
 G. A. Petersson, H. Nakatsuji, M. Caricato, X. Li, H. P. Hratchian, 
 A. F. Izmaylov, J. Bloino, G. Zheng, J. L. Sonnenberg, M. Hada, 
 M. Ehara, K. Toyota, R. Fukuda, J. Hasegawa, M. Ishida, T. Nakajima, 
 Y. Honda, O. Kitao, H. Nakai, T. Vreven, J. A. Montgomery, Jr., 
 J. E. Peralta, F. Ogliaro, M. Bearpark, J. J. Heyd, E. Brothers, 
 K. N. Kudin, V. N. Staroverov, T. Keith, R. Kobayashi, J. Normand, 
 K. Raghavachari, A. Rendell, J. C. Burant, S. S. Iyengar, J. Tomasi, 
 M. Cossi, N. Rega, J. M. Millam, M. Klene, J. E. Knox, J. B. Cross, 
 V. Bakken, C. Adamo, J. Jaramillo, R. Gomperts, R. E. Stratmann, 
 O. Yazyev, A. J. Austin, R. Cammi, C. Pomelli, J. W. Ochterski, 
 R. L. Martin, K. Morokuma, V. G. Zakrzewski, G. A. Voth, 
 P. Salvador, J. J. Dannenberg, S. Dapprich, A. D. Daniels, 
 O. Farkas, J. B. Foresman, J. V. Ortiz, J. Cioslowski, 
 and D. J. Fox, Gaussian, Inc., Wallingford CT, 2010.
 
 ******************************************
 Gaussian 09:  IA64L-G09RevB.01  8-Jun-2010
                12-Jun-2010 
 ******************************************
 -------------------------------------------------------
 #p rohf/4-31g pop=(reg,npa) test force scf=conventional
 -------------------------------------------------------
 1/10=7,30=1,38=1/1,3;
 2/12=2,17=6,18=5,40=1/2;
 3/5=1,11=2,16=1,25=14,30=1,71=1,116=101/1,2,3,11,14;
 4//1;
 5/5=1/2;
 6/28=1,40=-1/1,7;
 7/29=1/1,2,3,16;
 1/10=7,30=1/3;
 99//99;
 Leave Link    1 at Sat Jun 12 22:35:11 2010, MaxMem=          0 cpu:       0.0
 (Enter /mf/frisch/g09/l101.exe)
 ----------------------------------------------------------------------
 Gaussian Test Job 002 (Part 1): METHYL RADICAL,C3V,2-A-1,UHF/4-31G STR
 UCTURE using L502
 ----------------------------------------------------------------------
 Symbolic Z-matrix:
 Charge =  0 Multiplicity = 2
 C
 X                    1     1. 
 H                    1    R        2    A
 H                    1    R        2    A        3     120.     0
 H                    1    R        2    A        3    -120.     0
       Variables:
  R                     1.07046                  
  A                    90.08384                  
 
 NAtoms=      4 NQM=      4 NQMF=      0 NMic=      0 NMicF=      0 NTot=      4.
                    Isotopes and Nuclear Properties:
 (Nuclear quadrupole moments (NQMom) in fm**2, nuclear magnetic moments (NMagM)
  in nuclear magnetons)

  Atom         1           2           3           4
 IAtWgt=          12           1           1           1
 AtmWgt=  12.0000000   1.0078250   1.0078250   1.0078250
 NucSpn=           0           1           1           1
 AtZEff=   0.0000000   0.0000000   0.0000000   0.0000000
 NQMom=    0.0000000   0.0000000   0.0000000   0.0000000
 NMagM=    0.0000000   2.7928460   2.7928460   2.7928460
 Leave Link  101 at Sat Jun 12 22:35:11 2010, MaxMem=   33554432 cpu:       0.0
 (Enter /mf/frisch/g09/l103.exe)

 GradGradGradGradGradGradGradGradGradGradGradGradGradGradGradGradGradGrad
 Berny optimization.
 Initialization pass.
                       ----------------------------
                       !    Initial Parameters    !
                       ! (Angstroms and Degrees)  !
 ----------------------                            ----------------------
 !      Name          Value   Derivative information (Atomic Units)     !
 ------------------------------------------------------------------------
 !        R          1.0705   estimate D2E/DX2                          !
 !        A         90.0838   estimate D2E/DX2                          !
 ------------------------------------------------------------------------
 Trust Radius=3.00D-01 FncErr=1.00D-07 GrdErr=1.00D-07
 Number of steps in this run=      2 maximum allowed number of steps=      2.
 GradGradGradGradGradGradGradGradGradGradGradGradGradGradGradGradGradGrad

 Leave Link  103 at Sat Jun 12 22:35:11 2010, MaxMem=   33554432 cpu:       0.0
 (Enter /mf/frisch/g09/l202.exe)
                          Input orientation:                          
 ---------------------------------------------------------------------
 Center     Atomic      Atomic             Coordinates (Angstroms)
 Number     Number       Type             X           Y           Z
 ---------------------------------------------------------------------
      1          6           0        0.000000    0.000000    0.000000
      2          1           0        1.070459    0.000000   -0.001566
      3          1           0       -0.535229   -0.927045   -0.001566
      4          1           0       -0.535229    0.927045   -0.001566
 ---------------------------------------------------------------------
                    Distance matrix (angstroms):
                    1          2          3          4
     1  C    0.000000
     2  H    1.070460   0.000000
     3  H    1.070460   1.854089   0.000000
     4  H    1.070460   1.854089   1.854089   0.000000
 Stoichiometry    CH3(2)
 Framework group  C3V[C3(C),3SGV(H)]
 Deg. of freedom     2
 Full point group                 C3V     NOp   6
 Largest Abelian subgroup         CS      NOp   2
 Largest concise Abelian subgroup CS      NOp   2
                         Standard orientation:                         
 ---------------------------------------------------------------------
 Center     Atomic      Atomic             Coordinates (Angstroms)
 Number     Number       Type             X           Y           Z
 ---------------------------------------------------------------------
      1          6           0        0.000000    0.000000    0.000522
      2          1           0        0.000000    1.070459   -0.001044
      3          1           0        0.927045   -0.535229   -0.001044
      4          1           0       -0.927045   -0.535229   -0.001044
 ---------------------------------------------------------------------
 Rotational constants (GHZ):    291.7422654    291.7422654    145.8716317
 Leave Link  202 at Sat Jun 12 22:35:11 2010, MaxMem=   33554432 cpu:       0.0
 (Enter /mf/frisch/g09/l301.exe)
 Standard basis: 4-31G (6D, 7F)
 Ernie: Thresh=  0.10000D-02 Tol=  0.10000D-05 Strict=F.
 There are    11 symmetry adapted basis functions of A'  symmetry.
 There are     4 symmetry adapted basis functions of A"  symmetry.
 Integral buffers will be    131072 words long.
 Raffenetti 2 integral format.
 Two-electron integral symmetry is turned on.
    15 basis functions,    32 primitive gaussians,    15 cartesian basis functions
     5 alpha electrons        4 beta electrons
       nuclear repulsion energy         9.7544537371 Hartrees.
 IExCor=    0 DFT=F Ex=HF Corr=None ExCW=0 ScaHFX=  1.000000
 ScaDFX=  1.000000  1.000000  1.000000  1.000000 ScalE2=  1.000000  1.000000
 IRadAn=      0 IRanWt=     -1 IRanGd=            0 ICorTp=0
 NAtoms=    4 NActive=    4 NUniq=    2 SFac= 4.00D+00 NAtFMM=   50 NAOKFM=F Big=F
 Leave Link  301 at Sat Jun 12 22:35:11 2010, MaxMem=   33554432 cpu:       0.0
 (Enter /mf/frisch/g09/l302.exe)
 NPDir=0 NMtPBC=     1 NCelOv=     1 NCel=       1 NClECP=     1 NCelD=      1
         NCelK=      1 NCelE2=     1 NClLst=     1 CellRange=     0.0.
 One-electron integrals computed using PRISM.
 One-electron integral symmetry used in STVInt
 NBasis=    15 RedAO= T  NBF=    11     4
 NBsUse=    15 1.00D-06 NBFU=    11     4
 Leave Link  302 at Sat Jun 12 22:35:11 2010, MaxMem=   33554432 cpu:       0.0
 (Enter /mf/frisch/g09/l303.exe)
 DipDrv:  MaxL=1.
 Leave Link  303 at Sat Jun 12 22:35:12 2010, MaxMem=   33554432 cpu:       0.0
 (Enter /mf/frisch/g09/l311.exe)
 Out2e will use a cutoff of  1.00D-10
 Standard cutoffs selected in Shell.
         3638 integrals produced for a total of         3638.
 Shell:  FmtGen was called     1494 times.
 Leave Link  311 at Sat Jun 12 22:35:12 2010, MaxMem=   33554432 cpu:       0.0
 (Enter /mf/frisch/g09/l314.exe)
 Phoenix requires     263168 words of memory.
 Out2e will use a cutoff of  1.00D-10
 Phenix exits -- no d or f functions.
            0 integrals produced for a total of         3638.
 PHOENIX SHELL PASSES=       0  NUMBER PROCESSED=       0
          FAST PASSES=       0
 Leave Link  314 at Sat Jun 12 22:35:12 2010, MaxMem=   33554432 cpu:       0.0
 (Enter /mf/frisch/g09/l401.exe)
 Harris functional with IExCor=  205 diagonalized for initial guess.
 ExpMin= 1.61D-01 ExpMax= 4.87D+02 ExpMxC= 4.87D+02 IAcc=1 IRadAn=         1 AccDes= 0.00D+00
 HarFok:  IExCor=  205 AccDes= 0.00D+00 IRadAn=         1 IDoV= 1
 ScaDFX=  1.000000  1.000000  1.000000  1.000000
 FoFCou: FMM=F IPFlag=           0 FMFlag=      100000 FMFlg1=           0
         NFxFlg=           0 DoJE=T BraDBF=F KetDBF=T FulRan=T
         Omega=  0.000000  0.000000  1.000000  0.000000  0.000000 ICntrl=     500 IOpCl=  0
         NMat0=    1 NMatS0=    1 NMatT0=    0 NMatD0=    1 NMtDS0=    0 NMtDT0=    0
         I1Cent=           4 NGrid=           0.
 Petite list used in FoFCou.
 Harris En= -39.5734843168244    
 Initial guess orbital symmetries:
       Occupied  (A1) (A1) (E) (E) (A1)
       Virtual   (A1) (E) (E) (A1) (E) (E) (A1) (E) (E) (A1)
 The electronic state of the initial guess is 2-A1.
 Leave Link  401 at Sat Jun 12 22:35:12 2010, MaxMem=   33554432 cpu:       0.0
 (Enter /mf/frisch/g09/l502.exe)
 Restricted open shell SCF:
 Requested convergence on RMS density matrix=1.00D-08 within 128 cycles.
 Requested convergence on MAX density matrix=1.00D-06.
 Requested convergence on             energy=1.00D-06.
 No special actions if energy rises.
 Using DIIS extrapolation, IDIIS=  1040.
 Unsorted integral processing.
 Integral symmetry usage will be decided dynamically.
 Two-electron integrals will be kept in memory, NGetB=      154077.
 IEnd=      268046 IEndB=      154077 NGot=    33554432 MDV=    33531427
 LenX=    33269283 LenY=    33268401

 Cycle   1  Pass 1  IDiag  1:
 E= -39.4433685360078    
 DIIS: error= 6.41D-02 at cycle   1 NSaved=   1.
 NSaved= 1 IEnMin= 1 EnMin= -39.4433685360078     IErMin= 1 ErrMin= 6.41D-02
 ErrMax= 6.41D-02 EMaxC= 1.00D-01 BMatC= 6.30D-02 BMatP= 6.30D-02
 IDIUse=3 WtCom= 3.59D-01 WtEn= 6.41D-01
 Coeff-Com:  0.100D+01
 Coeff-En:   0.100D+01
 Coeff:      0.100D+01
 Gap=     0.298 Goal=   None    Shift=    0.000
 GapD=    0.298 DampG=1.000 DampE=0.500 DampFc=0.5000 IDamp=-1.
 Damping current iteration by 5.00D-01
 RMSDP=1.65D-02 MaxDP=1.35D-01              OVMax= 1.10D-01

 Cycle   2  Pass 1  IDiag  1:
 E= -39.4744989534982     Delta-E=       -0.031130417490 Rises=F Damp=T
 DIIS: error= 2.23D-02 at cycle   2 NSaved=   2.
 NSaved= 2 IEnMin= 2 EnMin= -39.4744989534982     IErMin= 2 ErrMin= 2.23D-02
 ErrMax= 2.23D-02 EMaxC= 1.00D-01 BMatC= 8.13D-03 BMatP= 6.30D-02
 IDIUse=3 WtCom= 7.77D-01 WtEn= 2.23D-01
 Coeff-Com: -0.412D+00 0.141D+01
 Coeff-En:   0.000D+00 0.100D+01
 Coeff:     -0.320D+00 0.132D+01
 Gap=     0.330 Goal=   None    Shift=    0.000
 RMSDP=4.64D-03 MaxDP=2.84D-02 DE=-3.11D-02 OVMax= 1.66D-02

 Cycle   3  Pass 1  IDiag  1:
 E= -39.5017140920356     Delta-E=       -0.027215138537 Rises=F Damp=F
 DIIS: error= 2.76D-03 at cycle   3 NSaved=   3.
 NSaved= 3 IEnMin= 3 EnMin= -39.5017140920356     IErMin= 3 ErrMin= 2.76D-03
 ErrMax= 2.76D-03 EMaxC= 1.00D-01 BMatC= 6.20D-05 BMatP= 8.13D-03
 IDIUse=3 WtCom= 9.72D-01 WtEn= 2.76D-02
 Coeff-Com: -0.225D-01 0.161D-01 0.101D+01
 Coeff-En:   0.000D+00 0.000D+00 0.100D+01
 Coeff:     -0.219D-01 0.156D-01 0.101D+01
 Gap=     0.330 Goal=   None    Shift=    0.000
 RMSDP=6.65D-04 MaxDP=5.91D-03 DE=-2.72D-02 OVMax= 1.89D-03

 Cycle   4  Pass 1  IDiag  1:
 E= -39.5017778293687     Delta-E=       -0.000063737333 Rises=F Damp=F
 DIIS: error= 6.08D-04 at cycle   4 NSaved=   4.
 NSaved= 4 IEnMin= 4 EnMin= -39.5017778293687     IErMin= 4 ErrMin= 6.08D-04
 ErrMax= 6.08D-04 EMaxC= 1.00D-01 BMatC= 2.67D-06 BMatP= 6.20D-05
 IDIUse=3 WtCom= 9.94D-01 WtEn= 6.08D-03
 Coeff-Com: -0.608D-03 0.163D-01-0.305D+00 0.129D+01
 Coeff-En:   0.000D+00 0.000D+00 0.000D+00 0.100D+01
 Coeff:     -0.604D-03 0.162D-01-0.303D+00 0.129D+01
 Gap=     0.330 Goal=   None    Shift=    0.000
 RMSDP=1.76D-04 MaxDP=1.81D-03 DE=-6.37D-05 OVMax= 5.72D-04

 Cycle   5  Pass 1  IDiag  1:
 E= -39.5017818414360     Delta-E=       -0.000004012067 Rises=F Damp=F
 DIIS: error= 1.07D-04 at cycle   5 NSaved=   5.
 NSaved= 5 IEnMin= 5 EnMin= -39.5017818414360     IErMin= 5 ErrMin= 1.07D-04
 ErrMax= 1.07D-04 EMaxC= 1.00D-01 BMatC= 5.15D-08 BMatP= 2.67D-06
 IDIUse=3 WtCom= 9.99D-01 WtEn= 1.07D-03
 Coeff-Com: -0.119D-02 0.140D-02 0.208D-01-0.199D+00 0.118D+01
 Coeff-En:   0.000D+00 0.000D+00 0.000D+00 0.000D+00 0.100D+01
 Coeff:     -0.118D-02 0.140D-02 0.208D-01-0.199D+00 0.118D+01
 Gap=     0.330 Goal=   None    Shift=    0.000
 RMSDP=2.43D-05 MaxDP=2.98D-04 DE=-4.01D-06 OVMax= 7.30D-05

 Cycle   6  Pass 1  IDiag  1:
 E= -39.5017819130888     Delta-E=       -0.000000071653 Rises=F Damp=F
 DIIS: error= 1.45D-05 at cycle   6 NSaved=   6.
 NSaved= 6 IEnMin= 6 EnMin= -39.5017819130888     IErMin= 6 ErrMin= 1.45D-05
 ErrMax= 1.45D-05 EMaxC= 1.00D-01 BMatC= 9.57D-10 BMatP= 5.15D-08
 IDIUse=1 WtCom= 1.00D+00 WtEn= 0.00D+00
 Coeff-Com:  0.118D-03 0.449D-03-0.129D-01 0.837D-01-0.401D+00 0.133D+01
 Coeff:      0.118D-03 0.449D-03-0.129D-01 0.837D-01-0.401D+00 0.133D+01
 Gap=     0.330 Goal=   None    Shift=    0.000
 RMSDP=3.08D-06 MaxDP=3.73D-05 DE=-7.17D-08 OVMax= 6.43D-06

 Cycle   7  Pass 1  IDiag  1:
 E= -39.5017819143297     Delta-E=       -0.000000001241 Rises=F Damp=F
 DIIS: error= 3.37D-06 at cycle   7 NSaved=   7.
 NSaved= 7 IEnMin= 7 EnMin= -39.5017819143297     IErMin= 7 ErrMin= 3.37D-06
 ErrMax= 3.37D-06 EMaxC= 1.00D-01 BMatC= 4.64D-11 BMatP= 9.57D-10
 IDIUse=1 WtCom= 1.00D+00 WtEn= 0.00D+00
 Coeff-Com: -0.214D-04 0.891D-04-0.986D-03 0.113D-02 0.170D-01-0.216D+00
 Coeff-Com:  0.120D+01
 Coeff:     -0.214D-04 0.891D-04-0.986D-03 0.113D-02 0.170D-01-0.216D+00
 Coeff:      0.120D+01
 Gap=     0.330 Goal=   None    Shift=    0.000
 RMSDP=6.77D-07 MaxDP=9.16D-06 DE=-1.24D-09 OVMax= 1.43D-06

 Cycle   8  Pass 1  IDiag  1:
 E= -39.5017819143907     Delta-E=       -0.000000000061 Rises=F Damp=F
 DIIS: error= 6.07D-07 at cycle   8 NSaved=   8.
 NSaved= 8 IEnMin= 8 EnMin= -39.5017819143907     IErMin= 8 ErrMin= 6.07D-07
 ErrMax= 6.07D-07 EMaxC= 1.00D-01 BMatC= 1.50D-12 BMatP= 4.64D-11
 IDIUse=1 WtCom= 1.00D+00 WtEn= 0.00D+00
 Coeff-Com: -0.594D-05 0.610D-05 0.958D-04-0.143D-02 0.953D-02-0.547D-01
 Coeff-Com:  0.104D-01 0.104D+01
 Coeff:     -0.594D-05 0.610D-05 0.958D-04-0.143D-02 0.953D-02-0.547D-01
 Coeff:      0.104D-01 0.104D+01
 Gap=     0.330 Goal=   None    Shift=    0.000
 RMSDP=1.28D-07 MaxDP=1.88D-06 DE=-6.10D-11 OVMax= 1.69D-07

 Cycle   9  Pass 1  IDiag  1:
 E= -39.5017819143927     Delta-E=       -0.000000000002 Rises=F Damp=F
 DIIS: error= 3.79D-08 at cycle   9 NSaved=   9.
 NSaved= 9 IEnMin= 9 EnMin= -39.5017819143927     IErMin= 9 ErrMin= 3.79D-08
 ErrMax= 3.79D-08 EMaxC= 1.00D-01 BMatC= 6.33D-15 BMatP= 1.50D-12
 IDIUse=1 WtCom= 1.00D+00 WtEn= 0.00D+00
 Coeff-Com:  0.105D-05-0.206D-05 0.296D-05 0.164D-03-0.156D-02 0.101D-01
 Coeff-Com: -0.247D-01-0.157D+00 0.117D+01
 Coeff:      0.105D-05-0.206D-05 0.296D-05 0.164D-03-0.156D-02 0.101D-01
 Coeff:     -0.247D-01-0.157D+00 0.117D+01
 Gap=     0.330 Goal=   None    Shift=    0.000
 RMSDP=1.35D-08 MaxDP=1.69D-07 DE=-2.03D-12 OVMax= 4.82D-08

 Cycle  10  Pass 1  IDiag  1:
 E= -39.5017819143927     Delta-E=        0.000000000000 Rises=F Damp=F
 DIIS: error= 1.34D-08 at cycle  10 NSaved=  10.
 NSaved=10 IEnMin=10 EnMin= -39.5017819143927     IErMin=10 ErrMin= 1.34D-08
 ErrMax= 1.34D-08 EMaxC= 1.00D-01 BMatC= 7.43D-16 BMatP= 6.33D-15
 IDIUse=1 WtCom= 1.00D+00 WtEn= 0.00D+00
 Coeff-Com: -0.292D-06 0.300D-06 0.419D-05-0.719D-04 0.568D-03-0.294D-02
 Coeff-Com:  0.101D-01 0.551D-01-0.525D+00 0.146D+01
 Coeff:     -0.292D-06 0.300D-06 0.419D-05-0.719D-04 0.568D-03-0.294D-02
 Coeff:      0.101D-01 0.551D-01-0.525D+00 0.146D+01
 Gap=     0.330 Goal=   None    Shift=    0.000
 RMSDP=3.60D-09 MaxDP=5.04D-08 DE=-4.26D-14 OVMax= 9.44D-09

 SCF Done:  E(ROHF) =  -39.5017819144     A.U. after   10 cycles
             Convg  =    0.3598D-08             -V/T =  1.9984
 <Sx>= 0.0000 <Sy>= 0.0000 <Sz>= 0.5000 <S**2>= 0.7500 S= 0.5000
 <L.S>=  0.00000000000    
 KE= 3.956469258765D+01 PE=-1.112335019413D+02 EE= 2.241257370224D+01
 Annihilation of the first spin contaminant:
 S**2 before annihilation     0.7500,   after     0.7500
 Leave Link  502 at Sat Jun 12 22:35:12 2010, MaxMem=   33554432 cpu:       0.0
 (Enter /mf/frisch/g09/l601.exe)
 Copying SCF densities to generalized density rwf, IOpCl= 0 IROHF=1.

 **********************************************************************

            Population analysis using the SCF density.

 **********************************************************************

 Orbital symmetries:
       Occupied  (A1) (A1) (E) (E) (A1)
       Virtual   (A1) (E) (E) (E) (E) (A1) (A1) (E) (E) (A1)
 The electronic state is 2-A1.
 Alpha  occ. eigenvalues --  -11.19109  -0.88451  -0.56659  -0.56659  -0.06559
 Alpha virt. eigenvalues --    0.26409   0.33639   0.33639   0.84678   0.84678
 Alpha virt. eigenvalues --    0.87213   1.00928   1.26283   1.26283   1.35255
     Molecular Orbital Coefficients:
                           1         2         3         4         5
                        (A1)--O   (A1)--O   (E)--O    (E)--O    (A1)--O
     Eigenvalues --   -11.19109  -0.88451  -0.56659  -0.56659  -0.06559
   1 1   C  1S          0.99333  -0.19644   0.00000   0.00000  -0.00040
   2        2S          0.05559   0.33001   0.00000   0.00000   0.00068
   3        2PX         0.00000   0.00000   0.41831   0.00000   0.00000
   4        2PY         0.00000   0.00000   0.00000   0.41831   0.00000
   5        2PZ        -0.00001  -0.00054   0.00000   0.00000   0.55580
   6        3S         -0.03508   0.41807   0.00000   0.00000   0.00193
   7        3PX         0.00000   0.00000   0.22730   0.00000   0.00000
   8        3PY         0.00000   0.00000   0.00000   0.22730   0.00000
   9        3PZ         0.00002  -0.00035   0.00000   0.00000   0.57333
  10 2   H  1S         -0.00148   0.15865   0.00000   0.29246  -0.00029
  11        2S          0.00756   0.05334   0.00000   0.22006  -0.00038
  12 3   H  1S         -0.00148   0.15865   0.25328  -0.14623  -0.00029
  13        2S          0.00756   0.05334   0.19057  -0.11003  -0.00038
  14 4   H  1S         -0.00148   0.15865  -0.25328  -0.14623  -0.00029
  15        2S          0.00756   0.05334  -0.19057  -0.11003  -0.00038
                           6         7         8         9        10
                        (A1)--V   (E)--V    (E)--V    (E)--V    (E)--V
     Eigenvalues --     0.26409   0.33639   0.33639   0.84678   0.84678
   1 1   C  1S         -0.15603   0.00000   0.00000   0.00000   0.00000
   2        2S          0.09047   0.00000   0.00000   0.00000   0.00000
   3        2PX         0.00000  -0.30179   0.00000   0.00000  -0.70902
   4        2PY         0.00000   0.00000  -0.30179  -0.70902   0.00000
   5        2PZ        -0.00063   0.00000   0.00000   0.00000   0.00000
   6        3S          2.24818   0.00000   0.00000   0.00000   0.00000
   7        3PX         0.00000  -1.48022   0.00000   0.00000   1.68220
   8        3PY         0.00000   0.00000  -1.48022   1.68220   0.00000
   9        3PZ        -0.00269   0.00000   0.00000   0.00000   0.00000
  10 2   H  1S         -0.03026   0.00000   0.03740  -0.63522   0.00000
  11        2S         -1.07888   0.00000   1.91760  -0.36466   0.00000
  12 3   H  1S         -0.03026   0.03239  -0.01870   0.31761  -0.55012
  13        2S         -1.07888   1.66069  -0.95880   0.18233  -0.31580
  14 4   H  1S         -0.03026  -0.03239  -0.01870   0.31761   0.55012
  15        2S         -1.07888  -1.66069  -0.95880   0.18233   0.31580
     Alpha Density Matrix:
                           1         2         3         4         5
   1 1   C  1S          1.02529
   2        2S         -0.00961   0.11200
   3        2PX         0.00000   0.00000   0.17498
   4        2PY         0.00000   0.00000   0.00000   0.17498
   5        2PZ        -0.00012   0.00020   0.00000   0.00000   0.30891
   6        3S         -0.11698   0.13602   0.00000   0.00000   0.00084
   7        3PX         0.00000   0.00000   0.09508   0.00000   0.00000
   8        3PY         0.00000   0.00000   0.00000   0.09508   0.00000
   9        3PZ        -0.00014   0.00027   0.00000   0.00000   0.31866
  10 2   H  1S         -0.03264   0.05227   0.00000   0.12234  -0.00025
  11        2S         -0.00297   0.01802   0.00000   0.09205  -0.00024
  12 3   H  1S         -0.03264   0.05227   0.10595  -0.06117  -0.00025
  13        2S         -0.00297   0.01802   0.07972  -0.04603  -0.00024
  14 4   H  1S         -0.03264   0.05227  -0.10595  -0.06117  -0.00025
  15        2S         -0.00297   0.01802  -0.07972  -0.04603  -0.00024
                           6         7         8         9        10
   6        3S          0.17602
   7        3PX         0.00000   0.05167
   8        3PY         0.00000   0.00000   0.05167
   9        3PZ         0.00096   0.00000   0.00000   0.32871
  10 2   H  1S          0.06638   0.00000   0.06648  -0.00022   0.11070
  11        2S          0.02204   0.00000   0.05002  -0.00023   0.07281
  12 3   H  1S          0.06638   0.05757  -0.03324  -0.00022  -0.01759
  13        2S          0.02204   0.04332  -0.02501  -0.00023  -0.02373
  14 4   H  1S          0.06638  -0.05757  -0.03324  -0.00022  -0.01759
  15        2S          0.02204  -0.04332  -0.02501  -0.00023  -0.02373
                          11        12        13        14        15
  11        2S          0.05133
  12 3   H  1S         -0.02373   0.11070
  13        2S         -0.02131   0.07281   0.05133
  14 4   H  1S         -0.02373  -0.01759  -0.02373   0.11070
  15        2S         -0.02131  -0.02373  -0.02131   0.07281   0.05133
     Beta Density Matrix:
                           1         2         3         4         5
   1 1   C  1S          1.02529
   2        2S         -0.00961   0.11200
   3        2PX         0.00000   0.00000   0.17498
   4        2PY         0.00000   0.00000   0.00000   0.17498
   5        2PZ         0.00010  -0.00018   0.00000   0.00000   0.00000
   6        3S         -0.11698   0.13602   0.00000   0.00000  -0.00023
   7        3PX         0.00000   0.00000   0.09508   0.00000   0.00000
   8        3PY         0.00000   0.00000   0.00000   0.09508   0.00000
   9        3PZ         0.00008  -0.00011   0.00000   0.00000   0.00000
  10 2   H  1S         -0.03264   0.05227   0.00000   0.12234  -0.00009
  11        2S         -0.00297   0.01802   0.00000   0.09205  -0.00003
  12 3   H  1S         -0.03264   0.05227   0.10595  -0.06117  -0.00009
  13        2S         -0.00297   0.01802   0.07972  -0.04603  -0.00003
  14 4   H  1S         -0.03264   0.05227  -0.10595  -0.06117  -0.00009
  15        2S         -0.00297   0.01802  -0.07972  -0.04603  -0.00003
                           6         7         8         9        10
   6        3S          0.17602
   7        3PX         0.00000   0.05167
   8        3PY         0.00000   0.00000   0.05167
   9        3PZ        -0.00015   0.00000   0.00000   0.00000
  10 2   H  1S          0.06638   0.00000   0.06648  -0.00006   0.11070
  11        2S          0.02204   0.00000   0.05002  -0.00002   0.07281
  12 3   H  1S          0.06638   0.05757  -0.03324  -0.00006  -0.01759
  13        2S          0.02204   0.04332  -0.02501  -0.00002  -0.02373
  14 4   H  1S          0.06638  -0.05757  -0.03324  -0.00006  -0.01759
  15        2S          0.02204  -0.04332  -0.02501  -0.00002  -0.02373
                          11        12        13        14        15
  11        2S          0.05133
  12 3   H  1S         -0.02373   0.11070
  13        2S         -0.02131   0.07281   0.05133
  14 4   H  1S         -0.02373  -0.01759  -0.02373   0.11070
  15        2S         -0.02131  -0.02373  -0.02131   0.07281   0.05133
    Full Mulliken population analysis:
                           1         2         3         4         5
   1 1   C  1S          2.05059
   2        2S         -0.00366   0.22399
   3        2PX         0.00000   0.00000   0.34996
   4        2PY         0.00000   0.00000   0.00000   0.34996
   5        2PZ         0.00000   0.00000   0.00000   0.00000   0.30891
   6        3S         -0.04319   0.22074   0.00000   0.00000   0.00000
   7        3PX         0.00000   0.00000   0.10813   0.00000   0.00000
   8        3PY         0.00000   0.00000   0.00000   0.10813   0.00000
   9        3PZ         0.00000   0.00000   0.00000   0.00000   0.18119
  10 2   H  1S         -0.00215   0.02844   0.00000   0.08818   0.00000
  11        2S         -0.00053   0.01672   0.00000   0.04543   0.00000
  12 3   H  1S         -0.00215   0.02844   0.06614   0.02205   0.00000
  13        2S         -0.00053   0.01672   0.03407   0.01136   0.00000
  14 4   H  1S         -0.00215   0.02844   0.06614   0.02205   0.00000
  15        2S         -0.00053   0.01672   0.03407   0.01136   0.00000
                           6         7         8         9        10
   6        3S          0.35204
   7        3PX         0.00000   0.10333
   8        3PY         0.00000   0.00000   0.10333
   9        3PZ         0.00000   0.00000   0.00000   0.32871
  10 2   H  1S          0.05104   0.00000   0.07036   0.00000   0.22141
  11        2S          0.03092   0.00000   0.05690   0.00000   0.09586
  12 3   H  1S          0.05104   0.05277   0.01759   0.00000  -0.00047
  13        2S          0.03092   0.04267   0.01422   0.00000  -0.00624
  14 4   H  1S          0.05104   0.05277   0.01759   0.00000  -0.00047
  15        2S          0.03092   0.04267   0.01422   0.00000  -0.00624
                          11        12        13        14        15
  11        2S          0.10266
  12 3   H  1S         -0.00624   0.22141
  13        2S         -0.01584   0.09586   0.10266
  14 4   H  1S         -0.00624  -0.00047  -0.00624   0.22141
  15        2S         -0.01584  -0.00624  -0.01584   0.09586   0.10266
     Gross orbital populations:
                         Total     Alpha     Beta      Spin
   1 1   C  1S          1.99572   0.99786   0.99786   0.00000
   2        2S          0.57657   0.28828   0.28828   0.00000
   3        2PX         0.65851   0.32926   0.32926   0.00000
   4        2PY         0.65851   0.32926   0.32926   0.00000
   5        2PZ         0.49010   0.49010   0.00000   0.49010
   6        3S          0.77546   0.38773   0.38773   0.00000
   7        3PX         0.40234   0.20117   0.20117   0.00000
   8        3PY         0.40234   0.20117   0.20117   0.00000
   9        3PZ         0.50990   0.50990   0.00000   0.50990
  10 2   H  1S          0.53971   0.26986   0.26986   0.00000
  11        2S          0.30380   0.15190   0.15190   0.00000
  12 3   H  1S          0.53971   0.26986   0.26986   0.00000
  13        2S          0.30380   0.15190   0.15190   0.00000
  14 4   H  1S          0.53971   0.26986   0.26986   0.00000
  15        2S          0.30380   0.15190   0.15190   0.00000
          Condensed to atoms (all electrons):
              1          2          3          4
     1  C    5.313491   0.385320   0.385320   0.385320
     2  H    0.385320   0.515783  -0.028793  -0.028793
     3  H    0.385320  -0.028793   0.515783  -0.028793
     4  H    0.385320  -0.028793  -0.028793   0.515783
 Mulliken atomic charges:
              1
     1  C   -0.469450
     2  H    0.156483
     3  H    0.156483
     4  H    0.156483
 Sum of Mulliken atomic charges =   0.00000
 Mulliken charges with hydrogens summed into heavy atoms:
              1
     1  C    0.000000
 Sum of Mulliken charges with hydrogens summed into heavy atoms =   0.00000
          Atomic-Atomic Spin Densities.
              1          2          3          4
     1  C    1.000001   0.000000   0.000000   0.000000
     2  H    0.000000   0.000000   0.000000   0.000000
     3  H    0.000000   0.000000   0.000000   0.000000
     4  H    0.000000   0.000000   0.000000   0.000000
 Mulliken atomic spin densities:
              1
     1  C    1.000000
     2  H    0.000000
     3  H    0.000000
     4  H    0.000000
 Sum of Mulliken atomic spin densities =   1.00000
 Electronic spatial extent (au):  <R**2>=             29.2902
 Charge=              0.0000 electrons
 Dipole moment (field-independent basis, Debye):
    X=              0.0000    Y=              0.0000    Z=             -0.0037  Tot=              0.0037
 Quadrupole moment (field-independent basis, Debye-Ang):
   XX=             -7.1156   YY=             -7.1156   ZZ=             -8.6534
   XY=              0.0000   XZ=              0.0000   YZ=              0.0000
 Traceless Quadrupole moment (field-independent basis, Debye-Ang):
   XX=              0.5126   YY=              0.5126   ZZ=             -1.0252
   XY=              0.0000   XZ=              0.0000   YZ=              0.0000
 Octapole moment (field-independent basis, Debye-Ang**2):
  XXX=              0.0000  YYY=              0.7560  ZZZ=             -0.0043  XYY=              0.0000
  XXY=             -0.7560  XXZ=             -0.0028  XZZ=              0.0000  YZZ=              0.0000
  YYZ=             -0.0028  XYZ=              0.0000
 Hexadecapole moment (field-independent basis, Debye-Ang**3):
 XXXX=            -13.8065 YYYY=            -13.8065 ZZZZ=             -8.7518 XXXY=              0.0000
 XXXZ=              0.0000 YYYX=              0.0000 YYYZ=             -0.0013 ZZZX=              0.0000
 ZZZY=              0.0000 XXYY=             -4.6022 XXZZ=             -4.0656 YYZZ=             -4.0656
 XXYZ=              0.0013 YYXZ=              0.0000 ZZXY=              0.0000
 N-N= 9.754453737064D+00 E-N=-1.639928929716D+02  KE= 5.878045159110D+01
 Symmetry A'   KE= 5.586671638024D+01
 Symmetry A"   KE= 2.913735210862D+00
 Orbital energies and kinetic energies (alpha):
                                 1                 2
   1         (A1)--O         -11.191087         15.990644
   2         (A1)--O          -0.884510          1.282625
   3         (E)--O           -0.566591          0.971245
   4         (E)--O           -0.566591          0.971245
   5         (A1)--O          -0.065592          1.133175
   6         (A1)--V           0.264092          0.921769
   7         (E)--V            0.336385          0.747330
   8         (E)--V            0.336385          0.747330
   9         (E)--V            0.846776          1.670839
  10         (E)--V            0.846776          1.670839
 Total kinetic energy from orbitals= 4.069786716840D+01
                          Isotropic Fermi Contact Couplings
        Atom                 a.u.       MegaHertz       Gauss      10(-4) cm-1
     1  C(13)              0.00001       0.00837       0.00299       0.00279
     2  H(1)               0.00000       0.00063       0.00023       0.00021
     3  H(1)               0.00000       0.00063       0.00023       0.00021
     4  H(1)               0.00000       0.00063       0.00023       0.00021
 --------------------------------------------------------
       Center         ----  Spin Dipole Couplings  ----
                      3XX-RR        3YY-RR        3ZZ-RR
 --------------------------------------------------------
     1   Atom       -0.548145     -0.548145      1.096290
     2   Atom       -0.067548      0.067538      0.000010
     3   Atom        0.033766     -0.033776      0.000010
     4   Atom        0.033766     -0.033776      0.000010
 --------------------------------------------------------
                        XY            XZ            YZ
 --------------------------------------------------------
     1   Atom        0.000000      0.000000      0.000000
     2   Atom        0.000000      0.000000     -0.000173
     3   Atom       -0.058494     -0.000150      0.000086
     4   Atom        0.058494      0.000150      0.000086
 --------------------------------------------------------


 ---------------------------------------------------------------------------------
              Anisotropic Spin Dipole Couplings in Principal Axis System
 ---------------------------------------------------------------------------------

       Atom             a.u.   MegaHertz   Gauss  10(-4) cm-1        Axes

              Baa    -0.5481   -73.556   -26.247   -24.536  1.0000  0.0008  0.0000
     1 C(13)  Bbb    -0.5481   -73.556   -26.247   -24.536 -0.0008  1.0000  0.0000
              Bcc     1.0963   147.112    52.493    49.071  0.0000  0.0000  1.0000
 
              Baa    -0.0675   -36.040   -12.860   -12.022  1.0000  0.0000  0.0000
     2 H(1)   Bbb     0.0000     0.005     0.002     0.002  0.0000  0.0026  1.0000
              Bcc     0.0675    36.035    12.858    12.020  0.0000  1.0000 -0.0026
 
              Baa    -0.0675   -36.040   -12.860   -12.022  0.5000  0.8660  0.0000
     3 H(1)   Bbb     0.0000     0.005     0.002     0.002  0.0022 -0.0013  1.0000
              Bcc     0.0675    36.035    12.858    12.020  0.8660 -0.5000 -0.0026
 
              Baa    -0.0675   -36.040   -12.860   -12.022 -0.5000  0.8660  0.0000
     4 H(1)   Bbb     0.0000     0.005     0.002     0.002 -0.0022 -0.0013  1.0000
              Bcc     0.0675    36.035    12.858    12.020  0.8660  0.5000  0.0026
 

 ---------------------------------------------------------------------------------

 No NMR shielding tensors so no spin-rotation constants.
 Leave Link  601 at Sat Jun 12 22:35:12 2010, MaxMem=   33554432 cpu:       0.0
 (Enter /mf/frisch/g09/l607.exe)
 ******************************Gaussian NBO Version 3.1******************************
             N A T U R A L   A T O M I C   O R B I T A L   A N D
          N A T U R A L   B O N D   O R B I T A L   A N A L Y S I S
 ******************************Gaussian NBO Version 3.1******************************
       /RESON  / : Allow strongly delocalized NBO set

 Analyzing the SCF density

 Job title: Gaussian Test Job 002 (Part 1): METHYL RADICAL,C3V,2-A-1,UHF/4-3

 Storage needed:       789 in NPA (  33554320 available)


 NATURAL POPULATIONS:  Natural atomic orbital occupancies 
                                                          
   NAO  Atom  No  lang   Type(AO)    Occupancy
 --------------------------------------------
     1    C    1  S      Cor( 1S)     1.99948
     2    C    1  S      Val( 2S)     1.19230
     3    C    1  S      Ryd( 3S)     0.00000
     4    C    1  px     Val( 2p)     1.17469
     5    C    1  px     Ryd( 3p)     0.00076
     6    C    1  py     Val( 2p)     1.17469
     7    C    1  py     Ryd( 3p)     0.00076
     8    C    1  pz     Val( 2p)     0.99639
     9    C    1  pz     Ryd( 3p)     0.00360
 
    10    H    2  S      Val( 1S)     0.81880
    11    H    2  S      Ryd( 2S)     0.00030
 
    12    H    3  S      Val( 1S)     0.81880
    13    H    3  S      Ryd( 2S)     0.00030
 
    14    H    4  S      Val( 1S)     0.81880
    15    H    4  S      Ryd( 2S)     0.00030


 Summary of Natural Population Analysis:                  
                                                          
                                       Natural Population 
                Natural  -----------------------------------------------
    Atom  No    Charge         Core      Valence    Rydberg      Total
 -----------------------------------------------------------------------
      C    1   -0.54268      1.99948     4.53807    0.00513     6.54268
      H    2    0.18089      0.00000     0.81880    0.00030     0.81911
      H    3    0.18089      0.00000     0.81880    0.00030     0.81911
      H    4    0.18089      0.00000     0.81880    0.00030     0.81911
 =======================================================================
   * Total *    0.00000      1.99948     6.99448    0.00604     9.00000

                                 Natural Population      
 --------------------------------------------------------
   Core                       1.99948 ( 99.9738% of   2)
   Valence                    6.99448 ( 99.9212% of   7)
   Natural Minimal Basis      8.99396 ( 99.9329% of   9)
   Natural Rydberg Basis      0.00604 (  0.0671% of   9)
 --------------------------------------------------------

    Atom  No          Natural Electron Configuration
 ----------------------------------------------------------------------------
      C    1      [core]2S( 1.19)2p( 3.35)3p( 0.01)
      H    2            1S( 0.82)
      H    3            1S( 0.82)
      H    4            1S( 0.82)


 ***************************************************
 *******         Alpha spin orbitals         *******
 ***************************************************


 NATURAL POPULATIONS:  Natural atomic orbital occupancies 
                                                          
   NAO  Atom  No  lang   Type(AO)    Occupancy
 --------------------------------------------
     1    C    1  S      Cor( 1S)     0.99974
     2    C    1  S      Val( 2S)     0.59615
     3    C    1  S      Ryd( 3S)     0.00000
     4    C    1  px     Val( 2p)     0.58735
     5    C    1  px     Ryd( 3p)     0.00038
     6    C    1  py     Val( 2p)     0.58735
     7    C    1  py     Ryd( 3p)     0.00038
     8    C    1  pz     Val( 2p)     0.99639
     9    C    1  pz     Ryd( 3p)     0.00360
 
    10    H    2  S      Val( 1S)     0.40940
    11    H    2  S      Ryd( 2S)     0.00015
 
    12    H    3  S      Val( 1S)     0.40940
    13    H    3  S      Ryd( 2S)     0.00015
 
    14    H    4  S      Val( 1S)     0.40940
    15    H    4  S      Ryd( 2S)     0.00015


 Summary of Natural Population Analysis:                  
                                                          
                                       Natural Population 
                Natural  -----------------------------------------------
    Atom  No    Charge         Core      Valence    Rydberg      Total
 -----------------------------------------------------------------------
      C    1   -0.77134      0.99974     2.76723    0.00437     3.77134
      H    2    0.09045      0.00000     0.40940    0.00015     0.40955
      H    3    0.09045      0.00000     0.40940    0.00015     0.40955
      H    4    0.09045      0.00000     0.40940    0.00015     0.40955
 =======================================================================
   * Total *   -0.50000      0.99974     3.99544    0.00482     5.00000

                                 Natural Population      
 --------------------------------------------------------
   Core                       0.99974 ( 99.9738% of   1)
   Valence                    3.99544 ( 99.8860% of   4)
   Natural Minimal Basis      4.99518 ( 99.9035% of   5)
   Natural Rydberg Basis      0.00482 (  0.0965% of   5)
 --------------------------------------------------------

    Atom  No          Natural Electron Configuration
 ----------------------------------------------------------------------------
      C    1      [core]2S( 0.60)2p( 2.17)
      H    2            1S( 0.41)
      H    3            1S( 0.41)
      H    4            1S( 0.41)


 NBO analysis skipped by request.


 ***************************************************
 *******         Beta  spin orbitals         *******
 ***************************************************


 NATURAL POPULATIONS:  Natural atomic orbital occupancies 
                                                          
   NAO  Atom  No  lang   Type(AO)    Occupancy
 --------------------------------------------
     1    C    1  S      Cor( 1S)     0.99974
     2    C    1  S      Val( 2S)     0.59615
     3    C    1  S      Ryd( 3S)     0.00000
     4    C    1  px     Val( 2p)     0.58735
     5    C    1  px     Ryd( 3p)     0.00038
     6    C    1  py     Val( 2p)     0.58735
     7    C    1  py     Ryd( 3p)     0.00038
     8    C    1  pz     Val( 2p)     0.00000
     9    C    1  pz     Ryd( 3p)     0.00000
 
    10    H    2  S      Val( 1S)     0.40940
    11    H    2  S      Ryd( 2S)     0.00015
 
    12    H    3  S      Val( 1S)     0.40940
    13    H    3  S      Ryd( 2S)     0.00015
 
    14    H    4  S      Val( 1S)     0.40940
    15    H    4  S      Ryd( 2S)     0.00015


 Summary of Natural Population Analysis:                  
                                                          
                                       Natural Population 
                Natural  -----------------------------------------------
    Atom  No    Charge         Core      Valence    Rydberg      Total
 -----------------------------------------------------------------------
      C    1    0.22866      0.99974     1.77084    0.00076     2.77134
      H    2    0.09045      0.00000     0.40940    0.00015     0.40955
      H    3    0.09045      0.00000     0.40940    0.00015     0.40955
      H    4    0.09045      0.00000     0.40940    0.00015     0.40955
 =======================================================================
   * Total *    0.50000      0.99974     2.99904    0.00122     4.00000

                                 Natural Population      
 --------------------------------------------------------
   Core                       0.99974 ( 99.9738% of   1)
   Valence                    2.99904 ( 99.9681% of   3)
   Natural Minimal Basis      3.99878 ( 99.9695% of   4)
   Natural Rydberg Basis      0.00122 (  0.0305% of   4)
 --------------------------------------------------------

    Atom  No          Natural Electron Configuration
 ----------------------------------------------------------------------------
      C    1      [core]2S( 0.60)2p( 1.17)
      H    2            1S( 0.41)
      H    3            1S( 0.41)
      H    4            1S( 0.41)


 NBO analysis skipped by request.
 Leave Link  607 at Sat Jun 12 22:35:13 2010, MaxMem=   33554432 cpu:       0.0
 (Enter /mf/frisch/g09/l701.exe)
 Compute integral first derivatives.
 ... and contract with generalized density number  0.
 Leave Link  701 at Sat Jun 12 22:35:13 2010, MaxMem=   33554432 cpu:       0.0
 (Enter /mf/frisch/g09/l702.exe)
 L702 exits ... SP integral derivatives will be done elsewhere.
 Leave Link  702 at Sat Jun 12 22:35:13 2010, MaxMem=   33554432 cpu:       0.0
 (Enter /mf/frisch/g09/l703.exe)
 Compute integral first derivatives, UseDBF=F ICtDFT=           0.
 Integral derivatives from FoFDir, PRISM(SPDF).
 Calling FoFJK, ICntrl=      2127 FMM=F ISym2X=1 I1Cent= 0 IOpClX= 1 NMat=1 NMatS=1 NMatT=0.
 FoFCou: FMM=F IPFlag=           0 FMFlag=      100000 FMFlg1=         800
         NFxFlg=           0 DoJE=F BraDBF=F KetDBF=F FulRan=T
         Omega=  0.000000  0.000000  1.000000  0.000000  0.000000 ICntrl=    2127 IOpCl=  1
         NMat0=    1 NMatS0=    1 NMatT0=    0 NMatD0=    1 NMtDS0=    0 NMtDT0=    0
         I1Cent=           0 NGrid=           0.
 Petite list used in FoFCou.
 Leave Link  703 at Sat Jun 12 22:35:13 2010, MaxMem=   33554432 cpu:       1.0
 (Enter /mf/frisch/g09/l716.exe)
 Dipole        =-2.20349887D-16 6.28403579D-16-1.44051891D-03
 ***** Axes restored to original set *****
 -------------------------------------------------------------------
 Center     Atomic                   Forces (Hartrees/Bohr)
 Number     Number              X              Y              Z
 -------------------------------------------------------------------
      1        6           0.000000000    0.000000000   -0.000026246
      2        1          -0.001233156    0.000000000    0.000008749
      3        1           0.000616578    0.001067944    0.000008749
      4        1           0.000616578   -0.001067944    0.000008749
 -------------------------------------------------------------------
 Cartesian Forces:  Max     0.001233156 RMS     0.000616640
 -----------------------------------------------------------------------------------------------
                       Internal Coordinate Forces (Hartree/Bohr or radian)
  Cent   Atom   N1       Length/X         N2         Alpha/Y        N3         Beta/Z          J
 -----------------------------------------------------------------------------------------------
      1  C 
         X        1   0.000000(     1)
      2  H        1  -0.001233(     2)      2  -0.000014(     5)
      3  H        1  -0.001233(     3)      2  -0.000014(     6)      3   0.000000(     8)     0
      4  H        1  -0.001233(     4)      2  -0.000014(     7)      3   0.000000(     9)     0
 -----------------------------------------------------------------------------------------------
 Internal  Forces:  Max     0.001233167 RMS     0.000712016
 Force constants in Cartesian coordinates: 
                1             2             3             4             5 
      1  0.733529D+00
      2  0.000000D+00  0.733529D+00
      3  0.000000D+00  0.000000D+00  0.989724D-01
      4 -0.371719D+00  0.000000D+00  0.495658D-03  0.371719D+00
      5  0.000000D+00 -0.117300D+00  0.000000D+00  0.000000D+00  0.782003D-01
      6  0.715575D-03  0.000000D+00 -0.329908D-01 -0.527840D-03  0.000000D+00
      7 -0.180905D+00 -0.110167D+00 -0.247829D-03  0.000000D+00 -0.338618D-01
      8 -0.110167D+00 -0.308114D+00 -0.429252D-03  0.000000D+00  0.195500D-01
      9 -0.357787D-03 -0.619706D-03 -0.329908D-01  0.160911D-04  0.990985D-04
     10 -0.180905D+00  0.110167D+00 -0.247829D-03  0.000000D+00  0.338618D-01
     11  0.110167D+00 -0.308114D+00  0.429252D-03  0.000000D+00  0.195500D-01
     12 -0.357787D-03  0.619706D-03 -0.329908D-01  0.160911D-04 -0.990985D-04
                6             7             8             9            10 
      6  0.109976D-01
      7 -0.938674D-04  0.151580D+00
      8  0.356139D-04  0.127098D+00  0.298340D+00
      9  0.109966D-01  0.263920D-03  0.457123D-03  0.109976D-01
     10 -0.938674D-04  0.293250D-01 -0.169309D-01  0.777763D-04  0.151580D+00
     11 -0.356139D-04  0.169309D-01 -0.977518D-02  0.634846D-04 -0.127098D+00
     12  0.109966D-01  0.777763D-04 -0.634846D-04  0.109966D-01  0.263920D-03
               11            12 
     11  0.298340D+00
     12 -0.457123D-03  0.109976D-01
 Force constants in internal coordinates: 
                1             2             3             4             5 
      1  0.000000D+00
      2  0.000000D+00  0.371720D+00
      3  0.000000D+00  0.000000D+00  0.371720D+00
      4  0.000000D+00  0.000000D+00  0.000000D+00  0.371720D+00
      5  0.000000D+00  0.000000D+00  0.000000D+00  0.000000D+00  0.449995D-01
      6  0.000000D+00  0.000000D+00  0.000000D+00  0.000000D+00  0.449984D-01
      7  0.000000D+00  0.000000D+00  0.000000D+00  0.000000D+00  0.449984D-01
      8  0.000000D+00  0.000000D+00  0.000000D+00  0.000000D+00 -0.405514D-03
      9  0.000000D+00  0.000000D+00  0.000000D+00  0.000000D+00  0.405514D-03
                6             7             8             9 
      6  0.449995D-01
      7  0.449984D-01  0.449995D-01
      8  0.000000D+00  0.405514D-03  0.319997D+00
      9 -0.405514D-03  0.000000D+00 -0.159999D+00  0.319997D+00
 Leave Link  716 at Sat Jun 12 22:35:13 2010, MaxMem=   33554432 cpu:       0.0
 (Enter /mf/frisch/g09/l103.exe)

 GradGradGradGradGradGradGradGradGradGradGradGradGradGradGradGradGradGrad
 Berny optimization.
 Search for a local minimum.
 Step number   1 out of a maximum of    2
 All quantities printed in internal units (Hartrees-Bohrs-Radians)
 Second derivative matrix not updated -- first step.
 The second derivative matrix:
                           R         A
           R            1.11516
           A            0.00000   0.40499
 ITU=  0
     Eigenvalues ---    0.40499   1.11516
 Angle between quadratic step and forces=   1.14 degrees.
 Linear search not attempted -- first point.
 Variable       Old X    -DE/DX   Delta X   Delta X   Delta X     New X
                                 (Linear)    (Quad)   (Total)
    R         2.02288  -0.00370   0.00000  -0.00332  -0.00332   2.01956
    A         1.57226  -0.00004   0.00000  -0.00010  -0.00010   1.57216
         Item               Value     Threshold  Converged?
 Maximum Force            0.003700     0.000450     NO 
 RMS     Force            0.002616     0.000300     NO 
 Maximum Displacement     0.003317     0.001800     NO 
 RMS     Displacement     0.002347     0.001200     NO 
 Predicted change in Energy=-6.138667D-06
 GradGradGradGradGradGradGradGradGradGradGradGradGradGradGradGradGradGrad

 Leave Link  103 at Sat Jun 12 22:35:13 2010, MaxMem=   33554432 cpu:       0.0
 (Enter /mf/frisch/g09/l9999.exe)

 Test job not archived.
 1\1\GINC-ALTIX\Force\ROHF\4-31G\C1H3(2)\FRISCH\12-Jun-2010\1\\#p rohf/
 4-31g pop=(reg,npa) test force scf=conventional\\Gaussian Test Job 002
  (Part 1): METHYL RADICAL,C3V,2-A-1,UHF/4-31G STRUCTURE using L502\\0,
 2\C\X,1,1.\H,1,R,2,A\H,1,R,2,A,3,120.,0\H,1,R,2,A,3,-120.,0\\R=1.07046
 \A=90.08384\\Version=IA64L-G09RevB.01\State=2-A1\HF=-39.5017819\RMSD=3
 .598e-09\RMSF=6.166e-04\Dipole=0.,0.,-0.0014405\Quadrupole=0.3811032,0
 .3811032,-0.7622064,0.,0.,0.\PG=C03V [C3(C1),3SGV(H1)]\\@


 A MATHEMATICIAN IS A MACHINE FOR TURNING COFFEE INTO THEOREMS.
     -- QUOTED BY PAUL ERDOS
 Job cpu time:  0 days  0 hours  0 minutes  1.0 seconds.
 File lengths (MBytes):  RWF=      5 Int=      1 D2E=      0 Chk=      1 Scr=      1
 Normal termination of Gaussian 09 at Sat Jun 12 22:35:13 2010.
 Initial command:
 /mf/frisch/g09/l1.exe /altix/s0/scratch/Gau-24847.inp -scrdir=/altix/s0/scratch,110gw
 Entering Link 1 = /mf/frisch/g09/l1.exe PID=     24934.
  
 Copyright (c) 1988,1990,1992,1993,1995,1998,2003,2009,2010,
            Gaussian, Inc.  All Rights Reserved.
  
 This is part of the Gaussian(R) 09 program.  It is based on
 the Gaussian(R) 03 system (copyright 2003, Gaussian, Inc.),
 the Gaussian(R) 98 system (copyright 1998, Gaussian, Inc.),
 the Gaussian(R) 94 system (copyright 1995, Gaussian, Inc.),
 the Gaussian 92(TM) system (copyright 1992, Gaussian, Inc.),
 the Gaussian 90(TM) system (copyright 1990, Gaussian, Inc.),
 the Gaussian 88(TM) system (copyright 1988, Gaussian, Inc.),
 the Gaussian 86(TM) system (copyright 1986, Carnegie Mellon
 University), and the Gaussian 82(TM) system (copyright 1983,
 Carnegie Mellon University). Gaussian is a federally registered
 trademark of Gaussian, Inc.
  
 This software contains proprietary and confidential information,
 including trade secrets, belonging to Gaussian, Inc.
  
 This software is provided under written license and may be
 used, copied, transmitted, or stored only in accord with that
 written license.
  
 The following legend is applicable only to US Government
 contracts under FAR:
  
                    RESTRICTED RIGHTS LEGEND
  
 Use, reproduction and disclosure by the US Government is
 subject to restrictions as set forth in subparagraphs (a)
 and (c) of the Commercial Computer Software - Restricted
 Rights clause in FAR 52.227-19.
  
 Gaussian, Inc.
 340 Quinnipiac St., Bldg. 40, Wallingford CT 06492
  
  
 ---------------------------------------------------------------
 Warning -- This program may not be used in any manner that
 competes with the business of Gaussian, Inc. or will provide
 assistance to any competitor of Gaussian, Inc.  The licensee
 of this program is prohibited from giving any competitor of
 Gaussian, Inc. access to this program.  By using this program,
 the user acknowledges that Gaussian, Inc. is engaged in the
 business of creating and licensing software in the field of
 computational chemistry and represents and warrants to the
 licensee that it is not a competitor of Gaussian, Inc. and that
 it will not use this program in any manner prohibited above.
 ---------------------------------------------------------------
  

 Cite this work as:
 Gaussian 09, Revision B.01,
 M. J. Frisch, G. W. Trucks, H. B. Schlegel, G. E. Scuseria, 
 M. A. Robb, J. R. Cheeseman, G. Scalmani, V. Barone, B. Mennucci, 
 G. A. Petersson, H. Nakatsuji, M. Caricato, X. Li, H. P. Hratchian, 
 A. F. Izmaylov, J. Bloino, G. Zheng, J. L. Sonnenberg, M. Hada, 
 M. Ehara, K. Toyota, R. Fukuda, J. Hasegawa, M. Ishida, T. Nakajima, 
 Y. Honda, O. Kitao, H. Nakai, T. Vreven, J. A. Montgomery, Jr., 
 J. E. Peralta, F. Ogliaro, M. Bearpark, J. J. Heyd, E. Brothers, 
 K. N. Kudin, V. N. Staroverov, T. Keith, R. Kobayashi, J. Normand, 
 K. Raghavachari, A. Rendell, J. C. Burant, S. S. Iyengar, J. Tomasi, 
 M. Cossi, N. Rega, J. M. Millam, M. Klene, J. E. Knox, J. B. Cross, 
 V. Bakken, C. Adamo, J. Jaramillo, R. Gomperts, R. E. Stratmann, 
 O. Yazyev, A. J. Austin, R. Cammi, C. Pomelli, J. W. Ochterski, 
 R. L. Martin, K. Morokuma, V. G. Zakrzewski, G. A. Voth, 
 P. Salvador, J. J. Dannenberg, S. Dapprich, A. D. Daniels, 
 O. Farkas, J. B. Foresman, J. V. Ortiz, J. Cioslowski, 
 and D. J. Fox, Gaussian, Inc., Wallingford CT, 2010.
 
 ******************************************
 Gaussian 09:  IA64L-G09RevB.01  8-Jun-2010
                12-Jun-2010 
 ******************************************
 ------------------------
 #p rohf/4-31g test force
 ------------------------
 1/10=7,30=1,38=1/1,3;
 2/12=2,17=6,18=5,40=1/2;
 3/5=1,11=2,16=1,25=1,30=1,71=1,116=101/1,2,3;
 4//1;
 5/5=2,38=5/2;
 6/7=2,8=2,9=2,10=2,28=1/1;
 7/29=1/1,2,3,16;
 1/10=7,30=1/3;
 99//99;
 Leave Link    1 at Sat Jun 12 22:35:13 2010, MaxMem=          0 cpu:       0.0
 (Enter /mf/frisch/g09/l101.exe)
 ----------------------------------------------------------------------
 Gaussian Test Job 002 (Part 2): METHYL RADICAL,C3V,2-A-1,UHF/4-31G STR
 UCTURE using L502 in-core
 ----------------------------------------------------------------------
 Symbolic Z-matrix:
 Charge =  0 Multiplicity = 2
 C
 X                    1     1. 
 H                    1    R        2    A
 H                    1    R        2    A        3     120.     0
 H                    1    R        2    A        3    -120.     0
       Variables:
  R                     1.07046                  
  A                    90.08384                  
 
 NAtoms=      4 NQM=      4 NQMF=      0 NMic=      0 NMicF=      0 NTot=      4.
                    Isotopes and Nuclear Properties:
 (Nuclear quadrupole moments (NQMom) in fm**2, nuclear magnetic moments (NMagM)
  in nuclear magnetons)

  Atom         1           2           3           4
 IAtWgt=          12           1           1           1
 AtmWgt=  12.0000000   1.0078250   1.0078250   1.0078250
 NucSpn=           0           1           1           1
 AtZEff=   0.0000000   0.0000000   0.0000000   0.0000000
 NQMom=    0.0000000   0.0000000   0.0000000   0.0000000
 NMagM=    0.0000000   2.7928460   2.7928460   2.7928460
 Leave Link  101 at Sat Jun 12 22:35:13 2010, MaxMem=   33554432 cpu:       0.0
 (Enter /mf/frisch/g09/l103.exe)

 GradGradGradGradGradGradGradGradGradGradGradGradGradGradGradGradGradGrad
 Berny optimization.
 Initialization pass.
                       ----------------------------
                       !    Initial Parameters    !
                       ! (Angstroms and Degrees)  !
 ----------------------                            ----------------------
 !      Name          Value   Derivative information (Atomic Units)     !
 ------------------------------------------------------------------------
 !        R          1.0705   estimate D2E/DX2                          !
 !        A         90.0838   estimate D2E/DX2                          !
 ------------------------------------------------------------------------
 Trust Radius=3.00D-01 FncErr=1.00D-07 GrdErr=1.00D-07
 Number of steps in this run=      2 maximum allowed number of steps=      2.
 GradGradGradGradGradGradGradGradGradGradGradGradGradGradGradGradGradGrad

 Leave Link  103 at Sat Jun 12 22:35:13 2010, MaxMem=   33554432 cpu:       0.0
 (Enter /mf/frisch/g09/l202.exe)
                          Input orientation:                          
 ---------------------------------------------------------------------
 Center     Atomic      Atomic             Coordinates (Angstroms)
 Number     Number       Type             X           Y           Z
 ---------------------------------------------------------------------
      1          6           0        0.000000    0.000000    0.000000
      2          1           0        1.070459    0.000000   -0.001566
      3          1           0       -0.535229   -0.927045   -0.001566
      4          1           0       -0.535229    0.927045   -0.001566
 ---------------------------------------------------------------------
                    Distance matrix (angstroms):
                    1          2          3          4
     1  C    0.000000
     2  H    1.070460   0.000000
     3  H    1.070460   1.854089   0.000000
     4  H    1.070460   1.854089   1.854089   0.000000
 Stoichiometry    CH3(2)
 Framework group  C3V[C3(C),3SGV(H)]
 Deg. of freedom     2
 Full point group                 C3V     NOp   6
 Largest Abelian subgroup         CS      NOp   2
 Largest concise Abelian subgroup CS      NOp   2
                         Standard orientation:                         
 ---------------------------------------------------------------------
 Center     Atomic      Atomic             Coordinates (Angstroms)
 Number     Number       Type             X           Y           Z
 ---------------------------------------------------------------------
      1          6           0        0.000000    0.000000    0.000522
      2          1           0        0.000000    1.070459   -0.001044
      3          1           0        0.927045   -0.535229   -0.001044
      4          1           0       -0.927045   -0.535229   -0.001044
 ---------------------------------------------------------------------
 Rotational constants (GHZ):    291.7422654    291.7422654    145.8716317
 Leave Link  202 at Sat Jun 12 22:35:13 2010, MaxMem=   33554432 cpu:       0.0
 (Enter /mf/frisch/g09/l301.exe)
 Standard basis: 4-31G (6D, 7F)
 Ernie: Thresh=  0.10000D-02 Tol=  0.10000D-05 Strict=F.
 There are    11 symmetry adapted basis functions of A'  symmetry.
 There are     4 symmetry adapted basis functions of A"  symmetry.
 Integral buffers will be    131072 words long.
 Raffenetti 2 integral format.
 Two-electron integral symmetry is turned on.
    15 basis functions,    32 primitive gaussians,    15 cartesian basis functions
     5 alpha electrons        4 beta electrons
       nuclear repulsion energy         9.7544537371 Hartrees.
 IExCor=    0 DFT=F Ex=HF Corr=None ExCW=0 ScaHFX=  1.000000
 ScaDFX=  1.000000  1.000000  1.000000  1.000000 ScalE2=  1.000000  1.000000
 IRadAn=      0 IRanWt=     -1 IRanGd=            0 ICorTp=0
 NAtoms=    4 NActive=    4 NUniq=    2 SFac= 4.00D+00 NAtFMM=   50 NAOKFM=F Big=F
 Leave Link  301 at Sat Jun 12 22:35:14 2010, MaxMem=   33554432 cpu:       0.0
 (Enter /mf/frisch/g09/l302.exe)
 NPDir=0 NMtPBC=     1 NCelOv=     1 NCel=       1 NClECP=     1 NCelD=      1
         NCelK=      1 NCelE2=     1 NClLst=     1 CellRange=     0.0.
 One-electron integrals computed using PRISM.
 One-electron integral symmetry used in STVInt
 NBasis=    15 RedAO= T  NBF=    11     4
 NBsUse=    15 1.00D-06 NBFU=    11     4
 Leave Link  302 at Sat Jun 12 22:35:14 2010, MaxMem=   33554432 cpu:       0.0
 (Enter /mf/frisch/g09/l303.exe)
 DipDrv:  MaxL=1.
 Leave Link  303 at Sat Jun 12 22:35:14 2010, MaxMem=   33554432 cpu:       0.0
 (Enter /mf/frisch/g09/l401.exe)
 Harris functional with IExCor=  205 diagonalized for initial guess.
 ExpMin= 1.61D-01 ExpMax= 4.87D+02 ExpMxC= 4.87D+02 IAcc=1 IRadAn=         1 AccDes= 0.00D+00
 HarFok:  IExCor=  205 AccDes= 0.00D+00 IRadAn=         1 IDoV= 1
 ScaDFX=  1.000000  1.000000  1.000000  1.000000
 FoFCou: FMM=F IPFlag=           0 FMFlag=      100000 FMFlg1=           0
         NFxFlg=           0 DoJE=T BraDBF=F KetDBF=T FulRan=T
         Omega=  0.000000  0.000000  1.000000  0.000000  0.000000 ICntrl=     500 IOpCl=  0
         NMat0=    1 NMatS0=    1 NMatT0=    0 NMatD0=    1 NMtDS0=    0 NMtDT0=    0
         I1Cent=           4 NGrid=           0.
 Petite list used in FoFCou.
 Harris En= -39.5734843168244    
 Initial guess orbital symmetries:
       Occupied  (A1) (A1) (E) (E) (A1)
       Virtual   (A1) (E) (E) (A1) (E) (E) (A1) (E) (E) (A1)
 The electronic state of the initial guess is 2-A1.
 Leave Link  401 at Sat Jun 12 22:35:14 2010, MaxMem=   33554432 cpu:       0.0
 (Enter /mf/frisch/g09/l502.exe)
 Restricted open shell SCF:
 Requested convergence on RMS density matrix=1.00D-08 within 128 cycles.
 Requested convergence on MAX density matrix=1.00D-06.
 Requested convergence on             energy=1.00D-06.
 No special actions if energy rises.
 Using DIIS extrapolation, IDIIS=  1040.
 Integral symmetry usage will be decided dynamically.
 Keep R1 and R2 ints in memory in canonical form, NReq=837426.
 IEnd=       22885 IEndB=       22885 NGot=    33554432 MDV=    33534102
 LenX=    33534102 LenY=    33533220
 Symmetry not used in FoFDir.
 MinBra= 0 MaxBra= 1 Meth= 1.
 IRaf=       0 NMat=   1 IRICut=       1 DoRegI=T DoRafI=F ISym2E= 0 JSym2E=0.

 Cycle   1  Pass 1  IDiag  1:
 E= -39.4433685360256    
 DIIS: error= 6.41D-02 at cycle   1 NSaved=   1.
 NSaved= 1 IEnMin= 1 EnMin= -39.4433685360256     IErMin= 1 ErrMin= 6.41D-02
 ErrMax= 6.41D-02 EMaxC= 1.00D-01 BMatC= 6.30D-02 BMatP= 6.30D-02
 IDIUse=3 WtCom= 3.59D-01 WtEn= 6.41D-01
 Coeff-Com:  0.100D+01
 Coeff-En:   0.100D+01
 Coeff:      0.100D+01
 Gap=     0.298 Goal=   None    Shift=    0.000
 GapD=    0.298 DampG=1.000 DampE=0.500 DampFc=0.5000 IDamp=-1.
 Damping current iteration by 5.00D-01
 RMSDP=1.65D-02 MaxDP=1.35D-01              OVMax= 1.10D-01

 Cycle   2  Pass 1  IDiag  1:
 E= -39.4744989535389     Delta-E=       -0.031130417513 Rises=F Damp=T
 DIIS: error= 2.23D-02 at cycle   2 NSaved=   2.
 NSaved= 2 IEnMin= 2 EnMin= -39.4744989535389     IErMin= 2 ErrMin= 2.23D-02
 ErrMax= 2.23D-02 EMaxC= 1.00D-01 BMatC= 8.13D-03 BMatP= 6.30D-02
 IDIUse=3 WtCom= 7.77D-01 WtEn= 2.23D-01
 Coeff-Com: -0.412D+00 0.141D+01
 Coeff-En:   0.000D+00 0.100D+01
 Coeff:     -0.320D+00 0.132D+01
 Gap=     0.330 Goal=   None    Shift=    0.000
 RMSDP=4.64D-03 MaxDP=2.84D-02 DE=-3.11D-02 OVMax= 1.66D-02

 Cycle   3  Pass 1  IDiag  1:
 E= -39.5017140920951     Delta-E=       -0.027215138556 Rises=F Damp=F
 DIIS: error= 2.76D-03 at cycle   3 NSaved=   3.
 NSaved= 3 IEnMin= 3 EnMin= -39.5017140920951     IErMin= 3 ErrMin= 2.76D-03
 ErrMax= 2.76D-03 EMaxC= 1.00D-01 BMatC= 6.20D-05 BMatP= 8.13D-03
 IDIUse=3 WtCom= 9.72D-01 WtEn= 2.76D-02
 Coeff-Com: -0.225D-01 0.161D-01 0.101D+01
 Coeff-En:   0.000D+00 0.000D+00 0.100D+01
 Coeff:     -0.219D-01 0.156D-01 0.101D+01
 Gap=     0.330 Goal=   None    Shift=    0.000
 RMSDP=6.65D-04 MaxDP=5.91D-03 DE=-2.72D-02 OVMax= 1.89D-03

 Cycle   4  Pass 1  IDiag  1:
 E= -39.5017778294281     Delta-E=       -0.000063737333 Rises=F Damp=F
 DIIS: error= 6.08D-04 at cycle   4 NSaved=   4.
 NSaved= 4 IEnMin= 4 EnMin= -39.5017778294281     IErMin= 4 ErrMin= 6.08D-04
 ErrMax= 6.08D-04 EMaxC= 1.00D-01 BMatC= 2.67D-06 BMatP= 6.20D-05
 IDIUse=3 WtCom= 9.94D-01 WtEn= 6.08D-03
 Coeff-Com: -0.608D-03 0.163D-01-0.305D+00 0.129D+01
 Coeff-En:   0.000D+00 0.000D+00 0.000D+00 0.100D+01
 Coeff:     -0.604D-03 0.162D-01-0.303D+00 0.129D+01
 Gap=     0.330 Goal=   None    Shift=    0.000
 RMSDP=1.76D-04 MaxDP=1.81D-03 DE=-6.37D-05 OVMax= 5.72D-04

 Cycle   5  Pass 1  IDiag  1:
 E= -39.5017818414955     Delta-E=       -0.000004012067 Rises=F Damp=F
 DIIS: error= 1.07D-04 at cycle   5 NSaved=   5.
 NSaved= 5 IEnMin= 5 EnMin= -39.5017818414955     IErMin= 5 ErrMin= 1.07D-04
 ErrMax= 1.07D-04 EMaxC= 1.00D-01 BMatC= 5.15D-08 BMatP= 2.67D-06
 IDIUse=3 WtCom= 9.99D-01 WtEn= 1.07D-03
 Coeff-Com: -0.119D-02 0.140D-02 0.208D-01-0.199D+00 0.118D+01
 Coeff-En:   0.000D+00 0.000D+00 0.000D+00 0.000D+00 0.100D+01
 Coeff:     -0.118D-02 0.140D-02 0.208D-01-0.199D+00 0.118D+01
 Gap=     0.330 Goal=   None    Shift=    0.000
 RMSDP=2.43D-05 MaxDP=2.98D-04 DE=-4.01D-06 OVMax= 7.30D-05

 Cycle   6  Pass 1  IDiag  1:
 E= -39.5017819131482     Delta-E=       -0.000000071653 Rises=F Damp=F
 DIIS: error= 1.45D-05 at cycle   6 NSaved=   6.
 NSaved= 6 IEnMin= 6 EnMin= -39.5017819131482     IErMin= 6 ErrMin= 1.45D-05
 ErrMax= 1.45D-05 EMaxC= 1.00D-01 BMatC= 9.57D-10 BMatP= 5.15D-08
 IDIUse=1 WtCom= 1.00D+00 WtEn= 0.00D+00
 Coeff-Com:  0.118D-03 0.449D-03-0.129D-01 0.837D-01-0.401D+00 0.133D+01
 Coeff:      0.118D-03 0.449D-03-0.129D-01 0.837D-01-0.401D+00 0.133D+01
 Gap=     0.330 Goal=   None    Shift=    0.000
 RMSDP=3.08D-06 MaxDP=3.73D-05 DE=-7.17D-08 OVMax= 6.43D-06

 Cycle   7  Pass 1  IDiag  1:
 E= -39.5017819143891     Delta-E=       -0.000000001241 Rises=F Damp=F
 DIIS: error= 3.37D-06 at cycle   7 NSaved=   7.
 NSaved= 7 IEnMin= 7 EnMin= -39.5017819143891     IErMin= 7 ErrMin= 3.37D-06
 ErrMax= 3.37D-06 EMaxC= 1.00D-01 BMatC= 4.64D-11 BMatP= 9.57D-10
 IDIUse=1 WtCom= 1.00D+00 WtEn= 0.00D+00
 Coeff-Com: -0.214D-04 0.891D-04-0.986D-03 0.113D-02 0.170D-01-0.216D+00
 Coeff-Com:  0.120D+01
 Coeff:     -0.214D-04 0.891D-04-0.986D-03 0.113D-02 0.170D-01-0.216D+00
 Coeff:      0.120D+01
 Gap=     0.330 Goal=   None    Shift=    0.000
 RMSDP=6.77D-07 MaxDP=9.16D-06 DE=-1.24D-09 OVMax= 1.43D-06

 Cycle   8  Pass 1  IDiag  1:
 E= -39.5017819144501     Delta-E=       -0.000000000061 Rises=F Damp=F
 DIIS: error= 6.07D-07 at cycle   8 NSaved=   8.
 NSaved= 8 IEnMin= 8 EnMin= -39.5017819144501     IErMin= 8 ErrMin= 6.07D-07
 ErrMax= 6.07D-07 EMaxC= 1.00D-01 BMatC= 1.50D-12 BMatP= 4.64D-11
 IDIUse=1 WtCom= 1.00D+00 WtEn= 0.00D+00
 Coeff-Com: -0.594D-05 0.610D-05 0.958D-04-0.143D-02 0.953D-02-0.547D-01
 Coeff-Com:  0.104D-01 0.104D+01
 Coeff:     -0.594D-05 0.610D-05 0.958D-04-0.143D-02 0.953D-02-0.547D-01
 Coeff:      0.104D-01 0.104D+01
 Gap=     0.330 Goal=   None    Shift=    0.000
 RMSDP=1.28D-07 MaxDP=1.88D-06 DE=-6.10D-11 OVMax= 1.69D-07

 Cycle   9  Pass 1  IDiag  1:
 E= -39.5017819144521     Delta-E=       -0.000000000002 Rises=F Damp=F
 DIIS: error= 3.79D-08 at cycle   9 NSaved=   9.
 NSaved= 9 IEnMin= 9 EnMin= -39.5017819144521     IErMin= 9 ErrMin= 3.79D-08
 ErrMax= 3.79D-08 EMaxC= 1.00D-01 BMatC= 6.33D-15 BMatP= 1.50D-12
 IDIUse=1 WtCom= 1.00D+00 WtEn= 0.00D+00
 Coeff-Com:  0.105D-05-0.206D-05 0.296D-05 0.164D-03-0.156D-02 0.101D-01
 Coeff-Com: -0.247D-01-0.157D+00 0.117D+01
 Coeff:      0.105D-05-0.206D-05 0.296D-05 0.164D-03-0.156D-02 0.101D-01
 Coeff:     -0.247D-01-0.157D+00 0.117D+01
 Gap=     0.330 Goal=   None    Shift=    0.000
 RMSDP=1.35D-08 MaxDP=1.69D-07 DE=-2.02D-12 OVMax= 4.82D-08

 Cycle  10  Pass 1  IDiag  1:
 E= -39.5017819144521     Delta-E=        0.000000000000 Rises=F Damp=F
 DIIS: error= 1.34D-08 at cycle  10 NSaved=  10.
 NSaved=10 IEnMin=10 EnMin= -39.5017819144521     IErMin=10 ErrMin= 1.34D-08
 ErrMax= 1.34D-08 EMaxC= 1.00D-01 BMatC= 7.43D-16 BMatP= 6.33D-15
 IDIUse=1 WtCom= 1.00D+00 WtEn= 0.00D+00
 Coeff-Com: -0.292D-06 0.300D-06 0.419D-05-0.719D-04 0.568D-03-0.294D-02
 Coeff-Com:  0.101D-01 0.551D-01-0.525D+00 0.146D+01
 Coeff:     -0.292D-06 0.300D-06 0.419D-05-0.719D-04 0.568D-03-0.294D-02
 Coeff:      0.101D-01 0.551D-01-0.525D+00 0.146D+01
 Gap=     0.330 Goal=   None    Shift=    0.000
 RMSDP=3.60D-09 MaxDP=5.04D-08 DE=-5.68D-14 OVMax= 9.44D-09

 SCF Done:  E(ROHF) =  -39.5017819145     A.U. after   10 cycles
             Convg  =    0.3598D-08             -V/T =  1.9984
 <Sx>= 0.0000 <Sy>= 0.0000 <Sz>= 0.5000 <S**2>= 0.7500 S= 0.5000
 <L.S>=  0.00000000000    
 KE= 3.956469258683D+01 PE=-1.112335019399D+02 EE= 2.241257370154D+01
 Annihilation of the first spin contaminant:
 S**2 before annihilation     0.7500,   after     0.7500
 Leave Link  502 at Sat Jun 12 22:35:14 2010, MaxMem=   33554432 cpu:       0.0
 (Enter /mf/frisch/g09/l601.exe)
 Copying SCF densities to generalized density rwf, IOpCl= 0 IROHF=1.

 **********************************************************************

            Population analysis using the SCF density.

 **********************************************************************

 Orbital symmetries:
       Occupied  (A1) (A1) (E) (E) (A1)
       Virtual   (A1) (E) (E) (E) (E) (A1) (A1) (E) (E) (A1)
 The electronic state is 2-A1.
 Alpha  occ. eigenvalues --  -11.19109  -0.88451  -0.56659  -0.56659  -0.06559
 Alpha virt. eigenvalues --    0.26409   0.33639   0.33639   0.84678   0.84678
 Alpha virt. eigenvalues --    0.87213   1.00928   1.26283   1.26283   1.35255
          Condensed to atoms (all electrons):
              1          2          3          4
     1  C    5.313491   0.385320   0.385320   0.385320
     2  H    0.385320   0.515783  -0.028793  -0.028793
     3  H    0.385320  -0.028793   0.515783  -0.028793
     4  H    0.385320  -0.028793  -0.028793   0.515783
 Mulliken atomic charges:
              1
     1  C   -0.469450
     2  H    0.156483
     3  H    0.156483
     4  H    0.156483
 Sum of Mulliken atomic charges =   0.00000
 Mulliken charges with hydrogens summed into heavy atoms:
              1
     1  C    0.000000
 Sum of Mulliken charges with hydrogens summed into heavy atoms =   0.00000
          Atomic-Atomic Spin Densities.
              1          2          3          4
     1  C    1.000001   0.000000   0.000000   0.000000
     2  H    0.000000   0.000000   0.000000   0.000000
     3  H    0.000000   0.000000   0.000000   0.000000
     4  H    0.000000   0.000000   0.000000   0.000000
 Mulliken atomic spin densities:
              1
     1  C    1.000000
     2  H    0.000000
     3  H    0.000000
     4  H    0.000000
 Sum of Mulliken atomic spin densities =   1.00000
 Electronic spatial extent (au):  <R**2>=             29.2902
 Charge=              0.0000 electrons
 Dipole moment (field-independent basis, Debye):
    X=              0.0000    Y=              0.0000    Z=             -0.0037  Tot=              0.0037
 Quadrupole moment (field-independent basis, Debye-Ang):
   XX=             -7.1156   YY=             -7.1156   ZZ=             -8.6534
   XY=              0.0000   XZ=              0.0000   YZ=              0.0000
 Traceless Quadrupole moment (field-independent basis, Debye-Ang):
   XX=              0.5126   YY=              0.5126   ZZ=             -1.0252
   XY=              0.0000   XZ=              0.0000   YZ=              0.0000
 Octapole moment (field-independent basis, Debye-Ang**2):
  XXX=              0.0000  YYY=              0.7560  ZZZ=             -0.0043  XYY=              0.0000
  XXY=             -0.7560  XXZ=             -0.0028  XZZ=              0.0000  YZZ=              0.0000
  YYZ=             -0.0028  XYZ=              0.0000
 Hexadecapole moment (field-independent basis, Debye-Ang**3):
 XXXX=            -13.8065 YYYY=            -13.8065 ZZZZ=             -8.7518 XXXY=              0.0000
 XXXZ=              0.0000 YYYX=              0.0000 YYYZ=             -0.0013 ZZZX=              0.0000
 ZZZY=              0.0000 XXYY=             -4.6022 XXZZ=             -4.0656 YYZZ=             -4.0656
 XXYZ=              0.0013 YYXZ=              0.0000 ZZXY=              0.0000
 N-N= 9.754453737064D+00 E-N=-1.639928929694D+02  KE= 5.878045158984D+01
 Symmetry A'   KE= 5.586671637932D+01
 Symmetry A"   KE= 2.913735210519D+00
                          Isotropic Fermi Contact Couplings
        Atom                 a.u.       MegaHertz       Gauss      10(-4) cm-1
     1  C(13)              0.00001       0.00837       0.00299       0.00279
     2  H(1)               0.00000       0.00063       0.00023       0.00021
     3  H(1)               0.00000       0.00063       0.00023       0.00021
     4  H(1)               0.00000       0.00063       0.00023       0.00021
 --------------------------------------------------------
       Center         ----  Spin Dipole Couplings  ----
                      3XX-RR        3YY-RR        3ZZ-RR
 --------------------------------------------------------
     1   Atom       -0.548145     -0.548145      1.096290
     2   Atom       -0.067548      0.067538      0.000010
     3   Atom        0.033766     -0.033776      0.000010
     4   Atom        0.033766     -0.033776      0.000010
 --------------------------------------------------------
                        XY            XZ            YZ
 --------------------------------------------------------
     1   Atom        0.000000      0.000000      0.000000
     2   Atom        0.000000      0.000000     -0.000173
     3   Atom       -0.058494     -0.000150      0.000086
     4   Atom        0.058494      0.000150      0.000086
 --------------------------------------------------------


 ---------------------------------------------------------------------------------
              Anisotropic Spin Dipole Couplings in Principal Axis System
 ---------------------------------------------------------------------------------

       Atom             a.u.   MegaHertz   Gauss  10(-4) cm-1        Axes

              Baa    -0.5481   -73.556   -26.247   -24.536 -0.6805  0.7328  0.0000
     1 C(13)  Bbb    -0.5481   -73.556   -26.247   -24.536  0.7328  0.6805  0.0000
              Bcc     1.0963   147.112    52.493    49.071  0.0000  0.0000  1.0000
 
              Baa    -0.0675   -36.040   -12.860   -12.022  1.0000  0.0000  0.0000
     2 H(1)   Bbb     0.0000     0.005     0.002     0.002  0.0000  0.0026  1.0000
              Bcc     0.0675    36.035    12.858    12.020  0.0000  1.0000 -0.0026
 
              Baa    -0.0675   -36.040   -12.860   -12.022  0.5000  0.8660  0.0000
     3 H(1)   Bbb     0.0000     0.005     0.002     0.002  0.0022 -0.0013  1.0000
              Bcc     0.0675    36.035    12.858    12.020  0.8660 -0.5000 -0.0026
 
              Baa    -0.0675   -36.040   -12.860   -12.022 -0.5000  0.8660  0.0000
     4 H(1)   Bbb     0.0000     0.005     0.002     0.002 -0.0022 -0.0013  1.0000
              Bcc     0.0675    36.035    12.858    12.020  0.8660  0.5000  0.0026
 

 ---------------------------------------------------------------------------------

 No NMR shielding tensors so no spin-rotation constants.
 Leave Link  601 at Sat Jun 12 22:35:14 2010, MaxMem=   33554432 cpu:       0.0
 (Enter /mf/frisch/g09/l701.exe)
 Compute integral first derivatives.
 ... and contract with generalized density number  0.
 Leave Link  701 at Sat Jun 12 22:35:15 2010, MaxMem=   33554432 cpu:       0.0
 (Enter /mf/frisch/g09/l702.exe)
 L702 exits ... SP integral derivatives will be done elsewhere.
 Leave Link  702 at Sat Jun 12 22:35:15 2010, MaxMem=   33554432 cpu:       0.0
 (Enter /mf/frisch/g09/l703.exe)
 Compute integral first derivatives, UseDBF=F ICtDFT=           0.
 Integral derivatives from FoFDir, PRISM(SPDF).
 Calling FoFJK, ICntrl=      2127 FMM=F ISym2X=1 I1Cent= 0 IOpClX= 1 NMat=1 NMatS=1 NMatT=0.
 FoFCou: FMM=F IPFlag=           0 FMFlag=      100000 FMFlg1=         800
         NFxFlg=           0 DoJE=F BraDBF=F KetDBF=F FulRan=T
         Omega=  0.000000  0.000000  1.000000  0.000000  0.000000 ICntrl=    2127 IOpCl=  1
         NMat0=    1 NMatS0=    1 NMatT0=    0 NMatD0=    1 NMtDS0=    0 NMtDT0=    0
         I1Cent=           0 NGrid=           0.
 Petite list used in FoFCou.
 Leave Link  703 at Sat Jun 12 22:35:15 2010, MaxMem=   33554432 cpu:       1.0
 (Enter /mf/frisch/g09/l716.exe)
 Dipole        =-1.68923125D-16-1.47234655D-16-1.44051890D-03
 ***** Axes restored to original set *****
 -------------------------------------------------------------------
 Center     Atomic                   Forces (Hartrees/Bohr)
 Number     Number              X              Y              Z
 -------------------------------------------------------------------
      1        6           0.000000000    0.000000000   -0.000026246
      2        1          -0.001233156    0.000000000    0.000008749
      3        1           0.000616578    0.001067944    0.000008749
      4        1           0.000616578   -0.001067944    0.000008749
 -------------------------------------------------------------------
 Cartesian Forces:  Max     0.001233156 RMS     0.000616640
 -----------------------------------------------------------------------------------------------
                       Internal Coordinate Forces (Hartree/Bohr or radian)
  Cent   Atom   N1       Length/X         N2         Alpha/Y        N3         Beta/Z          J
 -----------------------------------------------------------------------------------------------
      1  C 
         X        1   0.000000(     1)
      2  H        1  -0.001233(     2)      2  -0.000014(     5)
      3  H        1  -0.001233(     3)      2  -0.000014(     6)      3   0.000000(     8)     0
      4  H        1  -0.001233(     4)      2  -0.000014(     7)      3   0.000000(     9)     0
 -----------------------------------------------------------------------------------------------
 Internal  Forces:  Max     0.001233167 RMS     0.000712016
 Force constants in Cartesian coordinates: 
                1             2             3             4             5 
      1  0.733529D+00
      2  0.000000D+00  0.733529D+00
      3  0.000000D+00  0.000000D+00  0.989724D-01
      4 -0.371719D+00  0.000000D+00  0.495658D-03  0.371719D+00
      5  0.000000D+00 -0.117300D+00  0.000000D+00  0.000000D+00  0.782003D-01
      6  0.715575D-03  0.000000D+00 -0.329908D-01 -0.527840D-03  0.000000D+00
      7 -0.180905D+00 -0.110167D+00 -0.247829D-03  0.000000D+00 -0.338618D-01
      8 -0.110167D+00 -0.308114D+00 -0.429252D-03  0.000000D+00  0.195500D-01
      9 -0.357787D-03 -0.619706D-03 -0.329908D-01  0.160911D-04  0.990985D-04
     10 -0.180905D+00  0.110167D+00 -0.247829D-03  0.000000D+00  0.338618D-01
[...]
 Integral buffers will be    131072 words long.
 Raffenetti 2 integral format.
 Two-electron integral symmetry is turned on.
    15 basis functions,    32 primitive gaussians,    15 cartesian basis functions
     5 alpha electrons        4 beta electrons
       nuclear repulsion energy         9.7544537371 Hartrees.
 IExCor=    0 DFT=F Ex=HF Corr=None ExCW=0 ScaHFX=  1.000000
 ScaDFX=  1.000000  1.000000  1.000000  1.000000 ScalE2=  1.000000  1.000000
 IRadAn=      0 IRanWt=     -1 IRanGd=            0 ICorTp=0
 NAtoms=    4 NActive=    4 NUniq=    2 SFac= 4.00D+00 NAtFMM=   50 NAOKFM=F Big=F
 Leave Link  301 at Sat Jun 12 22:35:34 2010, MaxMem=   33554432 cpu:       0.0
 (Enter /mf/frisch/g09/l302.exe)
 NPDir=0 NMtPBC=     1 NCelOv=     1 NCel=       1 NClECP=     1 NCelD=      1
         NCelK=      1 NCelE2=     1 NClLst=     1 CellRange=     0.0.
 One-electron integrals computed using PRISM.
 One-electron integral symmetry used in STVInt
 NBasis=    15 RedAO= T  NBF=    11     4
 NBsUse=    15 1.00D-06 NBFU=    11     4
 Leave Link  302 at Sat Jun 12 22:35:34 2010, MaxMem=   33554432 cpu:       0.0
 (Enter /mf/frisch/g09/l303.exe)
 DipDrv:  MaxL=1.
 Leave Link  303 at Sat Jun 12 22:35:34 2010, MaxMem=   33554432 cpu:       0.0
 (Enter /mf/frisch/g09/l401.exe)
 Harris functional with IExCor=  205 diagonalized for initial guess.
 ExpMin= 1.61D-01 ExpMax= 4.87D+02 ExpMxC= 4.87D+02 IAcc=1 IRadAn=         1 AccDes= 0.00D+00
 HarFok:  IExCor=  205 AccDes= 0.00D+00 IRadAn=         1 IDoV= 1
 ScaDFX=  1.000000  1.000000  1.000000  1.000000
 FoFCou: FMM=F IPFlag=           0 FMFlag=      100000 FMFlg1=           0
         NFxFlg=           0 DoJE=T BraDBF=F KetDBF=T FulRan=T
         Omega=  0.000000  0.000000  1.000000  0.000000  0.000000 ICntrl=     500 IOpCl=  0
         NMat0=    1 NMatS0=    1 NMatT0=    0 NMatD0=    1 NMtDS0=    0 NMtDT0=    0
         I1Cent=           4 NGrid=           0.
 Petite list used in FoFCou.
 Harris En= -39.5734843168244    
 Initial guess orbital symmetries:
       Occupied  (A1) (A1) (E) (E) (A1)
       Virtual   (A1) (E) (E) (A1) (E) (E) (A1) (E) (E) (A1)
 The electronic state of the initial guess is 2-A1.
 Leave Link  401 at Sat Jun 12 22:35:34 2010, MaxMem=   33554432 cpu:       0.0
 (Enter /mf/frisch/g09/l506.exe)
     Number basis functions... 15     Number of pairs..........  0
     Max no. iterations....... 64     Max no. pair iters.......  0
     Write parameter..........  0     Output print parameter...  0
     OCBSE vector selection...  0     Virtuals selection.......  1
     Extrapolation parameter..  0     Orbital-mix. selection... -1
     Convergence criteria..... 10     Orb-mix. turn on crit....  0
     Extrapolation threshold..  0

 There are  2 symmetry types:
 No    Label       Total   Occupied
  1    A'          11         4
  2    A"           4         1
 Thus, there are  5 orbitals and  15 symmetry functions.
 The spin state is high spin with  1 orbitals.
 OCBSE shell sequence:  1  2

 Shell   Orbitals
   1      1   2   3   5
   2      4

 Orbital-mixing vector lengths =    4    1
 IFreez=    0    0


     HAMILTONIAN INFORMATION FOR EACH SHELL
     OCCUPATION NUMBERS, J AND K COEFFICIENTS, F,AJ AND AK RESP.

       SHELL  1        F -   1.00000000
                      AJ -   2.00000000  1.00000000
                      AK -  -1.00000000 -0.50000000

       SHELL  2        F -   0.50000000
                      AJ -   2.00000000  0.00000000
                      AK -  -1.00000000  0.00000000
 Allocation parameters:
   ISSS=       102     IE=       177  IJunk=       192
 ITrans=       207  IISym=       432 IMxSym=       462
    IDJ=       582    IDK=       702  IHold=      1702
  ICScr=      2704     IH=      2824    INO=      2824
   IEnd=      2943   NGet=        -1
    MDV=  33554432   NMax=         2 LBuf2E=  33551489
  NumDJ=    272948  NTT6D=         2   IndD=       120
   IndJ=       582   IndK=       822 IBuf2E=      1062
  NumDJ=      2944  NTT6D=
 Operator matrices will be formed incrementally for   5 cycles.
 Initial vectors taken from RWF.


     BFNS USED BY EACH OCCUPIED SYM TYPE 

         1  A'       BFNS =  1  2  4  5  6  8  9 10 11 12 13 14 15
         2  A"       BFNS =  3  7 12 13 14 15


     WILL USE  102 MATRIX ELEMENTS OUT OF  120
 Integrals replicated using symmetry in FoFDir.
 MinBra= 0 MaxBra= 1 Meth= 1.
 IRaf=       3 NMat=   2 IRICut=       3 DoRegI=T DoRafI=T ISym2E= 2 JSym2E=2.
 It=   1 E= -49.1978222731     SM=8.51D-08 SO=4.25D-02 ST=4.25D-02
 It=   2 E= -49.2462950242     SM=1.00D-09 SO=1.09D-02 ST=1.09D-02
 It=   3 E= -49.2543689637     SM=6.66D-09 SO=1.69D-03 ST=1.69D-03
 It=   4 E= -49.2558811780     SM=6.75D-10 SO=3.67D-04 ST=3.67D-04
 It=   5 E= -49.2561678948     SM=2.27D-10 SO=6.50D-05 ST=6.50D-05
 It=   6 E= -49.2562226818     SM=3.62D-11 SO=1.31D-05 ST=1.31D-05
 It=   7 E= -49.2562331658     SM=7.77D-12 SO=2.43D-06 ST=2.43D-06
 It=   8 E= -49.2562351749     SM=1.44D-12 SO=4.75D-07 ST=4.75D-07
 It=   9 E= -49.2562355601     SM=2.80D-13 SO=9.01D-08 ST=9.01D-08
 It=  10 E= -49.2562356340     SM=5.40D-14 SO=1.74D-08 ST=1.74D-08
 It=  11 E= -49.2562356482     SM=1.03D-14 SO=3.32D-09 ST=3.32D-09
 It=  12 E= -49.2562356509     SM=2.02D-15 SO=6.40D-10 ST=6.40D-10
 It=  13 E= -49.2562356514     SM=3.26D-16 SO=1.22D-10 ST=1.22D-10
 It=  14 E= -49.2562356515     SM=0.00D+00 SO=2.35D-11 ST=2.35D-11

     Generalized SCF program final output:
     FINAL ENERGIES FOR THIS RUN:
       ELECTRONIC ENERGY.........    -49.2562356515
       NUCLEAR REPULSION ENERGY..      9.7544537371
       TOTAL ENERGY..............    -39.5017819144

     SQCDF = 0.235D-10  CONVERGENCE CRITERION = 0.100D-09
     ITERATION NO =  14  MAX NO ITERATIONS =  64
 IGVBOr: NOrb=  5 NonCor=  1 IStOrb=  0.
        NConf=  1  1  1  2  1
         IOrb=  4
 IGVBOr: NOcc=  1 IRet=  1.
 IGVBOr: NOcc=  2 IRet=  1.
 IGVBOr: NOcc=  3 IRet=  1.
 IGVBOr: NOcc=  4 IRet=  3.
 IGVBOr: NOcc=  5 IRet=  1.

 Shell numbers of reordered occupied orbitals:        1   1   1   1   2
 ILSW ROHF field is now 1.
 Leave Link  506 at Sat Jun 12 22:35:35 2010, MaxMem=   33554432 cpu:       1.0
 (Enter /mf/frisch/g09/l601.exe)
 Copying SCF densities to generalized density rwf, IOpCl= 0 IROHF=1.

 **********************************************************************

            Population analysis using the SCF density.

 **********************************************************************

 Orbital symmetries:
       Occupied  (A1) (A1) (E) (E) (A1)
       Virtual   (A1) (?A) (A1) (?A) (A1) (?A) (A1) (?A) (?A) (?A)
 The electronic state is 2-A1.
 Alpha  occ. eigenvalues --  -11.19411  -0.89889  -0.57002  -0.57002  -0.37761
 Alpha virt. eigenvalues --   -0.05817  -0.00094   0.43522   0.44841   0.63487
 Alpha virt. eigenvalues --    0.83290   0.91800   0.33770   0.84853   1.26457
          Condensed to atoms (all electrons):
              1          2          3          4
     1  C    5.313494   0.385319   0.385319   0.385319
     2  H    0.385319   0.515783  -0.028793  -0.028793
     3  H    0.385319  -0.028793   0.515783  -0.028793
     4  H    0.385319  -0.028793  -0.028793   0.515783
 Mulliken atomic charges:
              1
     1  C   -0.469453
     2  H    0.156484
     3  H    0.156484
     4  H    0.156484
 Sum of Mulliken atomic charges =   0.00000
 Mulliken charges with hydrogens summed into heavy atoms:
              1
     1  C    0.000000
 Sum of Mulliken charges with hydrogens summed into heavy atoms =   0.00000
          Atomic-Atomic Spin Densities.
              1          2          3          4
     1  C    1.000001   0.000000   0.000000   0.000000
     2  H    0.000000   0.000000   0.000000   0.000000
     3  H    0.000000   0.000000   0.000000   0.000000
     4  H    0.000000   0.000000   0.000000   0.000000
 Mulliken atomic spin densities:
              1
     1  C    1.000000
     2  H    0.000000
     3  H    0.000000
     4  H    0.000000
 Sum of Mulliken atomic spin densities =   1.00000
 Electronic spatial extent (au):  <R**2>=             29.2902
 Charge=              0.0000 electrons
 Dipole moment (field-independent basis, Debye):
    X=              0.0000    Y=              0.0000    Z=             -0.0037  Tot=              0.0037
 Quadrupole moment (field-independent basis, Debye-Ang):
   XX=             -7.1156   YY=             -7.1156   ZZ=             -8.6534
   XY=              0.0000   XZ=              0.0000   YZ=              0.0000
 Traceless Quadrupole moment (field-independent basis, Debye-Ang):
   XX=              0.5126   YY=              0.5126   ZZ=             -1.0252
   XY=              0.0000   XZ=              0.0000   YZ=              0.0000
 Octapole moment (field-independent basis, Debye-Ang**2):
  XXX=              0.0000  YYY=              0.7560  ZZZ=             -0.0043  XYY=              0.0000
  XXY=             -0.7560  XXZ=             -0.0028  XZZ=              0.0000  YZZ=              0.0000
  YYZ=             -0.0028  XYZ=              0.0000
 Hexadecapole moment (field-independent basis, Debye-Ang**3):
 XXXX=            -13.8064 YYYY=            -13.8064 ZZZZ=             -8.7518 XXXY=              0.0000
 XXXZ=              0.0000 YYYX=              0.0000 YYYZ=             -0.0013 ZZZX=              0.0000
 ZZZY=              0.0000 XXYY=             -4.6021 XXZZ=             -4.0656 YYZZ=             -4.0656
 XXYZ=              0.0013 YYXZ=              0.0000 ZZXY=              0.0000
 N-N= 9.754453737064D+00 E-N=-1.639929185877D+02  KE= 5.878046309292D+01
 Symmetry A'   KE= 5.586672518836D+01
 Symmetry A"   KE= 2.913737904560D+00
                          Isotropic Fermi Contact Couplings
        Atom                 a.u.       MegaHertz       Gauss      10(-4) cm-1
     1  C(13)              0.00001       0.00837       0.00299       0.00279
     2  H(1)               0.00000       0.00063       0.00023       0.00021
     3  H(1)               0.00000       0.00063       0.00023       0.00021
     4  H(1)               0.00000       0.00063       0.00023       0.00021
 --------------------------------------------------------
       Center         ----  Spin Dipole Couplings  ----
                      3XX-RR        3YY-RR        3ZZ-RR
 --------------------------------------------------------
     1   Atom       -0.548147     -0.548147      1.096293
     2   Atom       -0.067548      0.067538      0.000010
     3   Atom        0.033767     -0.033776      0.000010
     4   Atom        0.033767     -0.033776      0.000010
 --------------------------------------------------------
                        XY            XZ            YZ
 --------------------------------------------------------
     1   Atom        0.000000      0.000000      0.000000
     2   Atom        0.000000      0.000000     -0.000173
     3   Atom       -0.058494     -0.000150      0.000086
     4   Atom        0.058494      0.000150      0.000086
 --------------------------------------------------------


 ---------------------------------------------------------------------------------
              Anisotropic Spin Dipole Couplings in Principal Axis System
 ---------------------------------------------------------------------------------

       Atom             a.u.   MegaHertz   Gauss  10(-4) cm-1        Axes

              Baa    -0.5481   -73.556   -26.247   -24.536  1.0000  0.0000  0.0000
     1 C(13)  Bbb    -0.5481   -73.556   -26.247   -24.536  0.0000  1.0000  0.0000
              Bcc     1.0963   147.112    52.493    49.071  0.0000  0.0000  1.0000
 
              Baa    -0.0675   -36.040   -12.860   -12.022  1.0000  0.0000  0.0000
     2 H(1)   Bbb     0.0000     0.005     0.002     0.002  0.0000  0.0026  1.0000
              Bcc     0.0675    36.035    12.858    12.020  0.0000  1.0000 -0.0026
 
              Baa    -0.0675   -36.040   -12.860   -12.022  0.5000  0.8660  0.0000
     3 H(1)   Bbb     0.0000     0.005     0.002     0.002  0.0022 -0.0013  1.0000
              Bcc     0.0675    36.035    12.858    12.020  0.8660 -0.5000 -0.0026
 
              Baa    -0.0675   -36.040   -12.860   -12.022 -0.5000  0.8660  0.0000
     4 H(1)   Bbb     0.0000     0.005     0.002     0.002 -0.0022 -0.0013  1.0000
              Bcc     0.0675    36.035    12.858    12.020  0.8660  0.5000  0.0026
 

 ---------------------------------------------------------------------------------

 No NMR shielding tensors so no spin-rotation constants.
 Leave Link  601 at Sat Jun 12 22:35:36 2010, MaxMem=   33554432 cpu:       0.0
 (Enter /mf/frisch/g09/l701.exe)
 Compute integral first derivatives.
 ... and contract with generalized density number  0.
 Leave Link  701 at Sat Jun 12 22:35:36 2010, MaxMem=   33554432 cpu:       0.0
 (Enter /mf/frisch/g09/l702.exe)
 L702 exits ... SP integral derivatives will be done elsewhere.
 Leave Link  702 at Sat Jun 12 22:35:36 2010, MaxMem=   33554432 cpu:       0.0
 (Enter /mf/frisch/g09/l703.exe)
 Compute integral first derivatives, UseDBF=F ICtDFT=           0.
 Integral derivatives from FoFDir, PRISM(SPDF).
 Calling FoFJK, ICntrl=      2127 FMM=F ISym2X=1 I1Cent= 0 IOpClX= 1 NMat=1 NMatS=1 NMatT=0.
 FoFCou: FMM=F IPFlag=           0 FMFlag=      100000 FMFlg1=         800
         NFxFlg=           0 DoJE=F BraDBF=F KetDBF=F FulRan=T
         Omega=  0.000000  0.000000  1.000000  0.000000  0.000000 ICntrl=    2127 IOpCl=  1
         NMat0=    1 NMatS0=    1 NMatT0=    0 NMatD0=    1 NMtDS0=    0 NMtDT0=    0
         I1Cent=           0 NGrid=           0.
 Petite list used in FoFCou.
 Leave Link  703 at Sat Jun 12 22:35:36 2010, MaxMem=   33554432 cpu:       1.0
 (Enter /mf/frisch/g09/l716.exe)
 Dipole        =-1.84078534D-16-6.38431519D-10-1.44051456D-03
 ***** Axes restored to original set *****
 -------------------------------------------------------------------
 Center     Atomic                   Forces (Hartrees/Bohr)
 Number     Number              X              Y              Z
 -------------------------------------------------------------------
      1        6           0.000000003    0.000000000   -0.000026241
      2        1          -0.001232875    0.000000000    0.000008747
      3        1           0.000616436    0.001067699    0.000008747
      4        1           0.000616436   -0.001067699    0.000008747
 -------------------------------------------------------------------
 Cartesian Forces:  Max     0.001232875 RMS     0.000616499
 -----------------------------------------------------------------------------------------------
                       Internal Coordinate Forces (Hartree/Bohr or radian)
  Cent   Atom   N1       Length/X         N2         Alpha/Y        N3         Beta/Z          J
 -----------------------------------------------------------------------------------------------
      1  C 
         X        1   0.000000(     1)
      2  H        1  -0.001233(     2)      2  -0.000014(     5)
      3  H        1  -0.001233(     3)      2  -0.000014(     6)      3   0.000000(     8)     0
      4  H        1  -0.001233(     4)      2  -0.000014(     7)      3   0.000000(     9)     0
 -----------------------------------------------------------------------------------------------
 Internal  Forces:  Max     0.001232886 RMS     0.000711853
 Force constants in Cartesian coordinates: 
                1             2             3             4             5 
      1  0.733529D+00
      2  0.000000D+00  0.733529D+00
      3  0.000000D+00  0.000000D+00  0.989724D-01
      4 -0.371719D+00  0.000000D+00  0.495658D-03  0.371719D+00
      5  0.000000D+00 -0.117300D+00  0.000000D+00  0.000000D+00  0.782003D-01
      6  0.715575D-03  0.000000D+00 -0.329908D-01 -0.527840D-03  0.000000D+00
      7 -0.180905D+00 -0.110167D+00 -0.247829D-03  0.000000D+00 -0.338618D-01
      8 -0.110167D+00 -0.308114D+00 -0.429252D-03  0.000000D+00  0.195500D-01
      9 -0.357787D-03 -0.619706D-03 -0.329908D-01  0.160911D-04  0.990985D-04
     10 -0.180905D+00  0.110167D+00 -0.247829D-03  0.000000D+00  0.338618D-01
     11  0.110167D+00 -0.308114D+00  0.429252D-03  0.000000D+00  0.195500D-01
     12 -0.357787D-03  0.619706D-03 -0.329908D-01  0.160911D-04 -0.990985D-04
                6             7             8             9            10 
      6  0.109976D-01
      7 -0.938674D-04  0.151580D+00
      8  0.356139D-04  0.127098D+00  0.298340D+00
      9  0.109966D-01  0.263920D-03  0.457123D-03  0.109976D-01
     10 -0.938674D-04  0.293250D-01 -0.169309D-01  0.777763D-04  0.151580D+00
     11 -0.356139D-04  0.169309D-01 -0.977518D-02  0.634846D-04 -0.127098D+00
     12  0.109966D-01  0.777763D-04 -0.634846D-04  0.109966D-01  0.263920D-03
               11            12 
     11  0.298340D+00
     12 -0.457123D-03  0.109976D-01
 Force constants in internal coordinates: 
                1             2             3             4             5 
      1  0.000000D+00
      2  0.000000D+00  0.371720D+00
      3  0.000000D+00  0.000000D+00  0.371720D+00
      4  0.000000D+00  0.000000D+00  0.000000D+00  0.371720D+00
      5  0.000000D+00  0.000000D+00  0.000000D+00  0.000000D+00  0.449995D-01
      6  0.000000D+00  0.000000D+00  0.000000D+00  0.000000D+00  0.449984D-01
      7  0.000000D+00  0.000000D+00  0.000000D+00  0.000000D+00  0.449984D-01
      8  0.000000D+00  0.000000D+00  0.000000D+00  0.000000D+00 -0.405514D-03
      9  0.000000D+00  0.000000D+00  0.000000D+00  0.000000D+00  0.405514D-03
                6             7             8             9 
      6  0.449995D-01
      7  0.449984D-01  0.449995D-01
      8  0.000000D+00  0.405514D-03  0.319997D+00
      9 -0.405514D-03  0.000000D+00 -0.159999D+00  0.319997D+00
 Leave Link  716 at Sat Jun 12 22:35:36 2010, MaxMem=   33554432 cpu:       0.0
 (Enter /mf/frisch/g09/l103.exe)

 GradGradGradGradGradGradGradGradGradGradGradGradGradGradGradGradGradGrad
 Berny optimization.
 Search for a local minimum.
 Step number   1 out of a maximum of    2
 All quantities printed in internal units (Hartrees-Bohrs-Radians)
 Second derivative matrix not updated -- first step.
 The second derivative matrix:
                           R         A
           R            1.11516
           A            0.00000   0.40499
 ITU=  0
     Eigenvalues ---    0.40499   1.11516
 Angle between quadratic step and forces=   1.14 degrees.
 Linear search not attempted -- first point.
 Variable       Old X    -DE/DX   Delta X   Delta X   Delta X     New X
                                 (Linear)    (Quad)   (Total)
    R         2.02288  -0.00370   0.00000  -0.00332  -0.00332   2.01956
    A         1.57226  -0.00004   0.00000  -0.00010  -0.00010   1.57216
         Item               Value     Threshold  Converged?
 Maximum Force            0.003699     0.000450     NO 
 RMS     Force            0.002616     0.000300     NO 
 Maximum Displacement     0.003317     0.001800     NO 
 RMS     Displacement     0.002346     0.001200     NO 
 Predicted change in Energy=-6.135855D-06
 GradGradGradGradGradGradGradGradGradGradGradGradGradGradGradGradGradGrad

 Leave Link  103 at Sat Jun 12 22:35:36 2010, MaxMem=   33554432 cpu:       0.0
 (Enter /mf/frisch/g09/l9999.exe)

 Test job not archived.
 1\1\GINC-ALTIX\Force\ROHF\4-31G\C1H3(2)\FRISCH\12-Jun-2010\1\\#p gvb(0
 )/4-31g test force scf=noincore iop(5/29=3)\\Gaussian Test Job 002 (Pa
 rt 10) METHYL RADICAL,C3V,2-A-1,UHF/4-31G STRUCTURE, using L506 direct
 , mixed ints\\0,2\C\X,1,1.\H,1,R,2,A\H,1,R,2,A,3,120.,0\H,1,R,2,A,3,-1
 20.,0\\R=1.07046\A=90.08384\\Version=IA64L-G09RevB.01\State=2-A1\HF=-3
 9.5017819\RMSD=0.000e+00\RMSF=6.165e-04\Dipole=0.,0.,-0.0014405\Quadru
 pole=0.3811042,0.3811042,-0.7622084,0.,0.,0.\PG=C03V [C3(C1),3SGV(H1)]
 \\@


 SILVERMAN'S PARADOX - IF MURPHY'S LAW CAN GO WRONG, IT WILL.
 Job cpu time:  0 days  0 hours  0 minutes  2.0 seconds.
 File lengths (MBytes):  RWF=      5 Int=      0 D2E=      0 Chk=      1 Scr=      1
 Normal termination of Gaussian 09 at Sat Jun 12 22:35:36 2010.
