    nwchem, len=6
bench_opt.nw, len=12
 argument  1 = bench_opt.nw
                                         
                                         
 
 
              Northwest Computational Chemistry Package (NWChem) 6.0
              ------------------------------------------------------
 
 
                    Environmental Molecular Sciences Laboratory
                       Pacific Northwest National Laboratory
                                Richland, WA 99352
 
                              Copyright (c) 1994-2010
                       Pacific Northwest National Laboratory
                            Battelle Memorial Institute
 
             NWChem is an open-source computational chemistry package
                        distributed under the terms of the
                      Educational Community License (ECL) 2.0
             A copy of the license is included with this distribution
                              in the LICENSE.TXT file
 
                                  ACKNOWLEDGMENT
                                  --------------

            This software and its documentation were developed at the
            EMSL at Pacific Northwest National Laboratory, a multiprogram
            national laboratory, operated for the U.S. Department of Energy
            by Battelle under Contract Number DE-AC05-76RL01830. Support
            for this work was provided by the Department of Energy Office
            of Biological and Environmental Research, Office of Basic
            Energy Sciences, and the Office of Advanced Scientific Computing.


           Job information
           ---------------

    hostname      = compute-0-7.local
    program       = nwchem
    date          = Thu Jun  9 09:46:49 2011

    compiled      = Fri_May_13_14:09:15_2011
    source        = /sharedscratch/cen1001/nwchem-6.0
    nwchem branch = 6.0
    input         = bench_opt.nw
    prefix        = molecule.
    data base     = ./molecule.db
    status        = startup
    nproc         =        1
    time left     =     -1s



           Memory information
           ------------------

    heap     =   64652961 doubles =    493.3 Mbytes
    stack    =   64652961 doubles =    493.3 Mbytes
    global   =  129305920 doubles =    986.5 Mbytes (distinct from heap & stack)
    total    =  258611842 doubles =   1973.1 Mbytes
    verify   = yes
    hardfail = no 


           Directory information
           ---------------------
 
  0 permanent = .
  0 scratch   = .
 
 
 
 
                                NWChem Input Module
                                -------------------
 
 
                                       Title
                                       -----

 Scaling coordinates for geometry "geometry" by  1.889725989
 (inverse scale =  0.529177249)

 C1  symmetry detected

          ------
          auto-z
          ------
 
 
                             Geometry "geometry" -> ""
                             -------------------------
 
 Output coordinates in angstroms (scale by  1.889725989 to convert to a.u.)
 
  No.       Tag          Charge          X              Y              Z
 ---- ---------------- ---------- -------------- -------------- --------------
    1 C                    6.0000    -1.27344904    -0.30680349     0.17650613
    2 C                    6.0000    -1.25385498     1.15682568    -0.24097159
    3 C                    6.0000    -0.01275741     1.84917394     0.30992751
    4 C                    6.0000     1.27086668     1.15731222    -0.14275194
    5 C                    6.0000     1.26102576    -0.35213828     0.09154592
    6 C                    6.0000    -0.03683816    -1.03720846    -0.33978451
    7 H                    1.0000    -2.17926964    -0.79696398    -0.19907662
    8 H                    1.0000    -1.32457929    -0.38521664     1.27045901
    9 H                    1.0000    -2.15493911     1.66111522     0.12442368
   10 H                    1.0000    -1.26497982     1.23013230    -1.33569448
   11 H                    1.0000    -0.05819099     1.85726294     1.40594980
   12 H                    1.0000     0.00056570     2.89572057    -0.01516532
   13 H                    1.0000     2.12425437     1.59808687     0.38656819
   14 H                    1.0000     1.42712502     1.35648241    -1.20961262
   15 H                    1.0000     1.45145121    -0.56199091     1.15156126
   16 H                    1.0000     2.10181926    -0.80660692    -0.44891176
   17 O                    8.0000    -0.06520375    -2.36772863     0.16414195
   18 H                    1.0000    -0.08218542    -1.09389363    -1.43388774
   19 H                    1.0000     0.75060165    -2.81526886    -0.13657807
 
      Atomic Mass 
      ----------- 
 
      C                 12.000000
      H                  1.007825
      O                 15.994910
 

 Effective nuclear repulsion energy (a.u.)     330.2552362176

            Nuclear Dipole moment (a.u.) 
            ----------------------------
        X                 Y               Z
 ---------------- ---------------- ----------------
     0.0000000000     0.0000000000     0.0000000000
 


                                Z-matrix (autoz)
                                -------- 

 Units are Angstrom for bonds and degrees for angles
 
      Type          Name      I     J     K     L     M      Value
      ----------- --------  ----- ----- ----- ----- ----- ----------
    1 Stretch                  1     2                       1.52213
    2 Stretch                  1     6                       1.52619
    3 Stretch                  1     7                       1.09628
    4 Stretch                  1     8                       1.09795
    5 Stretch                  2     3                       1.52419
    6 Stretch                  2     9                       1.09534
    7 Stretch                  2    10                       1.09723
    8 Stretch                  3     4                       1.52685
    9 Stretch                  3    11                       1.09699
   10 Stretch                  3    12                       1.09596
   11 Stretch                  4     5                       1.52756
   12 Stretch                  4    13                       1.09669
   13 Stretch                  4    14                       1.09648
   14 Stretch                  5     6                       1.52965
   15 Stretch                  5    15                       1.09724
   16 Stretch                  5    16                       1.09798
   17 Stretch                  6    17                       1.42304
   18 Stretch                  6    18                       1.09651
   19 Stretch                 17    19                       0.97789
   20 Bend                     1     2     3               110.37306
   21 Bend                     1     2     9               109.91438
   22 Bend                     1     2    10               109.74029
   23 Bend                     1     6     5               112.19474
   24 Bend                     1     6    17               108.15094
   25 Bend                     1     6    18               109.19455
   26 Bend                     2     1     6               110.91448
   27 Bend                     2     1     7               110.27947
   28 Bend                     2     1     8               110.03204
   29 Bend                     2     3     4               111.81218
   30 Bend                     2     3    11               109.31385
   31 Bend                     2     3    12               109.66052
   32 Bend                     3     2     9               109.88635
   33 Bend                     3     2    10               109.78665
   34 Bend                     3     4     5               113.38250
   35 Bend                     3     4    13               109.20646
   36 Bend                     3     4    14               109.02418
   37 Bend                     4     3    11               109.53461
   38 Bend                     4     3    12               109.54431
   39 Bend                     4     5     6               113.87663
   40 Bend                     4     5    15               109.63624
   41 Bend                     4     5    16               109.18224
   42 Bend                     5     4    13               109.15546
   43 Bend                     5     4    14               109.24730
   44 Bend                     5     6    17               109.62136
   45 Bend                     5     6    18               109.85275
   46 Bend                     6     1     7               109.85348
   47 Bend                     6     1     8               109.91400
   48 Bend                     6     5    15               109.51240
   49 Bend                     6     5    16               108.99913
   50 Bend                     6    17    19               107.60049
   51 Bend                     7     1     8               105.72020
   52 Bend                     9     2    10               107.08125
   53 Bend                    11     3    12               106.84770
   54 Bend                    13     4    14               106.60154
   55 Bend                    15     5    16               105.27595
   56 Bend                    17     6    18               107.70910
   57 Torsion                  1     2     3     4          57.08530
   58 Torsion                  1     2     3    11         -64.37465
   59 Torsion                  1     2     3    12         178.79581
   60 Torsion                  1     6     5     4         -47.80162
   61 Torsion                  1     6     5    15          75.34262
   62 Torsion                  1     6     5    16        -169.97191
   63 Torsion                  1     6    17    19        -177.39804
   64 Torsion                  2     1     6     5          54.75755
   65 Torsion                  2     1     6    17         175.78300
   66 Torsion                  2     1     6    18         -67.27514
   67 Torsion                  2     3     4     5         -50.14323
   68 Torsion                  2     3     4    13        -172.09371
   69 Torsion                  2     3     4    14          71.79283
   70 Torsion                  3     2     1     6         -59.50458
   71 Torsion                  3     2     1     7         178.57083
   72 Torsion                  3     2     1     8          62.32861
   73 Torsion                  3     4     5     6          45.58414
   74 Torsion                  3     4     5    15         -77.49258
   75 Torsion                  3     4     5    16         167.65348
   76 Torsion                  4     3     2     9         178.46557
   77 Torsion                  4     3     2    10         -64.01264
   78 Torsion                  4     5     6    17        -167.97646
   79 Torsion                  4     5     6    18          73.85531
   80 Torsion                  5     4     3    11          71.18916
   81 Torsion                  5     4     3    12        -171.92065
   82 Torsion                  5     6     1     7         176.93069
   83 Torsion                  5     6     1     8         -67.14465
   84 Torsion                  5     6    17    19         -54.78795
   85 Torsion                  6     1     2     9         179.13179
   86 Torsion                  6     1     2    10          61.62095
   87 Torsion                  6     5     4    13         167.56305
   88 Torsion                  6     5     4    14         -76.22742
   89 Torsion                  7     1     2     9          57.20720
   90 Torsion                  7     1     2    10         -60.30364
   91 Torsion                  7     1     6    17         -62.04385
   92 Torsion                  7     1     6    18          54.89800
   93 Torsion                  8     1     2     9         -59.03502
   94 Torsion                  8     1     2    10        -176.54586
   95 Torsion                  8     1     6    17          53.88080
   96 Torsion                  8     1     6    18         170.82266
   97 Torsion                  9     2     3    11          57.00562
   98 Torsion                  9     2     3    12         -59.82391
   99 Torsion                 10     2     3    11         174.52741
  100 Torsion                 10     2     3    12          57.69788
  101 Torsion                 11     3     4    13         -50.76131
  102 Torsion                 11     3     4    14        -166.87477
  103 Torsion                 12     3     4    13          66.12888
  104 Torsion                 12     3     4    14         -49.98458
  105 Torsion                 13     4     5    15          44.48633
  106 Torsion                 13     4     5    16         -70.36761
  107 Torsion                 14     4     5    15         160.69587
  108 Torsion                 14     4     5    16          45.84193
  109 Torsion                 15     5     6    17         -44.83221
  110 Torsion                 15     5     6    18        -163.00045
  111 Torsion                 16     5     6    17          69.85325
  112 Torsion                 16     5     6    18         -48.31498
  113 Torsion                 18     6    17    19          64.70469
 
 
            XYZ format geometry
            -------------------
    19
 geometry
 C                    -1.27344904    -0.30680349     0.17650613
 C                    -1.25385498     1.15682568    -0.24097159
 C                    -0.01275741     1.84917394     0.30992751
 C                     1.27086668     1.15731222    -0.14275194
 C                     1.26102576    -0.35213828     0.09154592
 C                    -0.03683816    -1.03720846    -0.33978451
 H                    -2.17926964    -0.79696398    -0.19907662
 H                    -1.32457929    -0.38521664     1.27045901
 H                    -2.15493911     1.66111522     0.12442368
 H                    -1.26497982     1.23013230    -1.33569448
 H                    -0.05819099     1.85726294     1.40594980
 H                     0.00056570     2.89572057    -0.01516532
 H                     2.12425437     1.59808687     0.38656819
 H                     1.42712502     1.35648241    -1.20961262
 H                     1.45145121    -0.56199091     1.15156126
 H                     2.10181926    -0.80660692    -0.44891176
 O                    -0.06520375    -2.36772863     0.16414195
 H                    -0.08218542    -1.09389363    -1.43388774
 H                     0.75060165    -2.81526886    -0.13657807
 
 ==============================================================================
                                internuclear distances
 ------------------------------------------------------------------------------
       center one      |      center two      | atomic units |  angstroms
 ------------------------------------------------------------------------------
    2 C                |   1 C                |     2.87641  |     1.52213
    3 C                |   2 C                |     2.88030  |     1.52419
    4 C                |   3 C                |     2.88534  |     1.52685
    5 C                |   4 C                |     2.88667  |     1.52756
    6 C                |   1 C                |     2.88408  |     1.52619
    6 C                |   5 C                |     2.89061  |     1.52965
    7 H                |   1 C                |     2.07167  |     1.09628
    8 H                |   1 C                |     2.07483  |     1.09795
    9 H                |   2 C                |     2.06990  |     1.09534
   10 H                |   2 C                |     2.07347  |     1.09723
   11 H                |   3 C                |     2.07302  |     1.09699
   12 H                |   3 C                |     2.07106  |     1.09596
   13 H                |   4 C                |     2.07245  |     1.09669
   14 H                |   4 C                |     2.07205  |     1.09648
   15 H                |   5 C                |     2.07348  |     1.09724
   16 H                |   5 C                |     2.07489  |     1.09798
   17 O                |   6 C                |     2.68915  |     1.42304
   18 H                |   6 C                |     2.07210  |     1.09651
   19 H                |  17 O                |     1.84794  |     0.97789
 ------------------------------------------------------------------------------
                         number of included internuclear distances:         19
 ==============================================================================



 ==============================================================================
                                 internuclear angles
 ------------------------------------------------------------------------------
        center 1       |       center 2       |       center 3       |  degrees
 ------------------------------------------------------------------------------
    2 C                |   1 C                |   6 C                |   110.91
    2 C                |   1 C                |   7 H                |   110.28
    2 C                |   1 C                |   8 H                |   110.03
    6 C                |   1 C                |   7 H                |   109.85
    6 C                |   1 C                |   8 H                |   109.91
    7 H                |   1 C                |   8 H                |   105.72
    1 C                |   2 C                |   3 C                |   110.37
    1 C                |   2 C                |   9 H                |   109.91
    1 C                |   2 C                |  10 H                |   109.74
    3 C                |   2 C                |   9 H                |   109.89
    3 C                |   2 C                |  10 H                |   109.79
    9 H                |   2 C                |  10 H                |   107.08
    2 C                |   3 C                |   4 C                |   111.81
    2 C                |   3 C                |  11 H                |   109.31
    2 C                |   3 C                |  12 H                |   109.66
    4 C                |   3 C                |  11 H                |   109.53
    4 C                |   3 C                |  12 H                |   109.54
   11 H                |   3 C                |  12 H                |   106.85
    3 C                |   4 C                |   5 C                |   113.38
    3 C                |   4 C                |  13 H                |   109.21
    3 C                |   4 C                |  14 H                |   109.02
    5 C                |   4 C                |  13 H                |   109.16
    5 C                |   4 C                |  14 H                |   109.25
   13 H                |   4 C                |  14 H                |   106.60
    4 C                |   5 C                |   6 C                |   113.88
    4 C                |   5 C                |  15 H                |   109.64
    4 C                |   5 C                |  16 H                |   109.18
    6 C                |   5 C                |  15 H                |   109.51
    6 C                |   5 C                |  16 H                |   109.00
   15 H                |   5 C                |  16 H                |   105.28
    1 C                |   6 C                |   5 C                |   112.19
    1 C                |   6 C                |  17 O                |   108.15
    1 C                |   6 C                |  18 H                |   109.19
    5 C                |   6 C                |  17 O                |   109.62
    5 C                |   6 C                |  18 H                |   109.85
   17 O                |   6 C                |  18 H                |   107.71
    6 C                |  17 O                |  19 H                |   107.60
 ------------------------------------------------------------------------------
                            number of included internuclear angles:         37
 ==============================================================================



  library name resolved from: .nwchemrc
  library file name is: <
 /usr/local/shared/redhat-5.4/x86_64/NWChem/6.0/data/libraries/>
  


 Summary of "ao basis" -> "" (cartesian)
 ------------------------------------------------------------------------------
       Tag                 Description            Shells   Functions and Types
 ---------------- ------------------------------  ------  ---------------------
 *                           6-31G*                   on all atoms 


 
 
                           NWChem Geometry Optimization
                           ----------------------------
 
 
 
 
                                       Title
 
 
 maximum gradient threshold         (gmax) =   0.000450
 rms gradient threshold             (grms) =   0.000300
 maximum cartesian step threshold   (xmax) =   0.001800
 rms cartesian step threshold       (xrms) =   0.001200
 fixed trust radius                (trust) =   0.300000
 maximum step size to saddle      (sadstp) =   0.100000
 energy precision                  (eprec) =   5.0D-06
 maximum number of steps          (nptopt) =   20
 initial hessian option           (inhess) =    0
 line search option               (linopt) =    1
 hessian update option            (modupd) =    1
 saddle point option              (modsad) =    0
 initial eigen-mode to follow     (moddir) =    0
 initial variable to follow       (vardir) =    0
 follow first negative mode     (firstneg) =    T
 apply conjugacy                    (opcg) =    F
 source of zmatrix                         =   autoz   


          -------------------
          Energy Minimization
          -------------------

 
 Names of Z-matrix variables 
    1              2              3              4              5         
    6              7              8              9             10         
   11             12             13             14             15         
   16             17             18             19             20         
   21             22             23             24             25         
   26             27             28             29             30         
   31             32             33             34             35         
   36             37             38             39             40         
   41             42             43             44             45         
   46             47             48             49             50         
   51             52             53             54             55         
   56             57             58             59             60         
   61             62             63             64             65         
   66             67             68             69             70         
   71             72             73             74             75         
   76             77             78             79             80         
   81             82             83             84             85         
   86             87             88             89             90         
   91             92             93             94             95         
   96             97             98             99            100         
  101            102            103            104            105         
  106            107            108            109            110         
  111            112            113         
 
 Variables with the same non-blank name are constrained to be equal
 
 
 Using diagonal initial Hessian 
 Scaling for Hessian diagonals: bonds = 1.00  angles = 0.25  torsions = 0.10

          --------
          Step   0
          --------
 
 
                         Geometry "geometry" -> "geometry"
                         ---------------------------------
 
 Output coordinates in angstroms (scale by  1.889725989 to convert to a.u.)
 
  No.       Tag          Charge          X              Y              Z
 ---- ---------------- ---------- -------------- -------------- --------------
    1 C                    6.0000    -1.27344904    -0.30680349     0.17650613
    2 C                    6.0000    -1.25385498     1.15682568    -0.24097159
    3 C                    6.0000    -0.01275741     1.84917394     0.30992751
    4 C                    6.0000     1.27086668     1.15731222    -0.14275194
    5 C                    6.0000     1.26102576    -0.35213828     0.09154592
    6 C                    6.0000    -0.03683816    -1.03720846    -0.33978451
    7 H                    1.0000    -2.17926964    -0.79696398    -0.19907662
    8 H                    1.0000    -1.32457929    -0.38521664     1.27045901
    9 H                    1.0000    -2.15493911     1.66111522     0.12442368
   10 H                    1.0000    -1.26497982     1.23013230    -1.33569448
   11 H                    1.0000    -0.05819099     1.85726294     1.40594980
   12 H                    1.0000     0.00056570     2.89572057    -0.01516532
   13 H                    1.0000     2.12425437     1.59808687     0.38656819
   14 H                    1.0000     1.42712502     1.35648241    -1.20961262
   15 H                    1.0000     1.45145121    -0.56199091     1.15156126
   16 H                    1.0000     2.10181926    -0.80660692    -0.44891176
   17 O                    8.0000    -0.06520375    -2.36772863     0.16414195
   18 H                    1.0000    -0.08218542    -1.09389363    -1.43388774
   19 H                    1.0000     0.75060165    -2.81526886    -0.13657807
 
      Atomic Mass 
      ----------- 
 
      C                 12.000000
      H                  1.007825
      O                 15.994910
 

 Effective nuclear repulsion energy (a.u.)     330.2552362176

            Nuclear Dipole moment (a.u.) 
            ----------------------------
        X                 Y               Z
 ---------------- ---------------- ----------------
     0.0000000000     0.0000000000     0.0000000000
 
 
                                 NWChem DFT Module
                                 -----------------
 
 
                                       Title
 
 
                      Basis "ao basis" -> "ao basis" (cartesian)
                      -----
  C (Carbon)
  ----------
            Exponent  Coefficients 
       -------------- ---------------------------------------------------------
  1 S  3.04752490E+03  0.001835
  1 S  4.57369510E+02  0.014037
  1 S  1.03948690E+02  0.068843
  1 S  2.92101550E+01  0.232184
  1 S  9.28666300E+00  0.467941
  1 S  3.16392700E+00  0.362312
 
  2 S  7.86827240E+00 -0.119332
  2 S  1.88128850E+00 -0.160854
  2 S  5.44249300E-01  1.143456
 
  3 P  7.86827240E+00  0.068999
  3 P  1.88128850E+00  0.316424
  3 P  5.44249300E-01  0.744308
 
  4 S  1.68714400E-01  1.000000
 
  5 P  1.68714400E-01  1.000000
 
  6 D  8.00000000E-01  1.000000
 
  H (Hydrogen)
  ------------
            Exponent  Coefficients 
       -------------- ---------------------------------------------------------
  1 S  1.87311370E+01  0.033495
  1 S  2.82539370E+00  0.234727
  1 S  6.40121700E-01  0.813757
 
  2 S  1.61277800E-01  1.000000
 
  O (Oxygen)
  ----------
            Exponent  Coefficients 
       -------------- ---------------------------------------------------------
  1 S  5.48467170E+03  0.001831
  1 S  8.25234950E+02  0.013950
  1 S  1.88046960E+02  0.068445
  1 S  5.29645000E+01  0.232714
  1 S  1.68975700E+01  0.470193
  1 S  5.79963530E+00  0.358521
 
  2 S  1.55396160E+01 -0.110778
  2 S  3.59993360E+00 -0.148026
  2 S  1.01376180E+00  1.130767
 
  3 P  1.55396160E+01  0.070874
  3 P  3.59993360E+00  0.339753
  3 P  1.01376180E+00  0.727159
 
  4 S  2.70005800E-01  1.000000
 
  5 P  2.70005800E-01  1.000000
 
  6 D  8.00000000E-01  1.000000
 


 Summary of "ao basis" -> "ao basis" (cartesian)
 ------------------------------------------------------------------------------
       Tag                 Description            Shells   Functions and Types
 ---------------- ------------------------------  ------  ---------------------
 C                           6-31G*                  6       15   3s2p1d
 H                           6-31G*                  2        2   2s
 O                           6-31G*                  6       15   3s2p1d


  Caching 1-el integrals 
 
            General Information
            -------------------
          SCF calculation type: DFT
          Wavefunction type:  closed shell.
          No. of atoms     :    19
          No. of electrons :    56
           Alpha electrons :    28
            Beta electrons :    28
          Charge           :     0
          Spin multiplicity:     1
          Use of symmetry is: off; symmetry adaption is: off
          Maximum number of iterations:  30
          AO basis - number of functions:   129
                     number of shells:    66
          Convergence on energy requested: 1.00D-06
          Convergence on density requested: 1.00D-05
          Convergence on gradient requested: 5.00D-04
 
              XC Information
              --------------
                         B3LYP Method XC Potential
                     Hartree-Fock (Exact) Exchange  0.200          
                        Slater Exchange Functional  0.800 local    
                    Becke 1988 Exchange Functional  0.720 non-local
              Lee-Yang-Parr Correlation Functional  0.810          
                  VWN I RPA Correlation Functional  0.190 local    
 
             Grid Information
             ----------------
          Grid used for XC integration:  medium    
          Radial quadrature: Mura-Knowles        
          Angular quadrature: Lebedev. 
          Tag              B.-S. Rad. Rad. Pts. Rad. Cut. Ang. Pts.
          ---              ---------- --------- --------- ---------
          C                   0.70       49          11.0       434
          H                   0.35       45          13.0       434
          O                   0.60       49          12.0       434
          Grid pruning is: on 
          Number of quadrature shells:   883
          Spatial weights used:  Erf1
 
          Convergence Information
          -----------------------
          Convergence aids based upon iterative change in 
          total energy or number of iterations. 
          Levelshifting, if invoked, occurs when the 
          HOMO/LUMO gap drops below (HL_TOL): 1.00D-02
          DIIS, if invoked, will attempt to extrapolate 
          using up to (NFOCK): 10 stored Fock matrices.

                    Damping( 0%)  Levelshifting(0.5)       DIIS
                  --------------- ------------------- ---------------
          dE  on:    start            ASAP                start   
          dE off:    2 iters         30 iters            30 iters 

 
      Screening Tolerance Information
      -------------------------------
          Density screening/tol_rho: 1.00D-10
          AO Gaussian exp screening on grid/accAOfunc:  14
          CD Gaussian exp screening on grid/accCDfunc:  20
          XC Gaussian exp screening on grid/accXCfunc:  20
          Schwarz screening/accCoul: 1.00D-08

 
      Superposition of Atomic Density Guess
      -------------------------------------
 
 Sum of atomic energies:        -306.69466759
 
      Non-variational initial energy
      ------------------------------

 Total energy =    -311.619748
 1-e energy   =   -1068.209756
 2-e energy   =     426.334772
 HOMO         =      -0.320279
 LUMO         =       0.118929
 
   Time after variat. SCF:      1.8
   Time prior to 1st pass:      1.8

 Integral file          = ./molecule.aoints.0
 Record size in doubles =  65536        No. of integs per rec  =  43688
 Max. records in memory =   1091        Max. records in file   = 478560
 No. of bits per label  =      8        No. of bits per value  =     64


 #quartets = 2.051D+06 #integrals = 2.895D+07 #direct =  0.0% #cached =100.0%


 Grid_pts file          = ./molecule.gridpts.0
 Record size in doubles =  12289        No. of grid_pts per rec  =   3070
 Max. records in memory =    139        Max. recs in file   =   2552115


           Memory utilization after 1st SCF pass: 
           Heap Space remaining (MW):        0.00                  10
          Stack Space remaining (MW):       64.65            64651752

   convergence    iter        energy       DeltaE   RMS-Dens  Diis-err    time
 ---------------- ----- ----------------- --------- --------- ---------  ------
 d= 0,ls=0.0,diis     1   -310.9919385522 -6.41D+02  9.34D-03  9.58D-01    14.6
 d= 0,ls=0.0,diis     2   -311.0326842033 -4.07D-02  5.61D-03  5.80D-01    20.3
 d= 0,ls=0.0,diis     3   -311.0734119433 -4.07D-02  1.80D-03  1.54D-01    25.9
 d= 0,ls=0.0,diis     4   -311.0872067059 -1.38D-02  3.01D-04  1.82D-03    31.7
 d= 0,ls=0.0,diis     5   -311.0873815286 -1.75D-04  9.20D-05  2.12D-04    37.4
 d= 0,ls=0.0,diis     6   -311.0874065190 -2.50D-05  1.50D-05  5.40D-06    43.1
 d= 0,ls=0.0,diis     7   -311.0874071455 -6.27D-07  3.41D-06  2.48D-07    48.8


         Total DFT energy =     -311.087407145541
      One electron energy =    -1075.024314015946
           Coulomb energy =      479.410838975504
    Exchange-Corr. energy =      -45.729168322650
 Nuclear repulsion energy =      330.255236217551

 Numeric. integr. density =       55.999972478740

     Total iterative time =     47.0s


 
                       DFT Final Molecular Orbital Analysis
                       ------------------------------------
 
 Vector    7  Occ=2.000000D+00  E=-1.017107D+01
              MO Center= -1.3D+00, -3.1D-01,  1.8D-01, r^2= 2.9D-02
   Bfn.  Coefficient  Atom+Function         Bfn.  Coefficient  Atom+Function  
  ----- ------------  ---------------      ----- ------------  ---------------
     1      0.992789   1 C  s         
 
 Vector    8  Occ=2.000000D+00  E=-1.007111D+00
              MO Center=  6.8D-02, -2.2D+00,  2.9D-02, r^2= 6.8D-01
   Bfn.  Coefficient  Atom+Function         Bfn.  Coefficient  Atom+Function  
  ----- ------------  ---------------      ----- ------------  ---------------
   116     -0.440555  17 O  s               112     -0.439660  17 O  s         
   111      0.199767  17 O  s                77     -0.152126   6 C  s         
 
 Vector    9  Occ=2.000000D+00  E=-8.228621D-01
              MO Center= -1.5D-02,  5.6D-01, -7.2D-03, r^2= 2.8D+00
   Bfn.  Coefficient  Atom+Function         Bfn.  Coefficient  Atom+Function  
  ----- ------------  ---------------      ----- ------------  ---------------
    32     -0.181600   3 C  s                17     -0.178802   2 C  s         
    47     -0.175332   4 C  s                 2     -0.155888   1 C  s         
    62     -0.151867   5 C  s         
 
 Vector   10  Occ=2.000000D+00  E=-7.420598D-01
              MO Center=  6.3D-02,  3.7D-01, -2.9D-02, r^2= 3.3D+00
   Bfn.  Coefficient  Atom+Function         Bfn.  Coefficient  Atom+Function  
  ----- ------------  ---------------      ----- ------------  ---------------
    47     -0.206593   4 C  s                62     -0.205158   5 C  s         
     2      0.204933   1 C  s                17      0.193749   2 C  s         
    51     -0.176431   4 C  s                66     -0.173987   5 C  s         
     6      0.169456   1 C  s                21      0.161403   2 C  s         
 
 Vector   11  Occ=2.000000D+00  E=-7.261523D-01
              MO Center=  2.2D-02,  2.5D-01,  1.2D-02, r^2= 3.7D+00
   Bfn.  Coefficient  Atom+Function         Bfn.  Coefficient  Atom+Function  
  ----- ------------  ---------------      ----- ------------  ---------------
    32      0.230754   3 C  s                77     -0.215521   6 C  s         
    36      0.195500   3 C  s                81     -0.181642   6 C  s         
    62     -0.150778   5 C  s         
 
 Vector   12  Occ=2.000000D+00  E=-6.133016D-01
              MO Center=  2.6D-02,  2.4D-01, -5.3D-02, r^2= 4.3D+00
   Bfn.  Coefficient  Atom+Function         Bfn.  Coefficient  Atom+Function  
  ----- ------------  ---------------      ----- ------------  ---------------
    17     -0.206268   2 C  s                21     -0.203629   2 C  s         
    62     -0.193489   5 C  s                66     -0.185738   5 C  s         
 
 Vector   13  Occ=2.000000D+00  E=-5.997300D-01
              MO Center=  8.9D-03,  2.2D-01, -7.5D-03, r^2= 4.5D+00
   Bfn.  Coefficient  Atom+Function         Bfn.  Coefficient  Atom+Function  
  ----- ------------  ---------------      ----- ------------  ---------------
    77      0.207459   6 C  s                32      0.188115   3 C  s         
    36      0.183747   3 C  s                81      0.180754   6 C  s         
    51     -0.165604   4 C  s                47     -0.161941   4 C  s         
     2     -0.156855   1 C  s         
 
 Vector   14  Occ=2.000000D+00  E=-5.490428D-01
              MO Center= -7.6D-02,  3.2D-01, -3.9D-02, r^2= 4.1D+00
   Bfn.  Coefficient  Atom+Function         Bfn.  Coefficient  Atom+Function  
  ----- ------------  ---------------      ----- ------------  ---------------
    80     -0.149929   6 C  pz               21      0.135299   2 C  s         
 
 Vector   15  Occ=2.000000D+00  E=-4.990119D-01
              MO Center= -4.2D-03, -1.2D+00, -7.9D-02, r^2= 3.6D+00
   Bfn.  Coefficient  Atom+Function         Bfn.  Coefficient  Atom+Function  
  ----- ------------  ---------------      ----- ------------  ---------------
   114     -0.317631  17 O  py              113      0.235101  17 O  px        
    79      0.201870   6 C  py              128      0.193013  19 H  s         
    80     -0.170402   6 C  pz              118     -0.161512  17 O  py        
 
 Vector   16  Occ=2.000000D+00  E=-4.737845D-01
              MO Center= -3.3D-02,  1.1D-01, -8.2D-02, r^2= 4.2D+00
   Bfn.  Coefficient  Atom+Function         Bfn.  Coefficient  Atom+Function  
  ----- ------------  ---------------      ----- ------------  ---------------
     3     -0.195196   1 C  px               34      0.194521   3 C  py        
    80     -0.185334   6 C  pz               63      0.176584   5 C  px        
 
 Vector   17  Occ=2.000000D+00  E=-4.440032D-01
              MO Center=  3.6D-01,  1.0D+00,  9.0D-03, r^2= 3.7D+00
   Bfn.  Coefficient  Atom+Function         Bfn.  Coefficient  Atom+Function  
  ----- ------------  ---------------      ----- ------------  ---------------
    50      0.240562   4 C  pz               35      0.230318   3 C  pz        
 
 Vector   18  Occ=2.000000D+00  E=-4.356288D-01
              MO Center= -3.8D-01,  3.7D-01, -2.7D-02, r^2= 3.9D+00
   Bfn.  Coefficient  Atom+Function         Bfn.  Coefficient  Atom+Function  
  ----- ------------  ---------------      ----- ------------  ---------------
    20     -0.249523   2 C  pz                5     -0.218276   1 C  pz        
    65      0.181186   5 C  pz               50      0.152259   4 C  pz        
 
 Vector   19  Occ=2.000000D+00  E=-4.154147D-01
              MO Center=  5.5D-01, -2.2D-01,  2.4D-02, r^2= 4.2D+00
   Bfn.  Coefficient  Atom+Function         Bfn.  Coefficient  Atom+Function  
  ----- ------------  ---------------      ----- ------------  ---------------
   113     -0.254170  17 O  px               49     -0.221115   4 C  py        
    63      0.186139   5 C  px              116      0.174974  17 O  s         
    78     -0.161793   6 C  px              117     -0.157388  17 O  px        
    64      0.155546   5 C  py        
 
 Vector   20  Occ=2.000000D+00  E=-3.846948D-01
              MO Center= -2.3D-01,  1.1D-01,  1.4D-02, r^2= 4.3D+00
   Bfn.  Coefficient  Atom+Function         Bfn.  Coefficient  Atom+Function  
  ----- ------------  ---------------      ----- ------------  ---------------
    79      0.233183   6 C  py              114     -0.223762  17 O  py        
    34      0.205319   3 C  py                3      0.192861   1 C  px        
    48      0.185472   4 C  px               19      0.171594   2 C  py        
 
 Vector   21  Occ=2.000000D+00  E=-3.752332D-01
              MO Center=  1.2D-02,  3.9D-01, -2.5D-02, r^2= 4.1D+00
   Bfn.  Coefficient  Atom+Function         Bfn.  Coefficient  Atom+Function  
  ----- ------------  ---------------      ----- ------------  ---------------
     3      0.221618   1 C  px               48      0.216797   4 C  px        
    63      0.201588   5 C  px               18      0.198395   2 C  px        
    49      0.158599   4 C  py               64     -0.157814   5 C  py        
 
 Vector   22  Occ=2.000000D+00  E=-3.641472D-01
              MO Center= -6.1D-02, -5.8D-02,  2.5D-01, r^2= 4.1D+00
   Bfn.  Coefficient  Atom+Function         Bfn.  Coefficient  Atom+Function  
  ----- ------------  ---------------      ----- ------------  ---------------
    35     -0.228145   3 C  pz              115     -0.226252  17 O  pz        
    65      0.206630   5 C  pz                5      0.188238   1 C  pz        
    19      0.158509   2 C  py        
 
 Vector   23  Occ=2.000000D+00  E=-3.417870D-01
              MO Center= -1.6D-01,  4.2D-01, -2.7D-02, r^2= 4.0D+00
   Bfn.  Coefficient  Atom+Function         Bfn.  Coefficient  Atom+Function  
  ----- ------------  ---------------      ----- ------------  ---------------
    20      0.251205   2 C  pz                5     -0.234138   1 C  pz        
    65      0.213853   5 C  pz               50     -0.197632   4 C  pz        
    97     -0.179918  10 H  s                98     -0.174756  10 H  s         
    93     -0.166059   8 H  s               107      0.155716  15 H  s         
    94     -0.155276   8 H  s         
 
 Vector   24  Occ=2.000000D+00  E=-3.314957D-01
              MO Center= -1.6D-01, -2.3D-01,  6.1D-02, r^2= 5.0D+00
   Bfn.  Coefficient  Atom+Function         Bfn.  Coefficient  Atom+Function  
  ----- ------------  ---------------      ----- ------------  ---------------
   113      0.284208  17 O  px               33     -0.221690   3 C  px        
   116     -0.202670  17 O  s               117      0.189406  17 O  px        
     4     -0.180912   1 C  py        
 
 Vector   25  Occ=2.000000D+00  E=-3.175484D-01
              MO Center=  2.0D-01,  7.1D-01,  4.1D-02, r^2= 4.4D+00
   Bfn.  Coefficient  Atom+Function         Bfn.  Coefficient  Atom+Function  
  ----- ------------  ---------------      ----- ------------  ---------------
    35     -0.184040   3 C  pz              106     -0.177092  14 H  s         
    50      0.175882   4 C  pz              100     -0.173943  11 H  s         
    64      0.160742   5 C  py               49     -0.154415   4 C  py        
   108     -0.151317  15 H  s         
 
 Vector   26  Occ=2.000000D+00  E=-3.121466D-01
              MO Center= -1.6D-01,  5.7D-01,  4.5D-02, r^2= 4.4D+00
   Bfn.  Coefficient  Atom+Function         Bfn.  Coefficient  Atom+Function  
  ----- ------------  ---------------      ----- ------------  ---------------
    34     -0.238268   3 C  py               19      0.223140   2 C  py        
     4     -0.210754   1 C  py              115      0.189215  17 O  pz        
    49      0.171340   4 C  py               64     -0.163068   5 C  py        
 
 Vector   27  Occ=2.000000D+00  E=-2.935989D-01
              MO Center= -1.3D-01, -2.4D-01, -3.0D-02, r^2= 4.4D+00
   Bfn.  Coefficient  Atom+Function         Bfn.  Coefficient  Atom+Function  
  ----- ------------  ---------------      ----- ------------  ---------------
    78      0.257178   6 C  px                3     -0.236443   1 C  px        
   115      0.216088  17 O  pz               33     -0.211086   3 C  px        
    18      0.194471   2 C  px               48      0.185651   4 C  px        
    63     -0.172739   5 C  px              116      0.172040  17 O  s         
   110     -0.160240  16 H  s               119      0.154363  17 O  pz        
 
 Vector   28  Occ=2.000000D+00  E=-2.545592D-01
              MO Center=  9.2D-02, -1.7D+00, -1.7D-02, r^2= 2.3D+00
   Bfn.  Coefficient  Atom+Function         Bfn.  Coefficient  Atom+Function  
  ----- ------------  ---------------      ----- ------------  ---------------
   115      0.437168  17 O  pz              119      0.333878  17 O  pz        
   113      0.279501  17 O  px              117      0.217208  17 O  px        
    66     -0.203778   5 C  s               127      0.193269  18 H  s         
   114      0.192663  17 O  py               63      0.165432   5 C  px        
   118      0.160212  17 O  py               80     -0.150704   6 C  pz        
 
 Vector   29  Occ=0.000000D+00  E= 7.602244D-02
              MO Center=  8.4D-01, -1.7D+00, -4.4D-01, r^2= 4.9D+00
   Bfn.  Coefficient  Atom+Function         Bfn.  Coefficient  Atom+Function  
  ----- ------------  ---------------      ----- ------------  ---------------
   129      1.059440  19 H  s               116     -0.779158  17 O  s         
   110      0.741571  16 H  s                81     -0.656399   6 C  s         
   127      0.607524  18 H  s                66     -0.600055   5 C  s         
    67     -0.459201   5 C  px              117     -0.357700  17 O  px        
   106      0.320340  14 H  s               102      0.300457  12 H  s         
 
 Vector   30  Occ=0.000000D+00  E= 8.620621D-02
              MO Center=  1.3D-01,  6.3D-01,  4.5D-02, r^2= 7.7D+00
   Bfn.  Coefficient  Atom+Function         Bfn.  Coefficient  Atom+Function  
  ----- ------------  ---------------      ----- ------------  ---------------
    51      0.955813   4 C  s                21      0.866790   2 C  s         
    36      0.844212   3 C  s               104     -0.710170  13 H  s         
    96     -0.677918   9 H  s               100     -0.561106  11 H  s         
   102     -0.555799  12 H  s               106     -0.520823  14 H  s         
    66      0.488078   5 C  s                 6      0.480168   1 C  s         
 
 Vector   31  Occ=0.000000D+00  E= 1.116050D-01
              MO Center=  2.7D-01,  1.4D-01,  4.0D-02, r^2= 7.1D+00
   Bfn.  Coefficient  Atom+Function         Bfn.  Coefficient  Atom+Function  
  ----- ------------  ---------------      ----- ------------  ---------------
   108      0.777727  15 H  s                98     -0.728265  10 H  s         
    66     -0.692990   5 C  s               100      0.688703  11 H  s         
    21      0.641313   2 C  s               127     -0.636518  18 H  s         
   106     -0.602361  14 H  s               129      0.535318  19 H  s         
    94      0.526674   8 H  s                36     -0.522277   3 C  s         
 
 Vector   32  Occ=0.000000D+00  E= 1.334985D-01
              MO Center= -1.6D-01,  5.1D-01, -1.8D-02, r^2= 7.8D+00
   Bfn.  Coefficient  Atom+Function         Bfn.  Coefficient  Atom+Function  
  ----- ------------  ---------------      ----- ------------  ---------------
    51     -1.389468   4 C  s                 6      1.185453   1 C  s         
    21      1.158366   2 C  s                66     -0.901808   5 C  s         
   106      0.834014  14 H  s                96     -0.824429   9 H  s         
    94     -0.738590   8 H  s                92     -0.698786   7 H  s         
   104      0.651157  13 H  s               110      0.575729  16 H  s         
 
 Vector   33  Occ=0.000000D+00  E= 1.493575D-01
              MO Center=  2.9D-02,  6.9D-01, -2.0D-01, r^2= 7.9D+00
   Bfn.  Coefficient  Atom+Function         Bfn.  Coefficient  Atom+Function  
  ----- ------------  ---------------      ----- ------------  ---------------
    36     -1.694474   3 C  s               102      1.139692  12 H  s         
    66      0.979694   5 C  s                 6      0.952418   1 C  s         
    92     -0.728937   7 H  s               127     -0.723473  18 H  s         
   110     -0.672877  16 H  s               108     -0.545163  15 H  s         
   100      0.528870  11 H  s                38     -0.419740   3 C  py        
 
 Vector   34  Occ=0.000000D+00  E= 1.592565D-01
              MO Center=  2.1D-01,  6.1D-01, -1.6D-01, r^2= 6.9D+00
   Bfn.  Coefficient  Atom+Function         Bfn.  Coefficient  Atom+Function  
  ----- ------------  ---------------      ----- ------------  ---------------
   104      0.959544  13 H  s                98      0.932691  10 H  s         
   110     -0.818092  16 H  s                94     -0.749185   8 H  s         
   102     -0.714555  12 H  s                52     -0.658747   4 C  px        
    38      0.622170   3 C  py               67      0.546243   5 C  px        
   127      0.544937  18 H  s                24      0.486164   2 C  pz        
 
 Vector   35  Occ=0.000000D+00  E= 1.752437D-01
              MO Center= -6.0D-01,  7.2D-01,  1.2D-01, r^2= 6.8D+00
   Bfn.  Coefficient  Atom+Function         Bfn.  Coefficient  Atom+Function  
  ----- ------------  ---------------      ----- ------------  ---------------
    96      1.259317   9 H  s                81      1.148557   6 C  s         
   100     -1.132050  11 H  s                36      1.085314   3 C  s         
   127     -0.980030  18 H  s                66     -0.945984   5 C  s         
    21     -0.887165   2 C  s                24     -0.647349   2 C  pz        
    39      0.615399   3 C  pz               84     -0.543701   6 C  pz        
 
 Vector   36  Occ=0.000000D+00  E= 1.755816D-01
              MO Center= -1.6D-01,  6.6D-01,  6.6D-02, r^2= 7.1D+00
   Bfn.  Coefficient  Atom+Function         Bfn.  Coefficient  Atom+Function  
  ----- ------------  ---------------      ----- ------------  ---------------
   102      1.046573  12 H  s                92      1.020968   7 H  s         
    21      0.780156   2 C  s                 7      0.733838   1 C  px        
   110     -0.684409  16 H  s               108      0.651426  15 H  s         
   100     -0.605491  11 H  s                39      0.604160   3 C  pz        
    38     -0.603406   3 C  py              106     -0.586077  14 H  s         
 
 Vector   37  Occ=0.000000D+00  E= 1.780741D-01
              MO Center= -2.8D-01,  4.7D-01,  1.4D-01, r^2= 6.5D+00
   Bfn.  Coefficient  Atom+Function         Bfn.  Coefficient  Atom+Function  
  ----- ------------  ---------------      ----- ------------  ---------------
    98     -1.114863  10 H  s               108     -1.037081  15 H  s         
    94     -0.796465   8 H  s                96      0.752487   9 H  s         
    24     -0.728372   2 C  pz               69      0.631307   5 C  pz        
   100      0.614463  11 H  s               127      0.601732  18 H  s         
     9      0.548493   1 C  pz               66      0.545241   5 C  s         
 
 Vector   38  Occ=0.000000D+00  E= 1.892155D-01
              MO Center= -4.9D-01,  4.9D-02, -2.3D-01, r^2= 6.1D+00
   Bfn.  Coefficient  Atom+Function         Bfn.  Coefficient  Atom+Function  
  ----- ------------  ---------------      ----- ------------  ---------------
    81     -1.465702   6 C  s               127      0.924345  18 H  s         
    94      0.815658   8 H  s                92     -0.815077   7 H  s         
     9     -0.694787   1 C  pz              100     -0.660504  11 H  s         
   106      0.640780  14 H  s                96      0.620132   9 H  s         
     8     -0.612116   1 C  py               98     -0.591365  10 H  s         
 
 Vector   39  Occ=0.000000D+00  E= 1.904061D-01
              MO Center=  3.2D-01,  3.2D-01, -1.4D-01, r^2= 7.7D+00
   Bfn.  Coefficient  Atom+Function         Bfn.  Coefficient  Atom+Function  
  ----- ------------  ---------------      ----- ------------  ---------------
    51     -1.965681   4 C  s                 6     -1.824969   1 C  s         
    66      1.218777   5 C  s               106      1.024542  14 H  s         
    36      0.878954   3 C  s                81      0.836139   6 C  s         
    21      0.834022   2 C  s                94      0.701883   8 H  s         
   110     -0.675159  16 H  s               108     -0.657062  15 H  s         
 
 Vector   40  Occ=0.000000D+00  E= 1.965507D-01
              MO Center=  8.5D-01,  7.3D-01,  2.3D-01, r^2= 6.0D+00
   Bfn.  Coefficient  Atom+Function         Bfn.  Coefficient  Atom+Function  
  ----- ------------  ---------------      ----- ------------  ---------------
   104      1.137533  13 H  s                54     -0.964424   4 C  pz        
   108     -0.925623  15 H  s               106     -0.863584  14 H  s         
    69      0.809620   5 C  pz              110      0.700456  16 H  s         
   100     -0.692051  11 H  s               102      0.558074  12 H  s         
    39      0.545574   3 C  pz               94      0.490595   8 H  s         
 
 Vector   41  Occ=0.000000D+00  E= 2.135666D-01
              MO Center=  8.9D-02,  3.7D-01, -8.5D-02, r^2= 5.2D+00
   Bfn.  Coefficient  Atom+Function         Bfn.  Coefficient  Atom+Function  
  ----- ------------  ---------------      ----- ------------  ---------------
    36     -1.748424   3 C  s                21      1.600014   2 C  s         
    39      0.838236   3 C  pz               22      0.805444   2 C  px        
    81     -0.787800   6 C  s                51      0.787682   4 C  s         
    66      0.773976   5 C  s                38      0.694108   3 C  py        
    53      0.646105   4 C  py               83      0.575752   6 C  py        
 
 Vector   42  Occ=0.000000D+00  E= 2.416620D-01
              MO Center=  1.9D-01,  4.1D-01, -1.0D-01, r^2= 5.5D+00
   Bfn.  Coefficient  Atom+Function         Bfn.  Coefficient  Atom+Function  
  ----- ------------  ---------------      ----- ------------  ---------------
     7      0.996930   1 C  px               51      0.985465   4 C  s         
    52     -0.916267   4 C  px               92      0.890574   7 H  s         
    38      0.885660   3 C  py               68     -0.826879   5 C  py        
   102     -0.794827  12 H  s                83     -0.700657   6 C  py        
    84     -0.626673   6 C  pz               53     -0.616599   4 C  py        
 
 Vector   43  Occ=0.000000D+00  E= 2.537205D-01
              MO Center= -3.1D-01,  1.9D-01, -2.0D-01, r^2= 5.4D+00
   Bfn.  Coefficient  Atom+Function         Bfn.  Coefficient  Atom+Function  
  ----- ------------  ---------------      ----- ------------  ---------------
    21     -0.958174   2 C  s                 8      0.909950   1 C  py        
   110     -0.880266  16 H  s                24     -0.824234   2 C  pz        
    67      0.784339   5 C  px               22     -0.774668   2 C  px        
    83      0.727959   6 C  py               23      0.721943   2 C  py        
    98     -0.678725  10 H  s                37     -0.652474   3 C  px        
 
 Vector   44  Occ=0.000000D+00  E= 2.729117D-01
              MO Center=  2.4D-02,  4.8D-01, -1.2D-02, r^2= 5.3D+00
   Bfn.  Coefficient  Atom+Function         Bfn.  Coefficient  Atom+Function  
  ----- ------------  ---------------      ----- ------------  ---------------
    66     -2.098137   5 C  s                21      1.908582   2 C  s         
     6     -1.804053   1 C  s                51      1.803208   4 C  s         
    36     -1.229681   3 C  s                81      1.183781   6 C  s         
    83      1.110143   6 C  py               53     -1.006945   4 C  py        
     8     -0.938775   1 C  py               68     -0.863690   5 C  py        
 
 Vector   45  Occ=0.000000D+00  E= 2.835724D-01
              MO Center= -2.0D-01, -3.1D-01, -9.9D-02, r^2= 4.7D+00
   Bfn.  Coefficient  Atom+Function         Bfn.  Coefficient  Atom+Function  
  ----- ------------  ---------------      ----- ------------  ---------------
    82     -1.847023   6 C  px                6     -1.394419   1 C  s         
     9      1.003379   1 C  pz                7     -0.844560   1 C  px        
    69     -0.799615   5 C  pz               66      0.697967   5 C  s         
    67     -0.675681   5 C  px               68     -0.667583   5 C  py        
    94     -0.656336   8 H  s                54      0.646851   4 C  pz        
 
 Vector   46  Occ=0.000000D+00  E= 2.930164D-01
              MO Center= -1.5D-01,  8.3D-01,  1.3D-02, r^2= 4.6D+00
   Bfn.  Coefficient  Atom+Function         Bfn.  Coefficient  Atom+Function  
  ----- ------------  ---------------      ----- ------------  ---------------
    37      1.584463   3 C  px               23      1.285895   2 C  py        
    53     -1.233377   4 C  py                8      1.023784   1 C  py        
    68     -0.939285   5 C  py               82     -0.883497   6 C  px        
    22      0.872607   2 C  px                7     -0.586069   1 C  px        
    52      0.538709   4 C  px               66     -0.466061   5 C  s         
 
 Vector   47  Occ=0.000000D+00  E= 3.139577D-01
              MO Center=  1.9D-01, -2.6D-02,  1.9D-01, r^2= 5.0D+00
   Bfn.  Coefficient  Atom+Function         Bfn.  Coefficient  Atom+Function  
  ----- ------------  ---------------      ----- ------------  ---------------
    81      2.201635   6 C  s                36     -1.204545   3 C  s         
    84      1.164708   6 C  pz               68      1.079757   5 C  py        
    52     -1.018011   4 C  px               67      0.990172   5 C  px        
   116     -0.864662  17 O  s                39      0.853313   3 C  pz        
    53      0.810539   4 C  py                8      0.706111   1 C  py        
 
 Vector   48  Occ=0.000000D+00  E= 5.219574D-01
              MO Center=  1.7D-01,  5.4D-01,  7.3D-02, r^2= 4.2D+00
   Bfn.  Coefficient  Atom+Function         Bfn.  Coefficient  Atom+Function  
  ----- ------------  ---------------      ----- ------------  ---------------
    83     -0.463022   6 C  py                6      0.457024   1 C  s         
     7      0.434596   1 C  px               66      0.385250   5 C  s         
    36      0.381696   3 C  s                51     -0.333644   4 C  s         
    21     -0.325708   2 C  s                81     -0.317555   6 C  s         
    22     -0.310068   2 C  px              105      0.303797  14 H  s         
 

    Atom       Condensed Fukui 
 -----------   ----------------
    1 C    6     0.0093
    2 C    6     0.0075
    3 C    6     0.0053
    4 C    6     0.0114
    5 C    6     0.0075
    6 C    6     0.0158
    7 H    1     0.0235
    8 H    1     0.0024
    9 H    1     0.0000
   10 H    1     0.0127
   11 H    1     0.0009
   12 H    1     0.0277
   13 H    1     0.0032
   14 H    1     0.0320
   15 H    1     0.0112
   16 H    1     0.1713
   17 O    8    -0.0152
   18 H    1     0.1301
   19 H    1     0.5436

    Atom       Condensed Fukui 
 -----------   ----------------
    1 C    6     0.0033
    2 C    6     0.0048
    3 C    6     0.0057
    4 C    6     0.0318
    5 C    6     0.0927
    6 C    6     0.0700
    7 H    1     0.0102
    8 H    1     0.0066
    9 H    1     0.0009
   10 H    1     0.0003
   11 H    1     0.0004
   12 H    1     0.0018
   13 H    1     0.0140
   14 H    1     0.0004
   15 H    1     0.0061
   16 H    1     0.0004
   17 O    8     0.6759
   18 H    1     0.0747
   19 H    1     0.0000

    Atom       Condensed Fukui 
 -----------   ----------------
    1 C    6     0.0000
    2 C    6     0.0000
    3 C    6     0.0000
    4 C    6     0.0000
    5 C    6     0.0000
    6 C    6     0.0000
    7 H    1     0.0000
    8 H    1     0.0000
    9 H    1     0.0000
   10 H    1     0.0000
   11 H    1     0.0000
   12 H    1     0.0000
   13 H    1     0.0000
   14 H    1     0.0000
   15 H    1     0.0000
   16 H    1     0.0000
   17 O    8     0.0000
   18 H    1     0.0000
   19 H    1     0.0000

    Atom       Condensed Fukui 
 -----------   ----------------
    1 C    6     0.0063
    2 C    6     0.0061
    3 C    6     0.0055
    4 C    6     0.0216
    5 C    6     0.0501
    6 C    6     0.0429
    7 H    1     0.0169
    8 H    1     0.0045
    9 H    1     0.0004
   10 H    1     0.0065
   11 H    1     0.0007
   12 H    1     0.0147
   13 H    1     0.0086
   14 H    1     0.0162
   15 H    1     0.0087
   16 H    1     0.0859
   17 O    8     0.3303
   18 H    1     0.1024
   19 H    1     0.2718

    Atom       Condensed Fukui 
 -----------   ----------------
    1 C    6     0.0030
    2 C    6     0.0014
    3 C    6    -0.0002
    4 C    6    -0.0102
    5 C    6    -0.0426
    6 C    6    -0.0271
    7 H    1     0.0066
    8 H    1    -0.0021
    9 H    1    -0.0005
   10 H    1     0.0062
   11 H    1     0.0003
   12 H    1     0.0130
   13 H    1    -0.0054
   14 H    1     0.0158
   15 H    1     0.0025
   16 H    1     0.0854
   17 O    8    -0.3456
   18 H    1     0.0277
   19 H    1     0.2718

    Atom       Condensed Fukui 
 -----------   ----------------
    1 C    6     0.0063
    2 C    6     0.0061
    3 C    6     0.0055
    4 C    6     0.0216
    5 C    6     0.0501
    6 C    6     0.0429
    7 H    1     0.0169
    8 H    1     0.0045
    9 H    1     0.0004
   10 H    1     0.0065
   11 H    1     0.0007
   12 H    1     0.0147
   13 H    1     0.0086
   14 H    1     0.0162
   15 H    1     0.0087
   16 H    1     0.0859
   17 O    8     0.3303
   18 H    1     0.1024
   19 H    1     0.2718

    Atom       Condensed Fukui 
 -----------   ----------------
    1 C    6    -0.0030
    2 C    6    -0.0014
    3 C    6     0.0002
    4 C    6     0.0102
    5 C    6     0.0426
    6 C    6     0.0271
    7 H    1    -0.0066
    8 H    1     0.0021
    9 H    1     0.0005
   10 H    1    -0.0062
   11 H    1    -0.0003
   12 H    1    -0.0130
   13 H    1     0.0054
   14 H    1    -0.0158
   15 H    1    -0.0025
   16 H    1    -0.0854
   17 O    8     0.3456
   18 H    1    -0.0277
   19 H    1    -0.2718

 center of mass
 --------------
 x =  -0.01482395 y =  -0.07730468 z =   0.00822598

 moments of inertia (a.u.)
 ------------------
         803.219182682285           0.000000000000           0.000000000000
           0.000000000000         423.463863401728           0.000000000000
           0.000000000000           0.000000000000        1118.756211841462
 
     Multipole analysis of the density
     ---------------------------------
 
     L   x y z        total         alpha         beta         nuclear
     -   - - -        -----         -----         ----         -------
     0   0 0 0      0.000000    -28.000000    -28.000000     56.000000
 
     1   1 0 0      0.452464      0.226232      0.226232      0.000000
     1   0 1 0      0.287097      0.143548      0.143548      0.000000
     1   0 0 1     -0.301827     -0.150914     -0.150914      0.000000
 
     2   2 0 0    -32.313782   -131.917426   -131.917426    231.521070
     2   1 1 0     -2.996747      0.419867      0.419867     -3.836480
     2   1 0 1     -0.153646     -0.010682     -0.010682     -0.132281
     2   0 2 0    -34.200017   -232.378905   -232.378905    430.557794
     2   0 1 1      1.660288     -0.432188     -0.432188      2.524663
     2   0 0 2    -32.994864    -39.419306    -39.419306     45.843748
 

 Parallel integral file used     663 records with       0 large values

 
 
                            NWChem DFT Gradient Module
                            --------------------------
 
 
                                       Title
 
 

  charge          =   0.00
  wavefunction    = closed shell



                         DFT ENERGY GRADIENTS

    atom               coordinates                        gradient
                 x          y          z           x          y          z
   1 C      -2.406470  -0.579775   0.333548    0.005586   0.006046   0.001368
   2 C      -2.369442   2.186084  -0.455370    0.002079  -0.002477  -0.002298
   3 C      -0.024108   3.494432   0.585678   -0.000157  -0.004954   0.000271
   4 C       2.401590   2.187003  -0.269762   -0.005113  -0.004509   0.002272
   5 C       2.382993  -0.665445   0.172997   -0.004717  -0.000919  -0.000572
   6 C      -0.069614  -1.960040  -0.642100   -0.002754   0.004897  -0.006098
   7 H      -4.118222  -1.506044  -0.376200   -0.000698   0.002293   0.001046
   8 H      -2.503092  -0.727954   2.400819   -0.003239   0.000595  -0.000690
   9 H      -4.072244   3.139053   0.235127    0.001558  -0.000505   0.000972
  10 H      -2.390465   2.324613  -2.524097    0.000434  -0.000745   0.001780
  11 H      -0.109965   3.509718   2.656860    0.000708   0.000049  -0.001776
  12 H       0.001069   5.472118  -0.028658   -0.001059  -0.001708  -0.001192
  13 H       4.014259   3.019946   0.730508   -0.001784  -0.000403   0.001960
  14 H       2.696875   2.563380  -2.285836    0.000117  -0.000979   0.002131
  15 H       2.742845  -1.062009   2.176135    0.005385   0.001268  -0.001666
  16 H       3.971862  -1.524266  -0.848320   -0.001521   0.001042   0.000746
  17 O      -0.123217  -4.474358   0.310183   -0.001606   0.010372  -0.001505
  18 H      -0.155308  -2.067159  -2.709655    0.000566  -0.005754   0.005188
  19 H       1.418431  -5.320087  -0.258095    0.006219  -0.003608  -0.001938
 
                 ----------------------------------------
                 |  Time  |  1-e(secs)   |  2-e(secs)   |
                 ----------------------------------------
                 |  CPU   |       0.04   |      13.07   |
                 ----------------------------------------
                 |  WALL  |       0.04   |      13.08   |
                 ----------------------------------------

@ Step       Energy      Delta E   Gmax     Grms     Xrms     Xmax   Walltime
@ ---- ---------------- -------- -------- -------- -------- -------- --------
@    0    -311.08740715  0.0D+00  0.00836  0.00198  0.00000  0.00000     98.3
                                                       ok       ok  



                                Z-matrix (autoz)
                                -------- 

 Units are Angstrom for bonds and degrees for angles
 
      Type          Name      I     J     K     L     M      Value     Gradient
      ----------- --------  ----- ----- ----- ----- ----- ---------- ----------
    1 Stretch                  1     2                       1.52213   -0.00816
    2 Stretch                  1     6                       1.52619    0.00022
    3 Stretch                  1     7                       1.09628   -0.00081
    4 Stretch                  1     8                       1.09795   -0.00058
    5 Stretch                  2     3                       1.52419   -0.00609
    6 Stretch                  2     9                       1.09534   -0.00119
    7 Stretch                  2    10                       1.09723   -0.00183
    8 Stretch                  3     4                       1.52685   -0.00527
    9 Stretch                  3    11                       1.09699   -0.00180
   10 Stretch                  3    12                       1.09596   -0.00129
   11 Stretch                  4     5                       1.52756   -0.00836
   12 Stretch                  4    13                       1.09669   -0.00060
   13 Stretch                  4    14                       1.09648   -0.00224
   14 Stretch                  5     6                       1.52965   -0.00506
   15 Stretch                  5    15                       1.09724   -0.00092
   16 Stretch                  5    16                       1.09798   -0.00196
   17 Stretch                  6    17                       1.42304   -0.00764
   18 Stretch                  6    18                       1.09651   -0.00490
   19 Stretch                 17    19                       0.97789    0.00743
   20 Bend                     1     2     3               110.37306   -0.00069
   21 Bend                     1     2     9               109.91438    0.00004
   22 Bend                     1     2    10               109.74029    0.00025
   23 Bend                     1     6     5               112.19474   -0.00092
   24 Bend                     1     6    17               108.15094    0.00240
   25 Bend                     1     6    18               109.19455    0.00035
   26 Bend                     2     1     6               110.91448   -0.00104
   27 Bend                     2     1     7               110.27947   -0.00045
   28 Bend                     2     1     8               110.03204   -0.00007
   29 Bend                     2     3     4               111.81218    0.00094
   30 Bend                     2     3    11               109.31385    0.00010
   31 Bend                     2     3    12               109.66052   -0.00091
   32 Bend                     3     2     9               109.88635   -0.00015
   33 Bend                     3     2    10               109.78665    0.00039
   34 Bend                     3     4     5               113.38250    0.00226
   35 Bend                     3     4    13               109.20646   -0.00080
   36 Bend                     3     4    14               109.02418   -0.00071
   37 Bend                     4     3    11               109.53461   -0.00028
   38 Bend                     4     3    12               109.54431   -0.00024
   39 Bend                     4     5     6               113.87663   -0.00133
   40 Bend                     4     5    15               109.63624   -0.00077
   41 Bend                     4     5    16               109.18224    0.00059
   42 Bend                     5     4    13               109.15546   -0.00065
   43 Bend                     5     4    14               109.24730   -0.00086
   44 Bend                     5     6    17               109.62136   -0.00211
   45 Bend                     5     6    18               109.85275    0.00139
   46 Bend                     6     1     7               109.85348    0.00095
   47 Bend                     6     1     8               109.91400    0.00128
   48 Bend                     6     5    15               109.51240    0.00196
   49 Bend                     6     5    16               108.99913    0.00037
   50 Bend                     6    17    19               107.60049    0.00032
   51 Bend                     7     1     8               105.72020   -0.00063
   52 Bend                     9     2    10               107.08125    0.00019
   53 Bend                    11     3    12               106.84770    0.00037
   54 Bend                    13     4    14               106.60154    0.00069
   55 Bend                    15     5    16               105.27595   -0.00077
   56 Bend                    17     6    18               107.70910   -0.00110
   57 Torsion                  1     2     3     4          57.08530    0.00056
   58 Torsion                  1     2     3    11         -64.37465    0.00023
   59 Torsion                  1     2     3    12         178.79581    0.00026
   60 Torsion                  1     6     5     4         -47.80162    0.00058
   61 Torsion                  1     6     5    15          75.34262    0.00012
   62 Torsion                  1     6     5    16        -169.97191    0.00046
   63 Torsion                  1     6    17    19        -177.39804    0.00074
   64 Torsion                  2     1     6     5          54.75755    0.00114
   65 Torsion                  2     1     6    17         175.78300   -0.00046
   66 Torsion                  2     1     6    18         -67.27514   -0.00025
   67 Torsion                  2     3     4     5         -50.14323   -0.00027
   68 Torsion                  2     3     4    13        -172.09371   -0.00038
   69 Torsion                  2     3     4    14          71.79283   -0.00036
   70 Torsion                  3     2     1     6         -59.50458   -0.00050
   71 Torsion                  3     2     1     7         178.57083   -0.00071
   72 Torsion                  3     2     1     8          62.32861    0.00037
   73 Torsion                  3     4     5     6          45.58414   -0.00015
   74 Torsion                  3     4     5    15         -77.49258   -0.00118
   75 Torsion                  3     4     5    16         167.65348   -0.00015
   76 Torsion                  4     3     2     9         178.46557    0.00006
   77 Torsion                  4     3     2    10         -64.01264    0.00044
   78 Torsion                  4     5     6    17        -167.97646   -0.00041
   79 Torsion                  4     5     6    18          73.85531    0.00138
   80 Torsion                  5     4     3    11          71.18916    0.00028
   81 Torsion                  5     4     3    12        -171.92065    0.00042
   82 Torsion                  5     6     1     7         176.93069    0.00053
   83 Torsion                  5     6     1     8         -67.14465    0.00106
   84 Torsion                  5     6    17    19         -54.78795   -0.00017
   85 Torsion                  6     1     2     9         179.13179    0.00010
   86 Torsion                  6     1     2    10          61.62095   -0.00030
   87 Torsion                  6     5     4    13         167.56305   -0.00012
   88 Torsion                  6     5     4    14         -76.22742   -0.00015
   89 Torsion                  7     1     2     9          57.20720   -0.00010
   90 Torsion                  7     1     2    10         -60.30364   -0.00051
   91 Torsion                  7     1     6    17         -62.04385   -0.00107
   92 Torsion                  7     1     6    18          54.89800   -0.00086
   93 Torsion                  8     1     2     9         -59.03502    0.00098
   94 Torsion                  8     1     2    10        -176.54586    0.00057
   95 Torsion                  8     1     6    17          53.88080   -0.00054
   96 Torsion                  8     1     6    18         170.82266   -0.00033
   97 Torsion                  9     2     3    11          57.00562   -0.00027
   98 Torsion                  9     2     3    12         -59.82391   -0.00024
   99 Torsion                 10     2     3    11         174.52741    0.00011
  100 Torsion                 10     2     3    12          57.69788    0.00014
  101 Torsion                 11     3     4    13         -50.76131    0.00017
  102 Torsion                 11     3     4    14        -166.87477    0.00019
  103 Torsion                 12     3     4    13          66.12888    0.00031
  104 Torsion                 12     3     4    14         -49.98458    0.00033
  105 Torsion                 13     4     5    15          44.48633   -0.00115
  106 Torsion                 13     4     5    16         -70.36761   -0.00012
  107 Torsion                 14     4     5    15         160.69587   -0.00117
  108 Torsion                 14     4     5    16          45.84193   -0.00015
  109 Torsion                 15     5     6    17         -44.83221   -0.00088
  110 Torsion                 15     5     6    18        -163.00045    0.00091
  111 Torsion                 16     5     6    17          69.85325   -0.00053
  112 Torsion                 16     5     6    18         -48.31498    0.00126
  113 Torsion                 18     6    17    19          64.70469   -0.00035
 
 
                                 NWChem DFT Module
                                 -----------------
 
 
                                       Title
 
 
  Caching 1-el integrals 
 
            General Information
            -------------------
          SCF calculation type: DFT
          Wavefunction type:  closed shell.
          No. of atoms     :    19
          No. of electrons :    56
           Alpha electrons :    28
            Beta electrons :    28
          Charge           :     0
          Spin multiplicity:     1
          Use of symmetry is: off; symmetry adaption is: off
          Maximum number of iterations:  30
          AO basis - number of functions:   129
                     number of shells:    66
          Convergence on energy requested: 1.00D-06
          Convergence on density requested: 1.00D-05
          Convergence on gradient requested: 5.00D-04
 
              XC Information
              --------------
                         B3LYP Method XC Potential
                     Hartree-Fock (Exact) Exchange  0.200          
                        Slater Exchange Functional  0.800 local    
                    Becke 1988 Exchange Functional  0.720 non-local
              Lee-Yang-Parr Correlation Functional  0.810          
                  VWN I RPA Correlation Functional  0.190 local    
 
             Grid Information
             ----------------
          Grid used for XC integration:  medium    
          Radial quadrature: Mura-Knowles        
          Angular quadrature: Lebedev. 
          Tag              B.-S. Rad. Rad. Pts. Rad. Cut. Ang. Pts.
          ---              ---------- --------- --------- ---------
          C                   0.70       49          11.0       434
          H                   0.35       45          13.0       434
          O                   0.60       49          12.0       434
          Grid pruning is: on 
          Number of quadrature shells:   883
          Spatial weights used:  Erf1
 
          Convergence Information
          -----------------------
          Convergence aids based upon iterative change in 
          total energy or number of iterations. 
          Levelshifting, if invoked, occurs when the 
          HOMO/LUMO gap drops below (HL_TOL): 1.00D-02
          DIIS, if invoked, will attempt to extrapolate 
          using up to (NFOCK): 10 stored Fock matrices.

                    Damping( 0%)  Levelshifting(0.5)       DIIS
                  --------------- ------------------- ---------------
          dE  on:    start            ASAP                start   
          dE off:    2 iters         30 iters            30 iters 

 
      Screening Tolerance Information
      -------------------------------
          Density screening/tol_rho: 1.00D-10
          AO Gaussian exp screening on grid/accAOfunc:  14
          CD Gaussian exp screening on grid/accCDfunc:  20
          XC Gaussian exp screening on grid/accXCfunc:  20
          Schwarz screening/accCoul: 1.00D-08


 Loading old vectors from job with title :

Title

   Time after variat. SCF:     97.3
   Time prior to 1st pass:     97.3

 Integral file          = ./molecule.aoints.0
 Record size in doubles =  65536        No. of integs per rec  =  43688
 Max. records in memory =   1091        Max. records in file   = 478546
 No. of bits per label  =      8        No. of bits per value  =     64


 #quartets = 2.040D+06 #integrals = 2.880D+07 #direct =  0.0% #cached =100.0%


 Grid_pts file          = ./molecule.gridpts.0
 Record size in doubles =  12289        No. of grid_pts per rec  =   3070
 Max. records in memory =    139        Max. recs in file   =   2552045

 WARNING: error on integrated density =  0.13D-05
 greater than required accuracy of  0.10D-05

           Memory utilization after 1st SCF pass: 
           Heap Space remaining (MW):        0.00                  10
          Stack Space remaining (MW):       64.65            64651752

   convergence    iter        energy       DeltaE   RMS-Dens  Diis-err    time
 ---------------- ----- ----------------- --------- --------- ---------  ------
 d= 0,ls=0.0,diis     1   -311.0881921353 -6.40D+02  5.05D-04  2.21D-03   110.6
 WARNING: error on integrated density =  0.13D-05
 greater than required accuracy of  0.10D-05
 d= 0,ls=0.0,diis     2   -311.0885755592 -3.83D-04  2.01D-04  3.37D-04   116.3
 WARNING: error on integrated density =  0.13D-05
 greater than required accuracy of  0.10D-05
 d= 0,ls=0.0,diis     3   -311.0885727791  2.78D-06  1.07D-04  4.00D-04   121.9
 WARNING: error on integrated density =  0.13D-05
 greater than required accuracy of  0.10D-05
 d= 0,ls=0.0,diis     4   -311.0886135492 -4.08D-05  1.16D-05  3.35D-06   127.7
 WARNING: error on integrated density =  0.13D-05
 greater than required accuracy of  0.10D-05
[...]
    4 C                    6.0000     1.27686024     1.15183649    -0.19571147
    5 C                    6.0000     1.25891700    -0.34084216     0.17206724
    6 C                    6.0000    -0.00817900    -1.03513448    -0.34488054
    7 H                    1.0000    -2.15136938    -0.83459642    -0.24270042
    8 H                    1.0000    -1.30414984    -0.44977689     1.25471286
    9 H                    1.0000    -2.15502913     1.64889601     0.20647844
   10 H                    1.0000    -1.32391275     1.27002922    -1.29651853
   11 H                    1.0000     0.00542361     1.86676420     1.40226551
   12 H                    1.0000     0.01495649     2.91389118    -0.01402671
   13 H                    1.0000     2.17326128     1.63079927     0.21745724
   14 H                    1.0000     1.34484352     1.25684360    -1.28868437
   15 H                    1.0000     1.29093965    -0.46140622     1.26392112
   16 H                    1.0000     2.15052985    -0.84368673    -0.23081313
   17 O                    8.0000    -0.08551070    -2.39464545     0.08445605
   18 H                    1.0000    -0.00538661    -0.99094623    -1.44951768
   19 H                    1.0000     0.71828773    -2.84360849    -0.22148251
 
      Atomic Mass 
      ----------- 
 
      C                 12.000000
      H                  1.007825
      O                 15.994910
 

 Effective nuclear repulsion energy (a.u.)     329.1711094185

            Nuclear Dipole moment (a.u.) 
            ----------------------------
        X                 Y               Z
 ---------------- ---------------- ----------------
     0.2376871015    -0.3317399357    -0.6890967017
 
 
                Final and change from initial internal coordinates
                --------------------------------------------------
 


                                Z-matrix (autoz)
                                -------- 

 Units are Angstrom for bonds and degrees for angles
 
      Type          Name      I     J     K     L     M      Value       Change
      ----------- --------  ----- ----- ----- ----- ----- ---------- ----------
    1 Stretch                  1     2                       1.53667    0.01454
    2 Stretch                  1     6                       1.52840    0.00221
    3 Stretch                  1     7                       1.09639    0.00011
    4 Stretch                  1     8                       1.09906    0.00111
    5 Stretch                  2     3                       1.53707    0.01288
    6 Stretch                  2     9                       1.09701    0.00167
    7 Stretch                  2    10                       1.10011    0.00287
    8 Stretch                  3     4                       1.53685    0.01000
    9 Stretch                  3    11                       1.09990    0.00290
   10 Stretch                  3    12                       1.09742    0.00146
   11 Stretch                  4     5                       1.53742    0.00987
   12 Stretch                  4    13                       1.09711    0.00042
   13 Stretch                  4    14                       1.10011    0.00362
   14 Stretch                  5     6                       1.53454    0.00489
   15 Stretch                  5    15                       1.09896    0.00172
   16 Stretch                  5    16                       1.10006    0.00208
   17 Stretch                  6    17                       1.42779    0.00475
   18 Stretch                  6    18                       1.10552    0.00902
   19 Stretch                 17    19                       0.97018   -0.00770
   20 Bend                     1     2     3               111.53362    1.16056
   21 Bend                     1     2     9               109.88244   -0.03194
   22 Bend                     1     2    10               109.41640   -0.32389
   23 Bend                     1     6     5               111.04839   -1.14635
   24 Bend                     1     6    17               107.11835   -1.03259
   25 Bend                     1     6    18               108.39375   -0.80080
   26 Bend                     2     1     6               111.47610    0.56163
   27 Bend                     2     1     7               111.11959    0.84012
   28 Bend                     2     1     8               110.00322   -0.02882
   29 Bend                     2     3     4               111.35646   -0.45572
   30 Bend                     2     3    11               109.15384   -0.16001
   31 Bend                     2     3    12               110.28783    0.62730
   32 Bend                     3     2     9               110.32363    0.43728
   33 Bend                     3     2    10               109.18851   -0.59813
   34 Bend                     3     4     5               111.23379   -2.14872
   35 Bend                     3     4    13               110.49011    1.28365
   36 Bend                     3     4    14               109.19650    0.17232
   37 Bend                     4     3    11               109.15883   -0.37578
   38 Bend                     4     3    12               110.18709    0.64278
   39 Bend                     4     5     6               111.61243   -2.26420
   40 Bend                     4     5    15               110.11137    0.47513
   41 Bend                     4     5    16               110.28759    1.10535
   42 Bend                     5     4    13               110.07862    0.92316
   43 Bend                     5     4    14               109.33317    0.08587
   44 Bend                     5     6    17               111.97683    2.35547
   45 Bend                     5     6    18               108.44745   -1.40530
   46 Bend                     6     1     7               109.26661   -0.58686
   47 Bend                     6     1     8               107.97822   -1.93578
   48 Bend                     6     5    15               108.00632   -1.50608
   49 Bend                     6     5    16               109.81984    0.82071
   50 Bend                     6    17    19               107.51376   -0.08673
   51 Bend                     7     1     8               106.83884    1.11864
   52 Bend                     9     2    10               106.35447   -0.72677
   53 Bend                    11     3    12               106.56717   -0.28052
   54 Bend                    13     4    14               106.37915   -0.22240
   55 Bend                    15     5    16               106.86402    1.58807
   56 Bend                    17     6    18               109.79495    2.08585
   57 Torsion                  1     2     3     4          54.45731   -2.62799
   58 Torsion                  1     2     3    11         -66.12997   -1.75532
   59 Torsion                  1     2     3    12         177.11271   -1.68311
   60 Torsion                  1     6     5     4         -55.56419   -7.76257
   61 Torsion                  1     6     5    15          65.61185   -9.73077
   62 Torsion                  1     6     5    16        -178.19502   -8.22311
   63 Torsion                  1     6    17    19        -179.01535   -1.61731
   64 Torsion                  2     1     6     5          55.42502    0.66747
   65 Torsion                  2     1     6    17         177.97936    2.19635
   66 Torsion                  2     1     6    18         -63.60598    3.66916
   67 Torsion                  2     3     4     5         -54.35300   -4.20976
   68 Torsion                  2     3     4    13        -176.92694   -4.83323
   69 Torsion                  2     3     4    14          66.40192   -5.39090
   70 Torsion                  3     2     1     6         -55.11648    4.38811
   71 Torsion                  3     2     1     7        -177.26265    4.16652
   72 Torsion                  3     2     1     8          64.63241    2.30380
   73 Torsion                  3     4     5     6          55.07530    9.49115
   74 Torsion                  3     4     5    15         -64.86899   12.62358
   75 Torsion                  3     4     5    16         177.43808    9.78460
   76 Torsion                  4     3     2     9         176.87108   -1.59449
   77 Torsion                  4     3     2    10         -66.58825   -2.57561
   78 Torsion                  4     5     6    17        -175.26067   -7.28421
   79 Torsion                  4     5     6    18          63.43457  -10.42073
   80 Torsion                  5     4     3    11          66.23135   -4.95781
   81 Torsion                  5     4     3    12        -177.06627   -5.14563
   82 Torsion                  5     6     1     7         178.63374    1.70305
   83 Torsion                  5     6     1     8         -65.51443    1.63022
   84 Torsion                  5     6    17    19         -57.04071   -2.25276
   85 Torsion                  6     1     2     9        -177.78333    3.08489
   86 Torsion                  6     1     2    10          65.79614    4.17519
   87 Torsion                  6     5     4    13         177.88621   10.32316
   88 Torsion                  6     5     4    14         -65.59923   10.62819
   89 Torsion                  7     1     2     9          60.07050    2.86330
   90 Torsion                  7     1     2    10         -56.35004    3.95360
   91 Torsion                  7     1     6    17         -58.81192    3.23193
   92 Torsion                  7     1     6    18          59.60274    4.70473
   93 Torsion                  8     1     2     9         -58.03444    1.00058
   94 Torsion                  8     1     2    10        -174.45498    2.09088
   95 Torsion                  8     1     6    17          57.03991    3.15910
   96 Torsion                  8     1     6    18         175.45457    4.63191
   97 Torsion                  9     2     3    11          56.28380   -0.72182
   98 Torsion                  9     2     3    12         -60.47352   -0.64961
   99 Torsion                 10     2     3    11         172.82447   -1.70294
  100 Torsion                 10     2     3    12          56.06714   -1.63073
  101 Torsion                 11     3     4    13         -56.34259   -5.58128
  102 Torsion                 11     3     4    14        -173.01373   -6.13895
  103 Torsion                 12     3     4    13          60.35978   -5.76909
  104 Torsion                 12     3     4    14         -56.31135   -6.32677
  105 Torsion                 13     4     5    15          57.94192   13.45559
  106 Torsion                 13     4     5    16         -59.75101   10.61660
  107 Torsion                 14     4     5    15         174.45648   13.76062
  108 Torsion                 14     4     5    16          56.76356   10.92163
  109 Torsion                 15     5     6    17         -54.08463   -9.25241
  110 Torsion                 15     5     6    18        -175.38938  -12.38893
  111 Torsion                 16     5     6    17          62.10850   -7.74476
  112 Torsion                 16     5     6    18         -59.19626  -10.88128
  113 Torsion                 18     6    17    19          63.48389   -1.22080
 
 ==============================================================================
                                internuclear distances
 ------------------------------------------------------------------------------
       center one      |      center two      | atomic units |  angstroms
 ------------------------------------------------------------------------------
    2 C                |   1 C                |     2.90389  |     1.53667
    3 C                |   2 C                |     2.90465  |     1.53708
    4 C                |   3 C                |     2.90422  |     1.53685
    5 C                |   4 C                |     2.90531  |     1.53742
    6 C                |   1 C                |     2.88825  |     1.52840
    6 C                |   5 C                |     2.89986  |     1.53454
    7 H                |   1 C                |     2.07187  |     1.09639
    8 H                |   1 C                |     2.07691  |     1.09906
    9 H                |   2 C                |     2.07305  |     1.09701
   10 H                |   2 C                |     2.07890  |     1.10011
   11 H                |   3 C                |     2.07851  |     1.09990
   12 H                |   3 C                |     2.07382  |     1.09742
   13 H                |   4 C                |     2.07324  |     1.09711
   14 H                |   4 C                |     2.07890  |     1.10011
   15 H                |   5 C                |     2.07673  |     1.09896
   16 H                |   5 C                |     2.07882  |     1.10006
   17 O                |   6 C                |     2.69813  |     1.42779
   18 H                |   6 C                |     2.08914  |     1.10552
   19 H                |  17 O                |     1.83338  |     0.97018
 ------------------------------------------------------------------------------
                         number of included internuclear distances:         19
 ==============================================================================



 ==============================================================================
                                 internuclear angles
 ------------------------------------------------------------------------------
        center 1       |       center 2       |       center 3       |  degrees
 ------------------------------------------------------------------------------
    2 C                |   1 C                |   6 C                |   111.48
    2 C                |   1 C                |   7 H                |   111.12
    2 C                |   1 C                |   8 H                |   110.00
    6 C                |   1 C                |   7 H                |   109.27
    6 C                |   1 C                |   8 H                |   107.98
    7 H                |   1 C                |   8 H                |   106.84
    1 C                |   2 C                |   3 C                |   111.53
    1 C                |   2 C                |   9 H                |   109.88
    1 C                |   2 C                |  10 H                |   109.42
    3 C                |   2 C                |   9 H                |   110.32
    3 C                |   2 C                |  10 H                |   109.19
    9 H                |   2 C                |  10 H                |   106.35
    2 C                |   3 C                |   4 C                |   111.36
    2 C                |   3 C                |  11 H                |   109.15
    2 C                |   3 C                |  12 H                |   110.29
    4 C                |   3 C                |  11 H                |   109.16
    4 C                |   3 C                |  12 H                |   110.19
   11 H                |   3 C                |  12 H                |   106.57
    3 C                |   4 C                |   5 C                |   111.23
    3 C                |   4 C                |  13 H                |   110.49
    3 C                |   4 C                |  14 H                |   109.20
    5 C                |   4 C                |  13 H                |   110.08
    5 C                |   4 C                |  14 H                |   109.33
   13 H                |   4 C                |  14 H                |   106.38
    4 C                |   5 C                |   6 C                |   111.61
    4 C                |   5 C                |  15 H                |   110.11
    4 C                |   5 C                |  16 H                |   110.29
    6 C                |   5 C                |  15 H                |   108.01
    6 C                |   5 C                |  16 H                |   109.82
   15 H                |   5 C                |  16 H                |   106.86
    1 C                |   6 C                |   5 C                |   111.05
    1 C                |   6 C                |  17 O                |   107.12
    1 C                |   6 C                |  18 H                |   108.39
    5 C                |   6 C                |  17 O                |   111.98
    5 C                |   6 C                |  18 H                |   108.45
   17 O                |   6 C                |  18 H                |   109.79
    6 C                |  17 O                |  19 H                |   107.51
 ------------------------------------------------------------------------------
                            number of included internuclear angles:         37
 ==============================================================================




 Task  times  cpu:     1576.8s     wall:     1588.3s
 
 
                                NWChem Input Module
                                -------------------
 
 
 Summary of allocated global arrays
-----------------------------------
  No active global arrays



                         GA Statistics for process    0
                         ------------------------------

       create   destroy   get      put      acc     scatter   gather  read&inc
calls: 2398     2398     8.74e+06 1.59e+05 6.01e+06    0        0        0     
number of processes/call 1.00e+00 1.00e+00 1.00e+00 0.00e+00 0.00e+00
bytes total:             4.69e+09 2.86e+08 2.42e+09 0.00e+00 0.00e+00 0.00e+00
bytes remote:            0.00e+00 0.00e+00 0.00e+00 0.00e+00 0.00e+00 0.00e+00
Max memory consumed for GA by this process: 5458248 bytes
 
 
 
                                     CITATION
                                     --------
                Please cite the following reference when publishing
                           results obtained with NWChem:
 
                 M. Valiev, E.J. Bylaska, N. Govind, K. Kowalski,
              T.P. Straatsma, H.J.J. van Dam, D. Wang, J. Nieplocha,
                        E. Apra, T.L. Windus, W.A. de Jong
                 "NWChem: a comprehensive and scalable open-source
                  solution for large scale molecular simulations"
                      Comput. Phys. Commun. 181, 1477 (2010)
                           doi:10.1016/j.cpc.2010.04.018
 
                              AUTHORS & CONTRIBUTORS
                              ----------------------
      E. J. Bylaska, W. A. de Jong, N. Govind, K. Kowalski, T. P. Straatsma,
     M. Valiev, H. J. J. van Dam, D. Wang, E. Apra, T. L. Windus, J. Hammond,
     J. Autschbach, P. Nichols, S. Hirata, M. T. Hackler, Y. Zhao, P.-D. Fan,
      R. J. Harrison, M. Dupuis, D. M. A. Smith, K. Glaesemann, J. Nieplocha,
      V. Tipparaju, M. Krishnan, A. Vazquez-Mayagoitia, L. Jensen, M. Swart,
      Q. Wu, T. Van Voorhis, A. A. Auer, M. Nooijen, L. D. Crosby, E. Brown,
             G. Cisneros, G. I. Fann, H. Fruchtl, J. Garza, K. Hirao,
        R. Kendall, J. A. Nichols, K. Tsemekhman, K. Wolinski, J. Anchell,
       D. Bernholdt, P. Borowski, T. Clark, D. Clerc, H. Dachsel, M. Deegan,
        K. Dyall, D. Elwood, E. Glendening, M. Gutowski, A. Hess, J. Jaffe,
        B. Johnson, J. Ju, R. Kobayashi, R. Kutteh, Z. Lin, R. Littlefield,
    X. Long, B. Meng, T. Nakajima, S. Niu, L. Pollack, M. Rosing, G. Sandrone,
       M. Stave, H. Taylor, G. Thomas, J. H. van Lenthe, A. Wong, Z. Zhang.

 Total times  cpu:     1576.8s     wall:     1588.9s
MA_summarize_allocated_blocks: starting scan ...
MA_summarize_allocated_blocks: scan completed: 0 heap blocks, 0 stack blocks
MA usage statistics:

	allocation statistics:
					      heap	     stack
					      ----	     -----
	current number of blocks	         0	         0
	maximum number of blocks	        23	        48
	current total bytes		         0	         0
	maximum total bytes		 585790232	  31707440
	maximum total K-bytes		    585791	     31708
	maximum total M-bytes		       586	        32
