 argument  1 = pspw_polarizability.nw
                                         
                                         


              Northwest Computational Chemistry Package (NWChem) 6.0
              ------------------------------------------------------


                    Environmental Molecular Sciences Laboratory
                       Pacific Northwest National Laboratory
                                Richland, WA 99352

                              Copyright (c) 1994-2010
                       Pacific Northwest National Laboratory
                            Battelle Memorial Institute

             NWChem is an open-source computational chemistry package
                        distributed under the terms of the
                      Educational Community License (ECL) 2.0
             A copy of the license is included with this distribution
                              in the LICENSE.TXT file

                                  ACKNOWLEDGMENT
                                  --------------

            This software and its documentation were developed at the
            EMSL at Pacific Northwest National Laboratory, a multiprogram
            national laboratory, operated for the U.S. Department of Energy
            by Battelle under Contract Number DE-AC05-76RL01830. Support
            for this work was provided by the Department of Energy Office
            of Biological and Environmental Research, Office of Basic
            Energy Sciences, and the Office of Advanced Scientific Computing.


           Job information
           ---------------

    hostname      = arcen
    program       = /home/d3y133/nwchem-releases/nwchem-6.0-gfortran/bin/LINUX64/nwchem
    date          = Fri Aug  6 13:59:58 2010

    compiled      = Fri_Aug_06_13:42:42_2010
    source        = /home/d3y133/nwchem-releases/nwchem-6.0-gfortran
    nwchem branch = 6.0
    input         = pspw_polarizability.nw
    prefix        = Be.
    data base     = ./Be.db
    status        = startup
    nproc         =        4
    time left     =     -1s



           Memory information
           ------------------

    heap     =   13107201 doubles =    100.0 Mbytes
    stack    =   13107201 doubles =    100.0 Mbytes
    global   =   26214400 doubles =    200.0 Mbytes (distinct from heap & stack)
    total    =   52428802 doubles =    400.0 Mbytes
    verify   = yes
    hardfail = no 


           Directory information
           ---------------------

  0 permanent = .
  0 scratch   = .




                                NWChem Input Module
                                -------------------


                           Be polarizability using PSPW
                           ----------------------------


                             Geometry "geometry" -> ""
                             -------------------------

 Output coordinates in a.u. (scale by  1.000000000 to convert to a.u.)

  No.       Tag          Charge          X              Y              Z
 ---- ---------------- ---------- -------------- -------------- --------------
    1 Be                   4.0000     0.00000000     0.00000000     0.00000000

      Atomic Mass 
      ----------- 

      Be                 9.012180


 Effective nuclear repulsion energy (a.u.)       0.0000000000

            Nuclear Dipole moment (a.u.) 
            ----------------------------
        X                 Y               Z
 ---------------- ---------------- ----------------
     0.0000000000     0.0000000000     0.0000000000


            XYZ format geometry
            -------------------
     1
 geometry
 Be                    0.00000000     0.00000000     0.00000000

          ****************************************************
          *                                                  *
          *               NWPW PSPW Calculation              *
          *                                                  *
          *  [ (Grassman/Stiefel manifold implementation) ]  *
          *                                                  *
          *      [ NorthWest Chemistry implementation ]      *
          *                                                  *
          *            version #5.10   06/12/02              *
          *                                                  *
          *    This code was developed by Eric J. Bylaska,   *
          *    and was based upon algorithms and code        *
          *    developed by the group of Prof. John H. Weare *
          *                                                  *
          ****************************************************
     >>>  JOB STARTED       AT Fri Aug  6 13:59:58 2010  <<<
          ================ input data ========================
  library name resolved from: compiled reference
  NWCHEM_NWPW_LIBRARY set to: </home/d3y133/nwchem-releases/nwchem-6.0-gfortran/src/nwpw/libraryps/>
 Generating 1d pseudopotential for Be  

 Generated formatted_filename: ./Be.vpp
 random planewave guess, initial psi:Be.movecs                     
 -   spin, nalpha, nbeta:                    1                    1                    0

 input psi filename:./Be.movecs
 Warning - Gram-Schmidt being performed on psi:   1.00000000000000       0.879003605963702        1.00000000000000       0.120996394036298     

 number of processors used:         4
 processor grid           :   4 x   1
 parallel mapping         :      slab
 parallel mapping         :  balanced

 options:
      boundary conditions  = periodic    (version3)
      electron spin        = restricted
      exchange-correlation = LDA (Vosko et al) parameterization

 elements involved in the cluster:
      1: Be    core charge:  2.0000  lmax=  1
             comment    : Hamann pseudopotential
             pseudpotential type            :   0
             highest angular component      :   1
             local potential used           :   1
             number of non-local projections:   1
             cutoff =   1.219   1.219


 total charge:   0.000

 atomic composition:
     Be  :  1

 number of electrons: spin up=     1 (   1 per task)  down=     1 (   1 per task) (fourier space)
 number of orbitals : spin up=     1 (   1 per task)  down=     1 (   1 per task) (fourier space)

 supercell:
      cell_name:  cell_default                  
      lattice:    a1=<  20.000   0.000   0.000 >
                  a2=<   0.000  20.000   0.000 >
                  a3=<   0.000   0.000  20.000 >
      reciprocal: b1=<   0.314   0.000   0.000 >
                  b2=<   0.000   0.314   0.000 >
                  b3=<   0.000   0.000   0.314 >
      lattice:    a=      20.000 b=     20.000 c=      20.000
                  alpha=  90.000 beta=  90.000 gamma=  90.000
                  omega=      8000.0

      density cutoff= 12.633  fft= 32x 32x 32(     8536 waves     2134 per task)
      wavefnc cutoff= 12.633  fft= 32x 32x 32(     8536 waves     2134 per task)
      ewald summation: cut radius=    6.37  and  1
                        madelung= 1.76011888

 technical parameters:
      time step=      5.80     ficticious mass=  400000.0
      tolerance=.100E-11 (energy)   0.100E-11 (density)
      maximum iterations =     100 (   10 inner   10 outer )





== Energy Calculation ==


          ============ Grassmann lmbfgs iteration ============
     >>>  ITERATION STARTED AT Fri Aug  6 13:59:58 2010  <<<
    iter.           Energy         DeltaE       DeltaRho 
    ------------------------------------------------------
     -  15 steepest descent iterations performed
      10   -0.9706094061E+00   -0.72064E-02    0.19783E-01
     -  10 steepest descent iterations performed
      20   -0.9933757918E+00   -0.11900E-03    0.42591E-04
      30   -0.9935809185E+00   -0.83221E-06    0.27572E-05
      40   -0.9935824179E+00   -0.55853E-08    0.24503E-08
      50   -0.9935824284E+00   -0.95005E-10    0.37556E-10
      60   -0.9935824285E+00   -0.82823E-12    0.12606E-12
  *** tolerance ok. iteration terminated
     >>>  ITERATION ENDED   AT Fri Aug  6 13:59:59 2010  <<<


==  Summary Of Results  ==

 number of electrons: spin up=    1.00000  down=    1.00000 (real space)

 total     energy    :  -0.9935824285E+00 (   -0.99358E+00/ion)
 total orbital energy:  -0.4031692959E+00 (   -0.40317E+00/electron)
 hartree   energy    :   0.4176945376E+00 (    0.41769E+00/electron)
 exc-corr  energy    :  -0.3682155731E+00 (   -0.36822E+00/electron)
 ion-ion   energy    :  -0.2837297479E+00 (   -0.28373E+00/ion)

 kinetic (planewave) :   0.3024734263E+00 (    0.30247E+00/electron)
 V_local (planewave) :  -0.1354931209E+01 (   -0.13549E+01/electron)
 V_nl    (planewave) :   0.2931261380E+00 (    0.29313E+00/electron)
 V_Coul  (planewave) :   0.8353890752E+00 (    0.83539E+00/electron)
 V_xc.   (planewave) :  -0.4792267260E+00 (   -0.47923E+00/electron)
 Virial Coefficient  :  -0.2332908153E+01

 orbital energies:
    -0.2015846E+00 (  -5.485eV)

 Total PSPW energy   :  -0.9935824285E+00


=== Spin Contamination ===

 <Sexact^2> =    0.00000000000000     
 <S^2>      =    0.00000000000000     



== Center of Charge ==

spin up     (    0.0000,    0.0000,    0.0000 )
spin down   (    0.0000,    0.0000,    0.0000 )
     total  (    0.0000,    0.0000,    0.0000 )
ionic       (    0.0000,    0.0000,    0.0000 )
crystal     (    0.0000,    0.0000,    0.0000 )


== Crystal Dipole ==

mu   =  (    0.0000,    0.0000,    0.0000 ) au
|mu| =     0.0000 au,       0.0000 Debye


== Molecular Dipole wrt Center of Mass ==

mu   =  (    0.0000,    0.0000,    0.0000 ) au
|mu| =     0.0000 au,       0.0000 Debye

 output psi filename:./Be.movecs


== Timing ==

cputime in seconds
  prologue    :   0.595752E+00
  main loop   :   0.109306E+01
  epilogue    :   0.201607E-02
  total       :   0.169083E+01
  cputime/step:   0.714421E-02       (     153 evalulations,      58 linesearches)


Time spent doing                        total          step
  FFTs                       :   0.117238E+00  0.766263E-03
  dot products               :   0.184746E-01  0.120749E-03
  geodesic                   :   0.259432E+00  0.169563E-02
  ffm_dgemm                  :   0.479881E-02  0.313647E-04
  fmf_dgemm                  :   0.243958E+00  0.159450E-02
  m_diagonalize              :   0.939808E-03  0.614254E-05
    - m_tredq                :   0.000000E+00  0.000000E+00
    - m_getdiags             :   0.000000E+00  0.000000E+00
    - m_tqliq                :   0.000000E+00  0.000000E+00
    - m_eigsrt               :   0.000000E+00  0.000000E+00
  exchange correlation       :   0.441653E+00  0.288662E-02
  local pseudopotentials     :   0.820160E-04  0.536052E-06
  non-local pseudopotentials :   0.327165E-01  0.213833E-03
  hartree potentials         :   0.635409E-02  0.415300E-04
  ion-ion interaction        :   0.540972E-03  0.353576E-05
  structure factors          :   0.300193E-02  0.196204E-04
  phase factors              :   0.786781E-05  0.514236E-07
  masking and packing        :   0.322089E-01  0.210515E-03
  queue fft                  :   0.121455E+00  0.793825E-03
  queue fft (serial)         :   0.817418E-01  0.534260E-03
  queue fft (message passing):   0.370053E-01  0.241865E-03
  HFX potential              :   0.000000E+00  0.000000E+00
  qmmm LJ                    :   0.000000E+00  0.000000E+00
  qmmm residual Q            :   0.000000E+00  0.000000E+00

     >>>  JOB COMPLETED     AT Fri Aug  6 13:59:59 2010  <<<

 Task  times  cpu:        1.7s     wall:        1.7s


                                NWChem Input Module
                                -------------------




                         Geometry "geometry" -> "        "
                         ---------------------------------

 Output coordinates in a.u. (scale by  1.000000000 to convert to a.u.)

  No.       Tag          Charge          X              Y              Z
 ---- ---------------- ---------- -------------- -------------- --------------
    1 Be                   4.0000     0.00000000     0.00000000     0.00000000
    2 bq1                 50.0000     0.00000000     0.00000000   100.00000000
    3 bq2                -50.0000     0.00000000     0.00000000  -100.00000000

      Atomic Mass 
      ----------- 

      Be                 9.012180


 Effective nuclear repulsion energy (a.u.)       0.0000000000

            Nuclear Dipole moment (a.u.) 
            ----------------------------
        X                 Y               Z
 ---------------- ---------------- ----------------
     0.0000000000     0.0000000000     0.0000000000


            XYZ format geometry
            -------------------
     3
 geometry
 Be                    0.00000000     0.00000000     0.00000000
 bq1                   0.00000000     0.00000000    52.91772490
 bq2                   0.00000000     0.00000000   -52.91772490

          ****************************************************
          *                                                  *
          *               NWPW PSPW Calculation              *
          *                                                  *
          *  [ (Grassman/Stiefel manifold implementation) ]  *
          *                                                  *
          *      [ NorthWest Chemistry implementation ]      *
          *                                                  *
          *            version #5.10   06/12/02              *
          *                                                  *
          *    This code was developed by Eric J. Bylaska,   *
          *    and was based upon algorithms and code        *
          *    developed by the group of Prof. John H. Weare *
          *                                                  *
          ****************************************************
     >>>  JOB STARTED       AT Fri Aug  6 13:59:59 2010  <<<
          ================ input data ========================

 input psi filename:./Be.movecs

 number of processors used:         4
 processor grid           :   4 x   1
 parallel mapping         :      slab
 parallel mapping         :  balanced

 options:
      boundary conditions  = periodic    (version3)
      electron spin        = restricted
      exchange-correlation = LDA (Vosko et al) parameterization

 elements involved in the cluster:
      1: Be    core charge:  2.0000  lmax=  1
             comment    : Hamann pseudopotential
             pseudpotential type            :   0
             highest angular component      :   1
             local potential used           :   1
             number of non-local projections:   1
             cutoff =   1.219   1.219


 total charge:   0.000

 atomic composition:
     Be  :  1

 number of electrons: spin up=     1 (   1 per task)  down=     1 (   1 per task) (fourier space)
 number of orbitals : spin up=     1 (   1 per task)  down=     1 (   1 per task) (fourier space)

 supercell:
      cell_name:  cell_default                  
      lattice:    a1=<  20.000   0.000   0.000 >
                  a2=<   0.000  20.000   0.000 >
                  a3=<   0.000   0.000  20.000 >
      reciprocal: b1=<   0.314   0.000   0.000 >
                  b2=<   0.000   0.314   0.000 >
                  b3=<   0.000   0.000   0.314 >
      lattice:    a=      20.000 b=     20.000 c=      20.000
                  alpha=  90.000 beta=  90.000 gamma=  90.000
                  omega=      8000.0

      density cutoff= 12.633  fft= 32x 32x 32(     8536 waves     2134 per task)
      wavefnc cutoff= 12.633  fft= 32x 32x 32(     8536 waves     2134 per task)
      ewald summation: cut radius=    6.37  and  1
                        madelung= 1.76011888

 technical parameters:
      time step=      5.80     ficticious mass=  400000.0
      tolerance=.100E-11 (energy)   0.100E-11 (density)
      maximum iterations =     100 (   10 inner   10 outer )





== Energy Calculation ==


          ============ Grassmann lmbfgs iteration ============
     >>>  ITERATION STARTED AT Fri Aug  6 14:00:00 2010  <<<
    iter.           Energy         DeltaE       DeltaRho 
    ------------------------------------------------------
      10   -0.9958383693E+00   -0.44226E-05    0.16386E-03
      20   -0.9958458455E+00   -0.68780E-07    0.93106E-07
      30   -0.9958459133E+00   -0.49963E-09    0.40159E-09
      40   -0.9958459140E+00   -0.35756E-11    0.27531E-11
      50   -0.9958459140E+00   -0.76850E-12    0.19265E-13
  *** tolerance ok. iteration terminated
     >>>  ITERATION ENDED   AT Fri Aug  6 14:00:00 2010  <<<


==  Summary Of Results  ==

 number of electrons: spin up=    1.00000  down=    1.00000 (real space)

 total     energy    :  -0.9958459140E+00 (   -0.99585E+00/ion)

 QM Energies
------------
 total  QM energy    :  -0.9912713324E+00 (   -0.99127E+00/ion)
 total orbital energy:  -0.4071479714E+00 (   -0.40715E+00/electron)
 hartree   energy    :   0.4156511080E+00 (    0.41565E+00/electron)
 exc-corr  energy    :  -0.3671363990E+00 (   -0.36714E+00/electron)
 ion-ion   energy    :  -0.2837297479E+00 (   -0.28373E+00/ion)

 kinetic (planewave) :   0.3009130626E+00 (    0.30091E+00/electron)
 V_local (planewave) :  -0.1352390949E+01 (   -0.13524E+01/electron)
 V_nl    (planewave) :   0.2908470117E+00 (    0.29085E+00/electron)
 V_Coul  (planewave) :   0.8313022160E+00 (    0.83130E+00/electron)
 V_xc.   (planewave) :  -0.4778193123E+00 (   -0.47782E+00/electron)
 Virial Coefficient  :  -0.2353041865E+01

 Charge Field Energies
 ---------------------
 Charge Field Energy        :  -0.4574581597E-02
 - Charge Field/Electron    :  -0.4574581597E-02
 - Charge Field/Ion         :   0.0000000000E+00
 - Charge Field/Charge Field:   0.0000000000E+00

 orbital energies:
    -0.2035740E+00 (  -5.540eV)

 Total PSPW energy   :  -0.9958459140E+00


=== Spin Contamination ===

 <Sexact^2> =    0.00000000000000     
 <S^2>      =    0.00000000000000     



== Center of Charge ==

spin up     (    0.0000,    0.0000,    0.2289 )
spin down   (    0.0000,    0.0000,    0.2289 )
     total  (    0.0000,    0.0000,    0.2289 )
ionic       (    0.0000,    0.0000,    0.0000 )
crystal     (    0.0000,    0.0000,    0.0000 )


== Crystal Dipole ==

mu   =  (    0.0000,    0.0000,   -0.4577 ) au
|mu| =     0.4577 au,       1.1633 Debye


== Molecular Dipole wrt Center of Mass ==

mu   =  (    0.0000,    0.0000,   -0.4577 ) au
|mu| =     0.4577 au,       1.1633 Debye

 output psi filename:./Be.movecs


== Timing ==

cputime in seconds
  prologue    :   0.186863E+00
  main loop   :   0.741680E+00
  epilogue    :   0.236893E-02
  total       :   0.930912E+00
  cputime/step:   0.749172E-02       (      99 evalulations,      43 linesearches)


Time spent doing                        total          step
  FFTs                       :   0.760657E-01  0.768341E-03
  dot products               :   0.111224E-01  0.112348E-03
  geodesic                   :   0.196973E+00  0.198962E-02
  ffm_dgemm                  :   0.228606E-02  0.230915E-04
  fmf_dgemm                  :   0.178937E+00  0.180744E-02
  m_diagonalize              :   0.693054E-03  0.700054E-05
    - m_tredq                :   0.000000E+00  0.000000E+00
    - m_getdiags             :   0.000000E+00  0.000000E+00
    - m_tqliq                :   0.000000E+00  0.000000E+00
    - m_eigsrt               :   0.000000E+00  0.000000E+00
  exchange correlation       :   0.288563E+00  0.291478E-02
  local pseudopotentials     :   0.820160E-04  0.828444E-06
  non-local pseudopotentials :   0.203092E-01  0.205144E-03
  hartree potentials         :   0.469732E-02  0.474477E-04
  ion-ion interaction        :   0.457048E-03  0.461665E-05
  structure factors          :   0.199962E-02  0.201981E-04
  phase factors              :   0.905891E-05  0.915041E-07
  masking and packing        :   0.209550E-01  0.211666E-03
  queue fft                  :   0.783169E-01  0.791080E-03
  queue fft (serial)         :   0.526567E-01  0.531886E-03
  queue fft (message passing):   0.239244E-01  0.241660E-03
  HFX potential              :   0.000000E+00  0.000000E+00
  qmmm LJ                    :   0.000000E+00  0.000000E+00
  qmmm residual Q            :   0.000000E+00  0.000000E+00

     >>>  JOB COMPLETED     AT Fri Aug  6 14:00:00 2010  <<<

 Task  times  cpu:        0.9s     wall:        0.9s


                                NWChem Input Module
                                -------------------




                         Geometry "geometry" -> "        "
                         ---------------------------------

 Output coordinates in a.u. (scale by  1.000000000 to convert to a.u.)

  No.       Tag          Charge          X              Y              Z
 ---- ---------------- ---------- -------------- -------------- --------------
    1 Be                   4.0000     0.00000000     0.00000000     0.00000000

      Atomic Mass 
      ----------- 

      Be                 9.012180


 Effective nuclear repulsion energy (a.u.)       0.0000000000

            Nuclear Dipole moment (a.u.) 
            ----------------------------
        X                 Y               Z
 ---------------- ---------------- ----------------
     0.0000000000     0.0000000000     0.0000000000


            XYZ format geometry
            -------------------
     1
 geometry
 Be                    0.00000000     0.00000000     0.00000000

          ****************************************************
          *                                                  *
          *               NWPW PSPW Calculation              *
          *                                                  *
          *  [ (Grassman/Stiefel manifold implementation) ]  *
          *                                                  *
          *      [ NorthWest Chemistry implementation ]      *
          *                                                  *
          *            version #5.10   06/12/02              *
          *                                                  *
          *    This code was developed by Eric J. Bylaska,   *
          *    and was based upon algorithms and code        *
          *    developed by the group of Prof. John H. Weare *
          *                                                  *
          ****************************************************
     >>>  JOB STARTED       AT Fri Aug  6 14:00:00 2010  <<<
          ================ input data ========================
 pseudopotential is not correctly formatted:Be.vpp              

 Generated formatted_filename: ./Be.vpp

 input psi filename:./Be.movecs

 number of processors used:         4
 processor grid           :   4 x   1
 parallel mapping         :      slab
 parallel mapping         :  balanced

 options:
      boundary conditions  = aperiodic   (version4)
      electron spin        = restricted
      exchange-correlation = LDA (Vosko et al) parameterization

 elements involved in the cluster:
      1: Be    core charge:  2.0000  lmax=  1
             comment    : Hamann pseudopotential
             pseudpotential type            :   0
             highest angular component      :   1
             local potential used           :   1
             number of non-local projections:   1
             aperiodic cutoff radius        :  1.000
             cutoff =   1.219   1.219


 total charge:   0.000

 atomic composition:
     Be  :  1

 number of electrons: spin up=     1 (   1 per task)  down=     1 (   1 per task) (fourier space)
 number of orbitals : spin up=     1 (   1 per task)  down=     1 (   1 per task) (fourier space)

 supercell:
      cell_name:  cell_default                  
      lattice:    a1=<  20.000   0.000   0.000 >
                  a2=<   0.000  20.000   0.000 >
                  a3=<   0.000   0.000  20.000 >
      reciprocal: b1=<   0.314   0.000   0.000 >
                  b2=<   0.000   0.314   0.000 >
                  b3=<   0.000   0.000   0.314 >
      lattice:    a=      20.000 b=     20.000 c=      20.000
                  alpha=  90.000 beta=  90.000 gamma=  90.000
                  omega=      8000.0

      density cutoff= 12.633  fft= 32x 32x 32(     8536 waves     2134 per task)
      wavefnc cutoff= 12.633  fft= 32x 32x 32(     8536 waves     2134 per task)

 technical parameters:
      time step=      5.80     ficticious mass=  400000.0
      tolerance=.100E-11 (energy)   0.100E-11 (density)
      maximum iterations =     100 (   10 inner   10 outer )





== Energy Calculation ==


          ============ Grassmann lmbfgs iteration ============
     >>>  ITERATION STARTED AT Fri Aug  6 14:00:02 2010  <<<
    iter.           Energy         DeltaE       DeltaRho 
    ------------------------------------------------------
      10   -0.9935794751E+00   -0.28026E-05    0.16532E-03
      20   -0.9935831862E+00   -0.13898E-07    0.11020E-06
      30   -0.9935831996E+00   -0.33505E-10    0.12869E-09
      40   -0.9935831996E+00   -0.81635E-12    0.13647E-12
  *** tolerance ok. iteration terminated
     >>>  ITERATION ENDED   AT Fri Aug  6 14:00:03 2010  <<<


==  Summary Of Results  ==

 number of electrons: spin up=    1.00000  down=    1.00000 (real space)

 total     energy    :  -0.9935831996E+00 (   -0.99358E+00/ion)
 total orbital energy:  -0.4118350343E+00 (   -0.41184E+00/electron)
 hartree   energy    :   0.6927593371E+00 (    0.69276E+00/electron)
 exc-corr  energy    :  -0.3682156311E+00 (   -0.36822E+00/electron)
 ion-ion   energy    :   0.0000000000E+00 (    0.00000E+00/ion)

 kinetic (planewave) :   0.3024743530E+00 (    0.30247E+00/electron)
 V_local (planewave) :  -0.1913726552E+01 (   -0.19137E+01/electron)
 V_nl    (planewave) :   0.2931252931E+00 (    0.29313E+00/electron)
 V_Coul  (planewave) :   0.1385518674E+01 (    0.13855E+01/electron)
 V_xc.   (planewave) :  -0.4792268030E+00 (   -0.47923E+00/electron)
 Virial Coefficient  :  -0.2361553567E+01

 orbital energies:
    -0.2059175E+00 (  -5.603eV)

 Total PSPW energy   :  -0.9935831996E+00


=== Spin Contamination ===

 <Sexact^2> =    0.00000000000000     
 <S^2>      =    0.00000000000000     



== Center of Charge ==

spin up     (    0.0000,    0.0000,    0.0000 )
spin down   (    0.0000,    0.0000,    0.0000 )
     total  (    0.0000,    0.0000,    0.0000 )
ionic       (    0.0000,    0.0000,    0.0000 )
crystal     (    0.0000,    0.0000,    0.0000 )


== Crystal Dipole ==

mu   =  (    0.0000,    0.0000,    0.0000 ) au
|mu| =     0.0000 au,       0.0000 Debye


== Molecular Dipole wrt Center of Mass ==

mu   =  (    0.0000,    0.0000,    0.0000 ) au
|mu| =     0.0000 au,       0.0000 Debye

 output psi filename:./Be.movecs


== Timing ==

cputime in seconds
  prologue    :   0.139464E+01
  main loop   :   0.126279E+01
  epilogue    :   0.199318E-02
  total       :   0.265942E+01
  cputime/step:   0.145148E-01       (      87 evalulations,      37 linesearches)


Time spent doing                        total          step
  FFTs                       :   0.619819E+00  0.712436E-02
  dot products               :   0.126157E-01  0.145008E-03
  geodesic                   :   0.176633E+00  0.203027E-02
  ffm_dgemm                  :   0.228533E-02  0.262681E-04
  fmf_dgemm                  :   0.160160E+00  0.184092E-02
  m_diagonalize              :   0.619383E-03  0.711935E-05
    - m_tredq                :   0.000000E+00  0.000000E+00
    - m_getdiags             :   0.000000E+00  0.000000E+00
    - m_tqliq                :   0.000000E+00  0.000000E+00
    - m_eigsrt               :   0.000000E+00  0.000000E+00
  exchange correlation       :   0.254451E+00  0.292473E-02
  local pseudopotentials     :   0.334287E-02  0.384238E-04
  non-local pseudopotentials :   0.216041E-01  0.248323E-03
  hartree potentials         :   0.000000E+00  0.000000E+00
  ion-ion interaction        :   0.000000E+00  0.000000E+00
  structure factors          :   0.185061E-02  0.212713E-04
  phase factors              :   0.810523E-05  0.931636E-07
  masking and packing        :   0.194358E-01  0.223400E-03
  queue fft                  :   0.719135E-01  0.826592E-03
  queue fft (serial)         :   0.468224E-01  0.538188E-03
  queue fft (message passing):   0.234361E-01  0.269381E-03
  HFX potential              :   0.000000E+00  0.000000E+00
  qmmm LJ                    :   0.000000E+00  0.000000E+00
  qmmm residual Q            :   0.000000E+00  0.000000E+00

     >>>  JOB COMPLETED     AT Fri Aug  6 14:00:03 2010  <<<

 Task  times  cpu:        2.6s     wall:        2.7s


                                NWChem Input Module
                                -------------------




                         Geometry "geometry" -> "        "
                         ---------------------------------

 Output coordinates in a.u. (scale by  1.000000000 to convert to a.u.)

  No.       Tag          Charge          X              Y              Z
 ---- ---------------- ---------- -------------- -------------- --------------
    1 Be                   4.0000     0.00000000     0.00000000     0.00000000
    2 bq1                 50.0000     0.00000000     0.00000000   100.00000000
    3 bq2                -50.0000     0.00000000     0.00000000  -100.00000000

      Atomic Mass 
      ----------- 

      Be                 9.012180


 Effective nuclear repulsion energy (a.u.)       0.0000000000

            Nuclear Dipole moment (a.u.) 
            ----------------------------
        X                 Y               Z
 ---------------- ---------------- ----------------
     0.0000000000     0.0000000000     0.0000000000


            XYZ format geometry
            -------------------
     3
 geometry
 Be                    0.00000000     0.00000000     0.00000000
 bq1                   0.00000000     0.00000000    52.91772490
 bq2                   0.00000000     0.00000000   -52.91772490

          ****************************************************
          *                                                  *
          *               NWPW PSPW Calculation              *
          *                                                  *
          *  [ (Grassman/Stiefel manifold implementation) ]  *
          *                                                  *
          *      [ NorthWest Chemistry implementation ]      *
          *                                                  *
          *            version #5.10   06/12/02              *
          *                                                  *
          *    This code was developed by Eric J. Bylaska,   *
          *    and was based upon algorithms and code        *
          *    developed by the group of Prof. John H. Weare *
          *                                                  *
          ****************************************************
     >>>  JOB STARTED       AT Fri Aug  6 14:00:03 2010  <<<
          ================ input data ========================

 input psi filename:./Be.movecs

 number of processors used:         4
 processor grid           :   4 x   1
 parallel mapping         :      slab
 parallel mapping         :  balanced

 options:
      boundary conditions  = aperiodic   (version4)
      electron spin        = restricted
      exchange-correlation = LDA (Vosko et al) parameterization

 elements involved in the cluster:
      1: Be    core charge:  2.0000  lmax=  1
             comment    : Hamann pseudopotential
             pseudpotential type            :   0
             highest angular component      :   1
             local potential used           :   1
             number of non-local projections:   1
             aperiodic cutoff radius        :  1.000
             cutoff =   1.219   1.219


 total charge:   0.000

 atomic composition:
     Be  :  1

 number of electrons: spin up=     1 (   1 per task)  down=     1 (   1 per task) (fourier space)
 number of orbitals : spin up=     1 (   1 per task)  down=     1 (   1 per task) (fourier space)

 supercell:
      cell_name:  cell_default                  
      lattice:    a1=<  20.000   0.000   0.000 >
                  a2=<   0.000  20.000   0.000 >
                  a3=<   0.000   0.000  20.000 >
      reciprocal: b1=<   0.314   0.000   0.000 >
                  b2=<   0.000   0.314   0.000 >
                  b3=<   0.000   0.000   0.314 >
      lattice:    a=      20.000 b=     20.000 c=      20.000
                  alpha=  90.000 beta=  90.000 gamma=  90.000
                  omega=      8000.0

      density cutoff= 12.633  fft= 32x 32x 32(     8536 waves     2134 per task)
      wavefnc cutoff= 12.633  fft= 32x 32x 32(     8536 waves     2134 per task)

 technical parameters:
      time step=      5.80     ficticious mass=  400000.0
      tolerance=.100E-11 (energy)   0.100E-11 (density)
      maximum iterations =     100 (   10 inner   10 outer )





== Energy Calculation ==


          ============ Grassmann lmbfgs iteration ============
     >>>  ITERATION STARTED AT Fri Aug  6 14:00:03 2010  <<<
    iter.           Energy         DeltaE       DeltaRho 
    ------------------------------------------------------
      10   -0.9957862826E+00   -0.41386E-05    0.15639E-03
      20   -0.9957932402E+00   -0.64465E-07    0.90233E-07
      30   -0.9957933036E+00   -0.45808E-09    0.37211E-09
      40   -0.9957933042E+00   -0.32783E-11    0.24942E-11
      50   -0.9957933042E+00   -0.71010E-12    0.18194E-13
  *** tolerance ok. iteration terminated
     >>>  ITERATION ENDED   AT Fri Aug  6 14:00:04 2010  <<<


==  Summary Of Results  ==

 number of electrons: spin up=    1.00000  down=    1.00000 (real space)

 total     energy    :  -0.9957933042E+00 (   -0.99579E+00/ion)

 QM Energies
------------
 total  QM energy    :  -0.9913300058E+00 (   -0.99133E+00/ion)
 total orbital energy:  -0.4157735029E+00 (   -0.41577E+00/electron)
 hartree   energy    :   0.6907185860E+00 (    0.69072E+00/electron)
 exc-corr  energy    :  -0.3671885702E+00 (   -0.36719E+00/electron)
 ion-ion   energy    :   0.0000000000E+00 (    0.00000E+00/ion)

 kinetic (planewave) :   0.3009877385E+00 (    0.30099E+00/electron)
 V_local (planewave) :  -0.1911264094E+01 (   -0.19113E+01/electron)
 V_nl    (planewave) :   0.2909530352E+00 (    0.29095E+00/electron)
 V_Coul  (planewave) :   0.1381437172E+01 (    0.13814E+01/electron)
 V_xc.   (planewave) :  -0.4778873549E+00 (   -0.47789E+00/electron)
 Virial Coefficient  :  -0.2381363590E+01

 Charge Field Energies
 ---------------------
 Charge Field Energy        :  -0.4463298427E-02
 - Charge Field/Electron    :  -0.4463298427E-02
 - Charge Field/Ion         :   0.0000000000E+00
 - Charge Field/Charge Field:   0.0000000000E+00

 orbital energies:
    -0.2078868E+00 (  -5.657eV)

 Total PSPW energy   :  -0.9957933042E+00


=== Spin Contamination ===

 <Sexact^2> =    0.00000000000000     
 <S^2>      =    0.00000000000000     



== Center of Charge ==

spin up     (    0.0000,    0.0000,    0.2233 )
spin down   (    0.0000,    0.0000,    0.2233 )
     total  (    0.0000,    0.0000,    0.2233 )
ionic       (    0.0000,    0.0000,    0.0000 )
crystal     (    0.0000,    0.0000,    0.0000 )


== Crystal Dipole ==

mu   =  (    0.0000,    0.0000,   -0.4466 ) au
|mu| =     0.4466 au,       1.1350 Debye


== Molecular Dipole wrt Center of Mass ==

mu   =  (    0.0000,    0.0000,   -0.4466 ) au
|mu| =     0.4466 au,       1.1350 Debye

 output psi filename:./Be.movecs


== Timing ==

cputime in seconds
  prologue    :   0.453770E-01
  main loop   :   0.146633E+01
  epilogue    :   0.243187E-02
  total       :   0.151414E+01
  cputime/step:   0.145181E-01       (     101 evalulations,      43 linesearches)


Time spent doing                        total          step
  FFTs                       :   0.718661E+00  0.711545E-02
  dot products               :   0.124185E-01  0.122955E-03
  geodesic                   :   0.204625E+00  0.202599E-02
  ffm_dgemm                  :   0.250326E-02  0.247848E-04
  fmf_dgemm                  :   0.185548E+00  0.183711E-02
  m_diagonalize              :   0.713080E-03  0.706020E-05
    - m_tredq                :   0.000000E+00  0.000000E+00
    - m_getdiags             :   0.000000E+00  0.000000E+00
    - m_tqliq                :   0.000000E+00  0.000000E+00
    - m_eigsrt               :   0.000000E+00  0.000000E+00
  exchange correlation       :   0.295055E+00  0.292134E-02
  local pseudopotentials     :   0.334001E-02  0.330694E-04
  non-local pseudopotentials :   0.234411E-01  0.232090E-03
  hartree potentials         :   0.000000E+00  0.000000E+00
  ion-ion interaction        :   0.000000E+00  0.000000E+00
  structure factors          :   0.208902E-02  0.206834E-04
  phase factors              :   0.786781E-05  0.778991E-07
  masking and packing        :   0.221029E-01  0.218841E-03
  queue fft                  :   0.827978E-01  0.819780E-03
  queue fft (serial)         :   0.544086E-01  0.538699E-03
  queue fft (message passing):   0.264452E-01  0.261834E-03
  HFX potential              :   0.000000E+00  0.000000E+00
  qmmm LJ                    :   0.000000E+00  0.000000E+00
  qmmm residual Q            :   0.000000E+00  0.000000E+00

     >>>  JOB COMPLETED     AT Fri Aug  6 14:00:04 2010  <<<

 Task  times  cpu:        1.5s     wall:        1.5s
 Summary of allocated global arrays
-----------------------------------
  No active global arrays



                         GA Statistics for process    0
                         ------------------------------

       create   destroy   get      put      acc     scatter   gather  read&inc
calls:    0        0        0        0        0        0        0        0     
number of processes/call 0.00e+00 0.00e+00 0.00e+00 0.00e+00 0.00e+00
bytes total:             0.00e+00 0.00e+00 0.00e+00 0.00e+00 0.00e+00 0.00e+00
bytes remote:            0.00e+00 0.00e+00 0.00e+00 0.00e+00 0.00e+00 0.00e+00
Max memory consumed for GA by this process: 0 bytes
MA_summarize_allocated_blocks: starting scan ...
MA_summarize_allocated_blocks: scan completed: 0 heap blocks, 0 stack blocks
MA usage statistics:

	allocation statistics:
					      heap	     stack
					      ----	     -----
	current number of blocks	         0	         0
	maximum number of blocks	       177	         8
	current total bytes		         0	         0
	maximum total bytes		   4826640	   1760632
	maximum total K-bytes		      4827	      1761
	maximum total M-bytes		         5	         2


                                NWChem Input Module
                                -------------------





                                     CITATION
                                     --------
                Please cite the following reference when publishing
                           results obtained with NWChem:

                 M. Valiev, E.J. Bylaska, N. Govind, K. Kowalski,
              T.P. Straatsma, H.J.J. van Dam, D. Wang, J. Nieplocha,
                        E. Apra, T.L. Windus, W.A. de Jong
                 "NWChem: a comprehensive and scalable open-source
                  solution for large scale molecular simulations"
                      Comput. Phys. Commun. 181, 1477 (2010)
                           doi:10.1016/j.cpc.2010.04.018

                              AUTHORS & CONTRIBUTORS
                              ----------------------
      E. J. Bylaska, W. A. de Jong, N. Govind, K. Kowalski, T. P. Straatsma,
     M. Valiev, H. J. J. Van Dam, D. Wang, E. Apra, T. L. Windus, J. Hammond,
     J. Autschbach, P. Nichols, S. Hirata, M. T. Hackler, Y. Zhao, P.-D. Fan,
      R. J. Harrison, M. Dupuis, D. M. A. Smith, J. Nieplocha, V. Tipparaju,
          M. Krishnan, A. Vazquez-Mayagoitia, L. Jensen, M. Swart, Q. Wu,
          T. Van Voorhis, A. A. Auer, M. Nooijen, L. D. Crosby, E. Brown,
             G. Cisneros, G. I. Fann, H. Fruchtl, J. Garza, K. Hirao,
        R. Kendall, J. A. Nichols, K. Tsemekhman, K. Wolinski, J. Anchell,
       D. Bernholdt, P. Borowski, T. Clark, D. Clerc, H. Dachsel, M. Deegan,
        K. Dyall, D. Elwood, E. Glendening, M. Gutowski, A. Hess, J. Jaffe,
        B. Johnson, J. Ju, R. Kobayashi, R. Kutteh, Z. Lin, R. Littlefield,
    X. Long, B. Meng, T. Nakajima, S. Niu, L. Pollack, M. Rosing, G. Sandrone,
       M. Stave, H. Taylor, G. Thomas, J. H. van Lenthe, A. Wong, Z. Zhang.

 Total times  cpu:        6.8s     wall:        6.8s
