 argument  1 = dft_feco5.nw



============================== echo of input deck ==============================
echo

start dft_feco5

# test of DFT with Fe(CO)5 using cd basis and xc basis

# There are 2 million integrals

geometry units au
  symmetry group d3h

  fe 0.0 0.0 0.0

  c 0.0 0.0 3.414358
  o 0.0 0.0 5.591323

  c 2.4417087 2.4417087 0.0
  o 3.9810552 3.9810552 0.0
end

basis "ao basis"
  o library "DZVP (DFT Orbital)"
  c library "DZVP (DFT Orbital)"
 fe library "DZVP (DFT Orbital)"
end
basis "cd basis"
  o library "DGauss A1 DFT Coulomb Fitting"
  c library "DGauss A1 DFT Coulomb Fitting"
 fe library "DGauss A1 DFT Coulomb Fitting"
end

dft
end
title  "case t19 --- Default DFT (energy)"
task dft energy

dft
 xc becke88 perdew86
end
title "case t20 --- DFT (energy) with Becke '88 and Perdew '86"
task dft energy

dft
 xc becke88 perdew91
end
title "case t21 --- Default DFT (energy) with Becke '88 and Perdew '91"
task dft energy

basis "xc basis"
  o library "DGauss A1 DFT Exchange Fitting"
  c library "DGauss A1 DFT Exchange Fitting"
 fe library "DGauss A1 DFT Exchange Fitting"
end

dft
  xc acm
end
title "case t22 --- (acm) DFT (energy)"
task dft energy

dft
  xc b3lyp
end
title "case t23 --- (b3lyp) DFT (energy)"
task dft energy



================================================================================


                                         
                                         


              Northwest Computational Chemistry Package (NWChem) 6.0
              ------------------------------------------------------


                    Environmental Molecular Sciences Laboratory
                       Pacific Northwest National Laboratory
                                Richland, WA 99352

                              Copyright (c) 1994-2010
                       Pacific Northwest National Laboratory
                            Battelle Memorial Institute

             NWChem is an open-source computational chemistry package
                        distributed under the terms of the
                      Educational Community License (ECL) 2.0
             A copy of the license is included with this distribution
                              in the LICENSE.TXT file

                                  ACKNOWLEDGMENT
                                  --------------

            This software and its documentation were developed at the
            EMSL at Pacific Northwest National Laboratory, a multiprogram
            national laboratory, operated for the U.S. Department of Energy
            by Battelle under Contract Number DE-AC05-76RL01830. Support
            for this work was provided by the Department of Energy Office
            of Biological and Environmental Research, Office of Basic
            Energy Sciences, and the Office of Advanced Scientific Computing.


           Job information
           ---------------

    hostname      = arcen
    program       = /home/d3y133/nwchem-releases/nwchem-6.0-gfortran/bin/LINUX64/nwchem
    date          = Fri Aug  6 13:47:30 2010

    compiled      = Fri_Aug_06_13:42:42_2010
    source        = /home/d3y133/nwchem-releases/nwchem-6.0-gfortran
    nwchem branch = 6.0
    input         = dft_feco5.nw
    prefix        = dft_feco5.
    data base     = ./dft_feco5.db
    status        = startup
    nproc         =        4
    time left     =     -1s



           Memory information
           ------------------

    heap     =   13107201 doubles =    100.0 Mbytes
    stack    =   13107201 doubles =    100.0 Mbytes
    global   =   26214400 doubles =    200.0 Mbytes (distinct from heap & stack)
    total    =   52428802 doubles =    400.0 Mbytes
    verify   = yes
    hardfail = no 


           Directory information
           ---------------------

  0 permanent = .
  0 scratch   = .




                                NWChem Input Module
                                -------------------


 Turning off AUTOSYM since
 SYMMETRY directive was detected!


          ------
          auto-z
          ------
  Looking for out-of-plane bends


                             Geometry "geometry" -> ""
                             -------------------------

 Output coordinates in a.u. (scale by  1.000000000 to convert to a.u.)

  No.       Tag          Charge          X              Y              Z
 ---- ---------------- ---------- -------------- -------------- --------------
    1 fe                  26.0000     0.00000000     0.00000000     0.00000000
    2 c                    6.0000     0.00000000     0.00000000     3.41435800
    3 c                    6.0000     0.00000000     0.00000000    -3.41435800
    4 o                    8.0000     0.00000000     0.00000000     5.59132300
    5 o                    8.0000     0.00000000     0.00000000    -5.59132300
    6 c                    6.0000     2.44170870     2.44170870     0.00000000
    7 c                    6.0000    -3.33543611     0.89372741     0.00000000
    8 c                    6.0000     0.89372741    -3.33543611     0.00000000
    9 o                    8.0000     3.98105520     3.98105520     0.00000000
   10 o                    8.0000    -5.43822254     1.45716734     0.00000000
   11 o                    8.0000     1.45716734    -5.43822254     0.00000000

      Atomic Mass 
      ----------- 

      fe                55.934900
      c                 12.000000
      o                 15.994910


 Effective nuclear repulsion energy (a.u.)     798.4956180942

            Nuclear Dipole moment (a.u.) 
            ----------------------------
        X                 Y               Z
 ---------------- ---------------- ----------------
     0.0000000000     0.0000000000     0.0000000000

      Symmetry information
      --------------------

 Group name             D3h       
 Group number             27
 Group order              12
 No. of unique centers     5

      Symmetry unique atoms

     1    2    4    6    9



                                Z-matrix (autoz)
                                -------- 

 Units are Angstrom for bonds and degrees for angles

      Type          Name      I     J     K     L     M      Value
      ----------- --------  ----- ----- ----- ----- ----- ----------
    1 Stretch                  1     2                       1.80680
    2 Stretch                  1     3                       1.80680
    3 Stretch                  1     6                       1.82730
    4 Stretch                  1     7                       1.82730
    5 Stretch                  1     8                       1.82730
    6 Stretch                  2     4                       1.15200
    7 Stretch                  3     5                       1.15200
    8 Stretch                  6     9                       1.15200
    9 Stretch                  7    10                       1.15200
   10 Stretch                  8    11                       1.15200
   11 Bend                     2     1     6                90.00000
   12 Bend                     2     1     7                90.00000
   13 Bend                     2     1     8                90.00000
   14 Bend                     3     1     6                90.00000
   15 Bend                     3     1     7                90.00000
   16 Bend                     3     1     8                90.00000
   17 Bend                     4     1     6                90.00000
   18 Bend                     4     1     7                90.00000
   19 Bend                     4     1     8                90.00000
   20 Bend                     5     1     6                90.00000
   21 Bend                     5     1     7                90.00000
   22 Bend                     5     1     8                90.00000
   23 Bend                     6     1     7               120.00000
   24 Bend                     6     1     8               120.00000
   25 Bend                     7     1     8               120.00000
   26 Bend                     9     1     2                90.00000
   27 Bend                     9     1     3                90.00000
   28 Bend                     9     1     7               120.00000
   29 Bend                     9     1     8               120.00000
   30 Bend                    10     1     2                90.00000
   31 Bend                    10     1     3                90.00000
   32 Bend                    10     1     6               120.00000
   33 Bend                    10     1     8               120.00000
   34 Bend                    11     1     2                90.00000
   35 Bend                    11     1     3                90.00000
   36 Bend                    11     1     6               120.00000
   37 Bend                    11     1     7               120.00000
   38 Torsion                  1     2     6     9         180.00000
   39 Torsion                  1     2     7    10         180.00000
   40 Torsion                  1     2     8    11        -180.00000
   41 Torsion                  1     3     6     9        -180.00000
   42 Torsion                  1     3     7    10        -180.00000
   43 Torsion                  1     3     8    11         180.00000
   44 Torsion                  1     6     2     4         180.00000
   45 Torsion                  1     6     3     5        -180.00000
   46 Torsion                  1     6     7    10         180.00000
   47 Torsion                  1     6     8    11         180.00000
   48 Torsion                  1     7     2     4        -180.00000
   49 Torsion                  1     7     3     5         180.00000
   50 Torsion                  1     7     6     9         180.00000
   51 Torsion                  1     7     8    11         180.00000
   52 Torsion                  1     8     2     4         180.00000
   53 Torsion                  1     8     3     5        -180.00000
   54 Torsion                  1     8     6     9         180.00000
   55 Torsion                  1     8     7    10         180.00000


            XYZ format geometry
            -------------------
    11
 geometry
 fe                    0.00000000     0.00000000     0.00000000
 c                     0.00000000     0.00000000     1.80680057
 c                     0.00000000     0.00000000    -1.80680057
 o                     0.00000000     0.00000000     2.95880092
 o                     0.00000000     0.00000000    -2.95880092
 c                     1.29209669     1.29209669     0.00000000
 c                    -1.76503691     0.47294021     0.00000000
 c                     0.47294021    -1.76503691     0.00000000
 o                     2.10668384     2.10668384     0.00000000
 o                    -2.87778364     0.77109980     0.00000000
 o                     0.77109980    -2.87778364     0.00000000

 ==============================================================================
                                internuclear distances
 ------------------------------------------------------------------------------
       center one      |      center two      | atomic units |       a.u.
 ------------------------------------------------------------------------------
    2 c                |   1 fe               |     3.41436  |     3.41436
    3 c                |   1 fe               |     3.41436  |     3.41436
    4 o                |   2 c                |     2.17697  |     2.17697
    5 o                |   3 c                |     2.17697  |     2.17697
    6 c                |   1 fe               |     3.45310  |     3.45310
    7 c                |   1 fe               |     3.45310  |     3.45310
    8 c                |   1 fe               |     3.45310  |     3.45310
    9 o                |   6 c                |     2.17696  |     2.17696
   10 o                |   7 c                |     2.17696  |     2.17696
   11 o                |   8 c                |     2.17696  |     2.17696
 ------------------------------------------------------------------------------
                         number of included internuclear distances:         10
 ==============================================================================



 ==============================================================================
                                 internuclear angles
 ------------------------------------------------------------------------------
        center 1       |       center 2       |       center 3       |  degrees
 ------------------------------------------------------------------------------
    2 c                |   1 fe               |   3 c                |   180.00
    2 c                |   1 fe               |   6 c                |    90.00
    2 c                |   1 fe               |   7 c                |    90.00
    2 c                |   1 fe               |   8 c                |    90.00
    3 c                |   1 fe               |   6 c                |    90.00
    3 c                |   1 fe               |   7 c                |    90.00
    3 c                |   1 fe               |   8 c                |    90.00
    6 c                |   1 fe               |   7 c                |   120.00
    6 c                |   1 fe               |   8 c                |   120.00
    7 c                |   1 fe               |   8 c                |   120.00
    1 fe               |   2 c                |   4 o                |   180.00
    1 fe               |   3 c                |   5 o                |   180.00
    1 fe               |   6 c                |   9 o                |   180.00
    1 fe               |   7 c                |  10 o                |   180.00
    1 fe               |   8 c                |  11 o                |   180.00
 ------------------------------------------------------------------------------
                            number of included internuclear angles:         15
 ==============================================================================



  library name resolved from: .nwchemrc
  library file name is: </home/d3y133/nwchem-releases/nwchem-6.0-gfortran/QA/../src/basis/libraries/>
  
                      Basis "ao basis" -> "" (cartesian)
                      -----
  o (Oxygen)
  ----------
            Exponent  Coefficients 
       -------------- ---------------------------------------------------------
  1 S  5.22290220E+03 -0.001936
  1 S  7.82539940E+02 -0.014851
  1 S  1.77267430E+02 -0.073319
  1 S  4.95166880E+01 -0.245116
  1 S  1.56664400E+01 -0.480285
  1 S  5.17935990E+00 -0.335943

  2 S  1.06014410E+01  0.078806
  2 S  9.42317000E-01 -0.567695

  3 S  2.77474600E-01  1.000000

  4 P  3.34241260E+01  0.017560
  4 P  7.62217140E+00  0.107630
  4 P  2.23820930E+00  0.323526
  4 P  6.86730000E-01  0.483223

  5 P  1.93813500E-01  1.000000

  6 D  8.00000000E-01  1.000000

  c (Carbon)
  ----------
            Exponent  Coefficients 
       -------------- ---------------------------------------------------------
  1 S  2.80806450E+03  0.002018
  1 S  4.21138280E+02  0.015433
  1 S  9.55866160E+01  0.075582
  1 S  2.67390040E+01  0.247828
  1 S  8.43282680E+00  0.479373
  1 S  2.76058210E+00  0.333834

  2 S  5.44700450E+00 -0.077841
  2 S  4.79242200E-01  0.568956

  3 S  1.46156500E-01  1.000000

  4 P  1.81308520E+01  0.015855
  4 P  4.09988320E+00  0.095683
  4 P  1.18583700E+00  0.304912
  4 P  3.68597400E-01  0.493502

  5 P  1.09720000E-01  1.000000

  6 D  6.00000000E-01  1.000000

  fe (Iron)
  ---------
            Exponent  Coefficients 
       -------------- ---------------------------------------------------------
  1 S  6.14302270E+04  0.001756
  1 S  9.22217600E+03  0.013417
  1 S  2.09759690E+03  0.066695
  1 S  5.91490400E+02  0.228205
  1 S  1.91860620E+02  0.469450
  1 S  6.58263280E+01  0.363557

  2 S  1.28740740E+02 -0.104917
  2 S  1.47181330E+01  0.617962
  2 S  5.95075430E+00  0.456009

  3 S  1.08598790E+01  0.218492
  3 S  1.71944710E+00 -0.711331
  3 S  6.66453200E-01 -0.418695

  4 S  9.75476100E-01 -0.144105
  4 S  1.23114300E-01  0.595813

  5 S  4.48795000E-02  1.000000

  6 P  7.80620300E+02 -0.009122
  6 P  1.84006220E+02 -0.068004
  6 P  5.80844670E+01 -0.259768
  6 P  2.07597950E+01 -0.506014
  6 P  7.59345150E+00 -0.341908

  7 P  4.02791730E+00 -0.327296
  7 P  1.52647000E+00 -0.548150
  7 P  5.57370200E-01 -0.250663

  8 P  1.21000000E-01  1.000000

  9 D  2.39293160E+01 -0.063492
  9 D  6.39990130E+00 -0.278391
  9 D  1.93174170E+00 -0.493820
  9 D  5.11527900E-01 -0.486269

 10 D  9.00000000E-02  1.000000



 Summary of "ao basis" -> "" (cartesian)
 ------------------------------------------------------------------------------
       Tag                 Description            Shells   Functions and Types
 ---------------- ------------------------------  ------  ---------------------
 o                     DZVP (DFT Orbital)            6       15   3s2p1d
 c                     DZVP (DFT Orbital)            6       15   3s2p1d
 fe                    DZVP (DFT Orbital)           10       26   5s3p2d


  library name resolved from: .nwchemrc
  library file name is: </home/d3y133/nwchem-releases/nwchem-6.0-gfortran/QA/../src/basis/libraries/>
  
                      Basis "cd basis" -> "" (cartesian)
                      -----
  o (Oxygen)
  ----------
            Exponent  Coefficients 
       -------------- ---------------------------------------------------------
  1 S  2.00000000E+03  1.000000

  2 S  4.00000000E+02  1.000000

  3 S  1.00000000E+02  1.000000

  4 S  2.50000000E+01  1.000000

  5 S  7.80000000E+00  1.000000

  6 P  7.80000000E+00  1.000000

  7 S  1.56000000E+00  1.000000

  8 P  1.56000000E+00  1.000000

  9 S  3.90000000E-01  1.000000

 10 P  3.90000000E-01  1.000000

 11 D  7.80000000E+00  1.000000

 12 D  1.56000000E+00  1.000000

 13 D  3.90000000E-01  1.000000

  c (Carbon)
  ----------
            Exponent  Coefficients 
       -------------- ---------------------------------------------------------
  1 S  1.11400000E+03  1.000000

  2 S  2.23000000E+02  1.000000

  3 S  5.57200000E+01  1.000000

  4 S  1.39000000E+01  1.000000

  5 S  4.40000000E+00  1.000000

  6 P  4.40000000E+00  1.000000

  7 S  8.70000000E-01  1.000000

  8 P  8.70000000E-01  1.000000

  9 S  2.20000000E-01  1.000000

 10 P  2.20000000E-01  1.000000

 11 D  4.40000000E+00  1.000000

 12 D  8.70000000E-01  1.000000

 13 D  2.20000000E-01  1.000000

  fe (Iron)
  ---------
            Exponent  Coefficients 
       -------------- ---------------------------------------------------------
  1 S  4.40000000E+04  1.000000

  2 S  8.80000000E+03  1.000000

  3 S  2.20000000E+03  1.000000

  4 S  5.50000000E+02  1.000000

  5 S  1.37000000E+02  1.000000

  6 S  4.32000000E+01  1.000000

  7 P  4.32000000E+01  1.000000

  8 S  8.60000000E+00  1.000000

  9 P  8.60000000E+00  1.000000

 10 S  2.20000000E+00  1.000000

 11 P  2.20000000E+00  1.000000

 12 S  5.40000000E-01  1.000000

 13 P  5.40000000E-01  1.000000

 14 S  1.35000000E-01  1.000000

 15 P  1.35000000E-01  1.000000

 16 D  4.32000000E+01  1.000000

 17 D  8.60000000E+00  1.000000

 18 D  2.20000000E+00  1.000000

 19 D  5.40000000E-01  1.000000

 20 D  1.35000000E-01  1.000000



 Summary of "cd basis" -> "" (cartesian)
 ------------------------------------------------------------------------------
       Tag                 Description            Shells   Functions and Types
 ---------------- ------------------------------  ------  ---------------------
 o                DGauss A1 DFT Coulomb Fitting     13       34   7s3p3d
 c                DGauss A1 DFT Coulomb Fitting     13       34   7s3p3d
 fe               DGauss A1 DFT Coulomb Fitting     20       55   10s5p5d


                         case t19 --- Default DFT (energy)
                         ---------------------------------

                                 NWChem DFT Module
                                 -----------------


                         case t19 --- Default DFT (energy)


  Caching 1-el integrals 
  Rotation of axis 

            General Information
            -------------------
          SCF calculation type: DFT
          Wavefunction type:  closed shell.
          No. of atoms     :    11
          No. of electrons :    96
           Alpha electrons :    48
            Beta electrons :    48
          Charge           :     0
          Spin multiplicity:     1
          Use of symmetry is: on ; symmetry adaption is: on 
          Maximum number of iterations:  30
          AO basis - number of functions:   176
                     number of shells:    70
          A Charge density fitting basis will be used.
          CD basis - number of functions:   395
                     number of shells:   150
          Convergence on energy requested: 1.00D-06
          Convergence on density requested: 1.00D-05
          Convergence on gradient requested: 5.00D-04

              XC Information
              --------------
                        Slater Exchange Functional  1.000 local    
                      VWN V Correlation Functional  1.000 local    

             Grid Information
             ----------------
          Grid used for XC integration:  medium    
          Radial quadrature: Mura-Knowles        
          Angular quadrature: Lebedev. 
          Tag              B.-S. Rad. Rad. Pts. Rad. Cut. Ang. Pts.
          ---              ---------- --------- --------- ---------
          fe                  1.40      112           8.0       590
          c                   0.70       49          11.0       434
          o                   0.60       49          13.0       434
          Grid pruning is: on 
          Number of quadrature shells:   308
          Spatial weights used:  Erf1

          Convergence Information
          -----------------------
          Convergence aids based upon iterative change in 
          total energy or number of iterations. 
          Levelshifting, if invoked, occurs when the 
          HOMO/LUMO gap drops below (HL_TOL): 1.00D-02
          DIIS, if invoked, will attempt to extrapolate 
          using up to (NFOCK): 10 stored Fock matrices.

                    Damping( 0%)  Levelshifting(0.5)       DIIS
                  --------------- ------------------- ---------------
          dE  on:    start            ASAP                start   
          dE off:    2 iters         30 iters            30 iters 


      Screening Tolerance Information
      -------------------------------
          Density screening/tol_rho: 1.00D-10
          AO Gaussian exp screening on grid/accAOfunc:  14
          CD Gaussian exp screening on grid/accCDfunc:  20
          XC Gaussian exp screening on grid/accXCfunc:  20
          Schwarz screening/accCoul: 1.00D-08


      Superposition of Atomic Density Guess
      -------------------------------------

 Sum of atomic energies:       -1824.13130503

      Non-variational initial energy
      ------------------------------

 Total energy =   -1827.679833
 1-e energy   =   -4099.408592
 2-e energy   =    1473.233141
 HOMO         =      -0.328823
 LUMO         =      -0.090738


      Symmetry analysis of molecular orbitals - initial
      -------------------------------------------------

  Numbering of irreducible representations: 

     1 a1'         2 a1"         3 a2'         4 a2"         5 e'      
     6 e"      

  Orbital symmetries:

     1 a1'         2 a1'         3 a2"         4 e'          5 e'      
     6 a1'         7 a2"         8 a1'         9 e'         10 e'      
    11 a1'        12 a2"        13 a1'        14 e'         15 e'      
    16 a1'        17 a2"        18 e'         19 e'         20 a1'     
    21 a2"        22 e'         23 e'         24 a1'        25 a1'     
    26 e'         27 e'         28 a2"        29 a1'        30 a1'     
    31 e"         32 e"         33 e'         34 e'         35 a2"     
    36 e'         37 e'         38 a2'        39 a1'        40 e"      
    41 e"         42 e'         43 e'         44 a2"        45 e"      
    46 e"         47 e'         48 e'         49 a1'        50 e"      
    51 e"         52 e'         53 e'         54 a2"        55 a2'     
    56 e'         57 e'         58 a1'     

   Time after variat. SCF:      1.2

      3 Center 2 Electron Integral Information
      ----------------------------------------
          Maximum number of 3-center 2e- integrals is:        12235520.
            This is reduced with Schwarz screening to:         5362125.
            Incore requires a per proc buffer size of:         1799667.
                  The minimum integral buffer size is:          113760
          Minimum dble words available (all nodes) is:        26199921
                   This is reduced (for later use) to:        25816300
                             Suggested buffer size is:         1799667

           1.800 MW buffer allocated for incore 3-center 
          2e- integral storage on stack. 
          The percent of 3c 2e- integrals held in-core is: 100.00

   Time prior to 1st pass:      1.5

 Grid_pts file          = ./dft_feco5.gridpts.0
 Record size in doubles =  12289        No. of grid_pts per rec  =   3070
 Max. records in memory =     18        Max. recs in file   =    140416


           Memory utilization after 1st SCF pass: 
           Heap Space remaining (MW):       12.87            12872215
          Stack Space remaining (MW):       11.31            11305115

   convergence    iter        energy       DeltaE   RMS-Dens  Diis-err    time
 ---------------- ----- ----------------- --------- --------- ---------  ------
 d= 0,ls=0.0,diis     1  -1822.8247493675 -2.62D+03  6.20D-02  9.95D+00     1.9
 d= 0,ls=0.0,diis     2  -1811.2270745263  1.16D+01  7.18D-02  6.78D+01     2.3
 d= 0,ls=0.0,diis     3  -1819.6761377204 -8.45D+00  9.88D-03  3.75D+01     2.6
 d= 0,ls=0.0,diis     4  -1821.7869848395 -2.11D+00  3.10D-03  1.88D+01     3.0
 d= 0,ls=0.0,diis     5  -1821.2545680606  5.32D-01  3.05D-03  2.34D+01     3.3
 d= 0,ls=0.0,diis     6  -1821.5447075224 -2.90D-01  4.72D-03  2.13D+01     3.7
 d= 0,ls=0.0,diis     7  -1821.9353259456 -3.91D-01  5.47D-03  1.80D+01     4.1
 d= 0,ls=0.0,diis     8  -1821.6791595935  2.56D-01  2.03D-03  1.97D+01     4.4
 d= 0,ls=0.0,diis     9  -1821.7478046455 -6.86D-02  2.56D-05  1.90D+01     4.8
 d= 0,ls=0.0,diis    10  -1821.7460115575  1.79D-03  1.30D-03  1.90D+01     5.1
 d= 0,ls=0.0,diis    11  -1821.6760322181  7.00D-02  4.30D-04  1.95D+01     5.5
 d= 0,ls=0.0,diis    12  -1821.6883230630 -1.23D-02  2.70D-02  1.94D+01     5.9
 d= 0,ls=0.0,diis    13  -1823.5830767300 -1.89D+00  7.42D-03  1.28D+00     6.2
 d= 0,ls=0.0,diis    14  -1823.6373124255 -5.42D-02  2.29D-03  5.58D-01     6.6
 d= 0,ls=0.0,diis    15  -1823.6759673967 -3.87D-02  9.81D-04  5.54D-02     6.9
 d= 0,ls=0.0,diis    16  -1823.6801806141 -4.21D-03  9.42D-05  8.51D-05     7.3
 d= 0,ls=0.0,diis    17  -1823.6801926470 -1.20D-05  3.56D-05  4.49D-05     7.7
 d= 0,ls=0.0,diis    18  -1823.6801959292 -3.28D-06  8.81D-06  3.23D-06     8.0
 d= 0,ls=0.0,diis    19  -1823.6801961701 -2.41D-07  9.79D-07  1.05D-07     8.4


         Total DFT energy =    -1823.680196170071
      One electron energy =    -4105.874590431184
           Coulomb energy =     1601.844762163483
    Exchange-Corr. energy =     -118.145985996560
 Nuclear repulsion energy =      798.495618094190

 Numeric. integr. density =       95.999997053934

     Total iterative time =      6.9s



                       DFT Final Molecular Orbital Analysis
                       ------------------------------------

 Vector   19  Occ=2.000000D+00  E=-2.132706D+00  Symmetry=e'
              MO Center=  2.3D-03, -4.3D-04,  3.4D-18, r^2= 2.5D-01
   Bfn.  Coefficient  Atom+Function         Bfn.  Coefficient  Atom+Function  
  ----- ------------  ---------------      ----- ------------  ---------------
    10      1.026049   1 Fe py                7     -0.387574   1 Fe py        
     9      0.317409   1 Fe px        

 Vector   20  Occ=2.000000D+00  E=-1.070170D+00  Symmetry=a1'
              MO Center=  2.9D-18,  1.6D-18, -9.4D-17, r^2= 7.3D+00
   Bfn.  Coefficient  Atom+Function         Bfn.  Coefficient  Atom+Function  
  ----- ------------  ---------------      ----- ------------  ---------------
    58     -0.318095   4 O  s                73     -0.318095   5 O  s         
    59      0.195533   4 O  s                74      0.195533   5 O  s         
    47     -0.167651   3 C  pz               32      0.167651   2 C  pz        
    28      0.164725   2 C  s                43      0.164725   3 C  s         

 Vector   21  Occ=2.000000D+00  E=-1.070007D+00  Symmetry=a2"
              MO Center=  5.4D-20,  1.1D-19,  7.7D-17, r^2= 7.3D+00
   Bfn.  Coefficient  Atom+Function         Bfn.  Coefficient  Atom+Function  
  ----- ------------  ---------------      ----- ------------  ---------------
    58      0.321425   4 O  s                73     -0.321425   5 O  s         
    59     -0.185899   4 O  s                74      0.185899   5 O  s         
    32     -0.168290   2 C  pz               47     -0.168290   3 C  pz        
    43      0.166752   3 C  s                28     -0.166752   2 C  s         
    57     -0.150223   4 O  s                72      0.150223   5 O  s         

 Vector   22  Occ=2.000000D+00  E=-1.059564D+00  Symmetry=a1'
              MO Center= -1.8D-11, -7.2D-12, -2.2D-17, r^2= 7.4D+00
   Bfn.  Coefficient  Atom+Function         Bfn.  Coefficient  Atom+Function  
  ----- ------------  ---------------      ----- ------------  ---------------
   148      0.261936  10 O  s               163      0.261936  11 O  s         
   133      0.261936   9 O  s         

 Vector   23  Occ=2.000000D+00  E=-1.059528D+00  Symmetry=e'
              MO Center= -1.3D+00,  1.1D-01,  1.1D-16, r^2= 5.6D+00
   Bfn.  Coefficient  Atom+Function         Bfn.  Coefficient  Atom+Function  
  ----- ------------  ---------------      ----- ------------  ---------------
   148     -0.367850  10 O  s               149      0.226947  10 O  s         
   163      0.212543  11 O  s               103      0.190785   7 C  s         
   105     -0.187303   7 C  px              147      0.173397  10 O  s         
   150      0.165722  10 O  px              133      0.155307   9 O  s         

 Vector   24  Occ=2.000000D+00  E=-1.059528D+00  Symmetry=e'
              MO Center=  1.3D+00, -1.1D-01, -1.4D-17, r^2= 5.6D+00
   Bfn.  Coefficient  Atom+Function         Bfn.  Coefficient  Atom+Function  
  ----- ------------  ---------------      ----- ------------  ---------------
   133      0.335090   9 O  s               163     -0.302045  11 O  s         
   134     -0.206736   9 O  s               164      0.186349  11 O  s         
    88     -0.173794   6 C  s               132     -0.157955   9 O  s         
   118      0.156655   8 C  s               121     -0.153719   8 C  py        

 Vector   25  Occ=2.000000D+00  E=-5.739276D-01  Symmetry=a1'
              MO Center= -4.2D-17, -3.2D-16, -7.2D-17, r^2= 4.6D+00
   Bfn.  Coefficient  Atom+Function         Bfn.  Coefficient  Atom+Function  
  ----- ------------  ---------------      ----- ------------  ---------------
     3     -0.271573   1 Fe s                28     -0.216002   2 C  s         
    43     -0.216002   3 C  s                29     -0.185920   2 C  s         
    44     -0.185920   3 C  s         

 Vector   26  Occ=2.000000D+00  E=-5.307927D-01  Symmetry=a2"
              MO Center= -8.2D-17,  1.5D-17,  3.2D-14, r^2= 8.2D+00
   Bfn.  Coefficient  Atom+Function         Bfn.  Coefficient  Atom+Function  
  ----- ------------  ---------------      ----- ------------  ---------------
    62     -0.318014   4 O  pz               77     -0.318014   5 O  pz        
    28      0.262290   2 C  s                43     -0.262290   3 C  s         
    59     -0.251685   4 O  s                74      0.251685   5 O  s         
    58      0.201489   4 O  s                73     -0.201489   5 O  s         
    29      0.165631   2 C  s                44     -0.165631   3 C  s         

 Vector   27  Occ=2.000000D+00  E=-5.221399D-01  Symmetry=e'
              MO Center= -1.3D+00, -9.5D-02, -9.4D-16, r^2= 6.5D+00
   Bfn.  Coefficient  Atom+Function         Bfn.  Coefficient  Atom+Function  
  ----- ------------  ---------------      ----- ------------  ---------------
   150      0.348464  10 O  px              103      0.304488   7 C  s         
   149     -0.262548  10 O  s               148      0.228456  10 O  s         
   166     -0.225734  11 O  py              118     -0.196947   8 C  s         
   164      0.169820  11 O  s               104      0.155114   7 C  s         

 Vector   28  Occ=2.000000D+00  E=-5.221399D-01  Symmetry=e'
              MO Center=  1.3D+00,  9.5D-02,  4.5D-19, r^2= 6.5D+00
   Bfn.  Coefficient  Atom+Function         Bfn.  Coefficient  Atom+Function  
  ----- ------------  ---------------      ----- ------------  ---------------
    88     -0.289504   6 C  s               166      0.271845  11 O  py        
   134      0.249628   9 O  s               135      0.242971   9 O  px        
   136      0.241989   9 O  py              118      0.237885   8 C  s         
   133     -0.217213   9 O  s               164     -0.205119  11 O  s         
    16      0.188667   1 Fe dxy             163      0.178484  11 O  s         

 Vector   29  Occ=2.000000D+00  E=-5.183797D-01  Symmetry=a1'
              MO Center= -1.7D-14,  6.8D-15, -2.9D-14, r^2= 8.5D+00
   Bfn.  Coefficient  Atom+Function         Bfn.  Coefficient  Atom+Function  
  ----- ------------  ---------------      ----- ------------  ---------------
    77      0.239785   5 O  pz               62     -0.239785   4 O  pz        
   150     -0.196994  10 O  px              166     -0.196994  11 O  py        
    74     -0.175211   5 O  s                59     -0.175211   4 O  s         
    44      0.170219   3 C  s                29      0.170219   2 C  s         
    20     -0.167227   1 Fe dzz              43      0.163304   3 C  s         

 Vector   30  Occ=2.000000D+00  E=-4.713067D-01  Symmetry=a1'
              MO Center= -2.3D-15,  9.9D-16, -3.5D-15, r^2= 8.0D+00
   Bfn.  Coefficient  Atom+Function         Bfn.  Coefficient  Atom+Function  
  ----- ------------  ---------------      ----- ------------  ---------------
    77      0.312038   5 O  pz               62     -0.312038   4 O  pz        
    32      0.253123   2 C  pz               47     -0.253123   3 C  pz        
   150      0.202263  10 O  px              166      0.202263  11 O  py        
     3     -0.186246   1 Fe s                20      0.153826   1 Fe dzz       
    74     -0.152520   5 O  s                59     -0.152520   4 O  s         

 Vector   31  Occ=2.000000D+00  E=-4.580967D-01  Symmetry=e"
              MO Center=  1.0D-01, -3.9D-01,  9.5D-14, r^2= 6.6D+00
   Bfn.  Coefficient  Atom+Function         Bfn.  Coefficient  Atom+Function  
  ----- ------------  ---------------      ----- ------------  ---------------
    61     -0.306941   4 O  py               76      0.306941   5 O  py        
    19      0.297632   1 Fe dyz             167      0.257698  11 O  pz        
    31     -0.242899   2 C  py               46      0.242899   3 C  py        
   122      0.215470   8 C  pz        

 Vector   32  Occ=2.000000D+00  E=-4.580967D-01  Symmetry=e"
              MO Center= -1.0D-01,  3.9D-01,  1.9D-14, r^2= 6.6D+00
   Bfn.  Coefficient  Atom+Function         Bfn.  Coefficient  Atom+Function  
  ----- ------------  ---------------      ----- ------------  ---------------
    60     -0.306941   4 O  px               75      0.306941   5 O  px        
    17      0.297632   1 Fe dxz              30     -0.242899   2 C  px        
    45      0.242899   3 C  px              137     -0.223572   9 O  pz        
   152      0.222774  10 O  pz               92     -0.186936   6 C  pz        
   107      0.186269   7 C  pz        

 Vector   33  Occ=2.000000D+00  E=-4.495697D-01  Symmetry=e'
              MO Center=  7.6D-02,  1.6D-01, -1.1D-13, r^2= 7.2D+00
   Bfn.  Coefficient  Atom+Function         Bfn.  Coefficient  Atom+Function  
  ----- ------------  ---------------      ----- ------------  ---------------
    60     -0.299292   4 O  px               75     -0.299292   5 O  px        
    30     -0.215633   2 C  px               45     -0.215633   3 C  px        
    76     -0.213592   5 O  py               61     -0.213592   4 O  py        
    46     -0.153888   3 C  py               31     -0.153888   2 C  py        

 Vector   34  Occ=2.000000D+00  E=-4.495697D-01  Symmetry=e'
              MO Center= -7.6D-02, -1.6D-01, -7.9D-14, r^2= 7.2D+00
   Bfn.  Coefficient  Atom+Function         Bfn.  Coefficient  Atom+Function  
  ----- ------------  ---------------      ----- ------------  ---------------
    61     -0.299292   4 O  py               76     -0.299292   5 O  py        
    31     -0.215633   2 C  py               46     -0.215633   3 C  py        
    75      0.213592   5 O  px               60      0.213592   4 O  px        
   166     -0.169581  11 O  py              121      0.159561   8 C  py        
    45      0.153888   3 C  px               30      0.153888   2 C  px        

 Vector   35  Occ=2.000000D+00  E=-4.487310D-01  Symmetry=a2"
              MO Center=  5.4D-15, -2.0D-14, -2.1D-15, r^2= 7.0D+00
   Bfn.  Coefficient  Atom+Function         Bfn.  Coefficient  Atom+Function  
  ----- ------------  ---------------      ----- ------------  ---------------
   167      0.269348  11 O  pz              137      0.269348   9 O  pz        
   152      0.269348  10 O  pz               77      0.213967   5 O  pz        
    62      0.213967   4 O  pz              122      0.206214   8 C  pz        
   107      0.206214   7 C  pz               92      0.206214   6 C  pz        
    47     -0.198066   3 C  pz               32     -0.198066   2 C  pz        

 Vector   36  Occ=2.000000D+00  E=-4.347054D-01  Symmetry=e'
              MO Center=  1.8D-01,  1.1D+00,  1.9D-14, r^2= 6.0D+00
   Bfn.  Coefficient  Atom+Function         Bfn.  Coefficient  Atom+Function  
  ----- ------------  ---------------      ----- ------------  ---------------
   135     -0.335047   9 O  px              151      0.325522  10 O  py        
   136      0.301159   9 O  py              106      0.251808   7 C  py        
    91      0.241292   6 C  py               90     -0.201504   6 C  px        

 Vector   37  Occ=2.000000D+00  E=-4.347054D-01  Symmetry=e'
              MO Center= -1.8D-01, -1.1D+00, -6.2D-15, r^2= 6.0D+00
   Bfn.  Coefficient  Atom+Function         Bfn.  Coefficient  Atom+Function  
  ----- ------------  ---------------      ----- ------------  ---------------
   165      0.450828  11 O  px              151      0.320981  10 O  py        
   120      0.305894   8 C  px               16      0.268147   1 Fe dxy       
   106      0.195432   7 C  py              168      0.167514  11 O  px        
   136     -0.155290   9 O  py        

 Vector   38  Occ=2.000000D+00  E=-4.278375D-01  Symmetry=a2'
              MO Center=  7.3D-15, -1.9D-14, -2.1D-29, r^2= 7.8D+00
   Bfn.  Coefficient  Atom+Function         Bfn.  Coefficient  Atom+Function  
  ----- ------------  ---------------      ----- ------------  ---------------
   165     -0.350952  11 O  px              151      0.350952  10 O  py        
   135      0.256915   9 O  px              136     -0.256915   9 O  py        
   120     -0.224983   8 C  px              106      0.224983   7 C  py        
    91     -0.164699   6 C  py               90      0.164699   6 C  px        

 Vector   39  Occ=2.000000D+00  E=-4.271418D-01  Symmetry=a1'
              MO Center= -1.3D-15,  9.3D-16, -1.3D-15, r^2= 3.6D+00
   Bfn.  Coefficient  Atom+Function         Bfn.  Coefficient  Atom+Function  
  ----- ------------  ---------------      ----- ------------  ---------------
    20      0.492467   1 Fe dzz              15     -0.249635   1 Fe dxx       
    18     -0.249635   1 Fe dyy             105      0.215750   7 C  px        
   121      0.215750   8 C  py               47     -0.188827   3 C  pz        
    32      0.188827   2 C  pz              150     -0.178558  10 O  px        
   166     -0.178558  11 O  py               91     -0.157940   6 C  py        

 Vector   40  Occ=2.000000D+00  E=-4.270966D-01  Symmetry=e"
              MO Center=  6.6D-01,  5.5D-01,  8.0D-15, r^2= 7.2D+00
   Bfn.  Coefficient  Atom+Function         Bfn.  Coefficient  Atom+Function  
  ----- ------------  ---------------      ----- ------------  ---------------
   137     -0.420087   9 O  pz               92     -0.260643   6 C  pz        
   167      0.226527  11 O  pz               61      0.205010   4 O  py        
    76     -0.205010   5 O  py              152      0.193560  10 O  pz        
    60      0.187238   4 O  px               75     -0.187238   5 O  px        
   140     -0.154319   9 O  pz        

 Vector   41  Occ=2.000000D+00  E=-4.270966D-01  Symmetry=e"
              MO Center= -6.6D-01, -5.5D-01,  4.9D-16, r^2= 7.2D+00
   Bfn.  Coefficient  Atom+Function         Bfn.  Coefficient  Atom+Function  
  ----- ------------  ---------------      ----- ------------  ---------------
   152      0.373323  10 O  pz              167     -0.354289  11 O  pz        
   107      0.231628   7 C  pz              122     -0.219819   8 C  pz        
    60      0.205010   4 O  px               75     -0.205010   5 O  px        
    76      0.187238   5 O  py               61     -0.187238   4 O  py        

 Vector   42  Occ=2.000000D+00  E=-4.086710D-01  Symmetry=e'
              MO Center= -4.3D-01, -3.1D-01,  1.7D-14, r^2= 4.9D+00
   Bfn.  Coefficient  Atom+Function         Bfn.  Coefficient  Atom+Function  
  ----- ------------  ---------------      ----- ------------  ---------------
   105     -0.313223   7 C  px              121      0.288057   8 C  py        
    15      0.261222   1 Fe dxx              18     -0.261222   1 Fe dyy       
   150      0.225489  10 O  px              166     -0.201378  11 O  py        
    60     -0.179328   4 O  px               75     -0.179328   5 O  px        
   103     -0.161259   7 C  s                61      0.153264   4 O  py        

 Vector   43  Occ=2.000000D+00  E=-4.086710D-01  Symmetry=e'
              MO Center=  4.3D-01,  3.1D-01,  4.7D-14, r^2= 4.9D+00
   Bfn.  Coefficient  Atom+Function         Bfn.  Coefficient  Atom+Function  
  ----- ------------  ---------------      ----- ------------  ---------------
    16     -0.522443   1 Fe dxy              90     -0.251781   6 C  px        
    91     -0.246956   6 C  py              136      0.197294   9 O  py        
   135      0.185943   9 O  px              121     -0.184123   8 C  py        
    61     -0.179328   4 O  py               76     -0.179328   5 O  py        
    88      0.178145   6 C  s               166      0.170561  11 O  py        

 Vector   44  Occ=2.000000D+00  E=-3.936892D-01  Symmetry=a2"
              MO Center= -6.4D-15,  1.5D-14,  3.2D-15, r^2= 5.8D+00
   Bfn.  Coefficient  Atom+Function         Bfn.  Coefficient  Atom+Function  
  ----- ------------  ---------------      ----- ------------  ---------------
    32     -0.304574   2 C  pz               47     -0.304574   3 C  pz        
    14      0.257700   1 Fe pz              152     -0.248765  10 O  pz        
   137     -0.248765   9 O  pz              167     -0.248765  11 O  pz        
    62      0.220912   4 O  pz               77      0.220912   5 O  pz        
    11      0.181643   1 Fe pz               28      0.173917   2 C  s         

 Vector   45  Occ=2.000000D+00  E=-2.903236D-01  Symmetry=e"
              MO Center=  1.3D-01,  7.1D-02, -4.6D-15, r^2= 2.6D+00
   Bfn.  Coefficient  Atom+Function         Bfn.  Coefficient  Atom+Function  
  ----- ------------  ---------------      ----- ------------  ---------------
    19      1.094655   1 Fe dyz              17      0.831926   1 Fe dxz       
    25     -0.320698   1 Fe dyz              23     -0.243727   1 Fe dxz       
   137      0.194633   9 O  pz               76     -0.159418   5 O  py        
    61      0.159418   4 O  py        

 Vector   46  Occ=2.000000D+00  E=-2.903236D-01  Symmetry=e"
              MO Center= -1.3D-01, -7.1D-02, -4.5D-15, r^2= 2.6D+00
   Bfn.  Coefficient  Atom+Function         Bfn.  Coefficient  Atom+Function  
  ----- ------------  ---------------      ----- ------------  ---------------
    17     -1.094655   1 Fe dxz              19      0.831926   1 Fe dyz       
    23      0.320698   1 Fe dxz              25     -0.243727   1 Fe dyz       
   152      0.181828  10 O  pz               75      0.159418   5 O  px        
    60     -0.159418   4 O  px              167     -0.155286  11 O  pz        

 Vector   47  Occ=2.000000D+00  E=-2.366896D-01  Symmetry=e'
              MO Center=  1.5D-01,  3.6D-01,  2.8D-16, r^2= 2.9D+00
   Bfn.  Coefficient  Atom+Function         Bfn.  Coefficient  Atom+Function  
  ----- ------------  ---------------      ----- ------------  ---------------
    15     -0.579620   1 Fe dxx              18      0.579620   1 Fe dyy       
    13     -0.315243   1 Fe py               16     -0.229734   1 Fe dxy       
    12      0.210962   1 Fe px              135     -0.186721   9 O  px        
   136      0.164944   9 O  py        

 Vector   48  Occ=2.000000D+00  E=-2.366896D-01  Symmetry=e'
              MO Center= -1.5D-01, -3.6D-01,  1.8D-15, r^2= 2.9D+00
   Bfn.  Coefficient  Atom+Function         Bfn.  Coefficient  Atom+Function  
  ----- ------------  ---------------      ----- ------------  ---------------
    16      1.159240   1 Fe dxy              12      0.315243   1 Fe px        
   165     -0.238416  11 O  px               13      0.210962   1 Fe py        
   151     -0.197719  10 O  py              120      0.164261   8 C  px        
    22     -0.157847   1 Fe dxy       

 Vector   49  Occ=0.000000D+00  E=-9.791569D-02  Symmetry=e"
              MO Center=  3.8D-01, -1.5D-01, -1.3D-14, r^2= 4.4D+00
   Bfn.  Coefficient  Atom+Function         Bfn.  Coefficient  Atom+Function  
  ----- ------------  ---------------      ----- ------------  ---------------
    19     -0.969593   1 Fe dyz             122      0.290789   8 C  pz        
    46      0.276194   3 C  py               31     -0.276194   2 C  py        
    92     -0.271223   6 C  pz              167     -0.237306  11 O  pz        
    76     -0.222543   5 O  py               61      0.222543   4 O  py        
   137      0.221339   9 O  pz              125      0.203939   8 C  pz        

 Vector   50  Occ=0.000000D+00  E=-9.791569D-02  Symmetry=e"
              MO Center= -3.8D-01,  1.5D-01,  6.9D-15, r^2= 4.4D+00
   Bfn.  Coefficient  Atom+Function         Bfn.  Coefficient  Atom+Function  
  ----- ------------  ---------------      ----- ------------  ---------------
    17      0.969593   1 Fe dxz             107     -0.324478   7 C  pz        
    30      0.276194   2 C  px               45     -0.276194   3 C  px        
   152      0.264799  10 O  pz              110     -0.227566   7 C  pz        
    60     -0.222543   4 O  px               75      0.222543   5 O  px        
    19     -0.198133   1 Fe dyz             155      0.189732  10 O  pz        

 Vector   51  Occ=0.000000D+00  E=-8.799026D-02  Symmetry=e'
              MO Center=  2.8D-03, -4.2D-02,  8.0D-14, r^2= 5.3D+00
   Bfn.  Coefficient  Atom+Function         Bfn.  Coefficient  Atom+Function  
  ----- ------------  ---------------      ----- ------------  ---------------
    31     -0.470499   2 C  py               46     -0.470499   3 C  py        
   119     -0.439429   8 C  s                61      0.313658   4 O  py        
    76      0.313658   5 O  py               34     -0.303232   2 C  py        
    49     -0.303232   3 C  py              104      0.257005   7 C  s         
    64      0.242457   4 O  py               79      0.242457   5 O  py        

 Vector   52  Occ=0.000000D+00  E=-8.799026D-02  Symmetry=e'
              MO Center= -2.8D-03,  4.2D-02, -5.8D-14, r^2= 5.3D+00
   Bfn.  Coefficient  Atom+Function         Bfn.  Coefficient  Atom+Function  
  ----- ------------  ---------------      ----- ------------  ---------------
    45      0.470499   3 C  px               30      0.470499   2 C  px        
    89     -0.402086   6 C  s                16     -0.391865   1 Fe dxy       
   104      0.359027   7 C  s                75     -0.313658   5 O  px        
    60     -0.313658   4 O  px               48      0.303232   3 C  px        
    33      0.303232   2 C  px               22      0.269505   1 Fe dxy       

 Vector   53  Occ=0.000000D+00  E=-8.642527D-02  Symmetry=a1'
              MO Center= -3.0D-14, -8.0D-15,  3.7D-15, r^2= 2.2D+00
   Bfn.  Coefficient  Atom+Function         Bfn.  Coefficient  Atom+Function  
  ----- ------------  ---------------      ----- ------------  ---------------
    20     -0.852229   1 Fe dzz              15      0.415808   1 Fe dxx       
    18      0.415808   1 Fe dyy              44     -0.268503   3 C  s         
    29     -0.268503   2 C  s                89      0.229220   6 C  s         
   104      0.229220   7 C  s               119      0.229220   8 C  s         
    28     -0.168626   2 C  s                43     -0.168626   3 C  s         

 Vector   54  Occ=0.000000D+00  E=-8.349863D-02  Symmetry=a2"
              MO Center=  3.6D-15, -3.2D-15, -5.2D-15, r^2= 5.6D+00
   Bfn.  Coefficient  Atom+Function         Bfn.  Coefficient  Atom+Function  
  ----- ------------  ---------------      ----- ------------  ---------------
   122      0.407041   8 C  pz               92      0.407041   6 C  pz        
   107      0.407041   7 C  pz               44      0.369746   3 C  s         
    29     -0.369746   2 C  s               167     -0.281413  11 O  pz        
   137     -0.281413   9 O  pz              152     -0.281413  10 O  pz        
   125      0.270349   8 C  pz               95      0.270349   6 C  pz        

 Vector   55  Occ=0.000000D+00  E=-7.792918D-02  Symmetry=a2'
              MO Center= -8.9D-16, -2.1D-15, -1.2D-28, r^2= 5.8D+00
   Bfn.  Coefficient  Atom+Function         Bfn.  Coefficient  Atom+Function  
  ----- ------------  ---------------      ----- ------------  ---------------
   120      0.427530   8 C  px              106     -0.427530   7 C  py        
    91      0.312974   6 C  py               90     -0.312974   6 C  px        
   165     -0.282858  11 O  px              151      0.282858  10 O  py        
   109     -0.281592   7 C  py              123      0.281592   8 C  px        
   168     -0.221476  11 O  px              154      0.221476  10 O  py        

 Vector   56  Occ=0.000000D+00  E=-6.749642D-02  Symmetry=e'
              MO Center=  1.1D-01,  6.1D-01, -3.6D-15, r^2= 4.1D+00
   Bfn.  Coefficient  Atom+Function         Bfn.  Coefficient  Atom+Function  
  ----- ------------  ---------------      ----- ------------  ---------------
    18     -0.464731   1 Fe dyy              15      0.464731   1 Fe dxx       
   106     -0.357420   7 C  py               91     -0.341074   6 C  py        
    90      0.312815   6 C  px               16      0.294533   1 Fe dxy       
   151      0.255133  10 O  py              136      0.244632   9 O  py        
   135     -0.214196   9 O  px              119     -0.210015   8 C  s         

 Vector   57  Occ=0.000000D+00  E=-6.749642D-02  Symmetry=e'
              MO Center= -1.1D-01, -6.1D-01, -8.4D-16, r^2= 4.1D+00
   Bfn.  Coefficient  Atom+Function         Bfn.  Coefficient  Atom+Function  
  ----- ------------  ---------------      ----- ------------  ---------------
    16     -0.929463   1 Fe dxy             120      0.453861   8 C  px        
   165     -0.317088  11 O  px              106      0.303377   7 C  py        
   123      0.279142   8 C  px              168     -0.229436  11 O  px        
   151     -0.208133  10 O  py               89     -0.204999   6 C  s         
   109      0.194004   7 C  py              104      0.158757   7 C  s         

 Vector   58  Occ=0.000000D+00  E=-4.407852D-02  Symmetry=e"
              MO Center=  5.2D-01, -8.7D-02,  3.8D-15, r^2= 5.3D+00
   Bfn.  Coefficient  Atom+Function         Bfn.  Coefficient  Atom+Function  
  ----- ------------  ---------------      ----- ------------  ---------------
    92     -0.446594   6 C  pz              122      0.422304   8 C  pz        
    46     -0.398963   3 C  py               31      0.398963   2 C  py        
    95     -0.382846   6 C  pz              125      0.362023   8 C  pz        
   137      0.254200   9 O  pz               49     -0.244839   3 C  py        
    34      0.244839   2 C  py              167     -0.240374  11 O  pz        

 Vector   59  Occ=0.000000D+00  E=-4.407852D-02  Symmetry=e"
              MO Center= -5.2D-01,  8.7D-02, -1.4D-14, r^2= 5.3D+00
   Bfn.  Coefficient  Atom+Function         Bfn.  Coefficient  Atom+Function  
  ----- ------------  ---------------      ----- ------------  ---------------
   107     -0.501658   7 C  pz              110     -0.430050   7 C  pz        
    45      0.398963   3 C  px               30     -0.398963   2 C  px        
   152      0.285542  10 O  pz              122      0.271865   8 C  pz        
   155      0.264984  10 O  pz               48      0.244839   3 C  px        
    33     -0.244839   2 C  px              125      0.233058   8 C  pz        

 Vector   60  Occ=0.000000D+00  E= 1.653518D-03  Symmetry=a1'
              MO Center= -1.1D-15, -3.7D-16,  2.2D-15, r^2= 1.0D+01
   Bfn.  Coefficient  Atom+Function         Bfn.  Coefficient  Atom+Function  
  ----- ------------  ---------------      ----- ------------  ---------------
     5     -3.069280   1 Fe s                 4      0.650732   1 Fe s         
    44      0.403405   3 C  s                29      0.403405   2 C  s         
    24      0.358632   1 Fe dyy              21      0.358632   1 Fe dxx       
   104      0.236777   7 C  s                89      0.236777   6 C  s         
   119      0.236777   8 C  s                35     -0.202046   2 C  pz        

 Vector   61  Occ=0.000000D+00  E= 9.449402D-02  Symmetry=a2"
              MO Center= -1.3D-15,  3.9D-16,  3.9D-14, r^2= 1.0D+01
   Bfn.  Coefficient  Atom+Function         Bfn.  Coefficient  Atom+Function  
  ----- ------------  ---------------      ----- ------------  ---------------
    35      1.483871   2 C  pz               50      1.483871   3 C  pz        
    74      0.986213   5 O  s                59     -0.986213   4 O  s         
    14      0.668144   1 Fe pz              110      0.451974   7 C  pz        
   125      0.451974   8 C  pz               95      0.451974   6 C  pz        
    29     -0.218366   2 C  s                44      0.218366   3 C  s         

 Vector   62  Occ=0.000000D+00  E= 1.179558D-01  Symmetry=e'
              MO Center= -4.2D-01, -8.4D-01,  3.2D-15, r^2= 9.3D+00
   Bfn.  Coefficient  Atom+Function         Bfn.  Coefficient  Atom+Function  
  ----- ------------  ---------------      ----- ------------  ---------------
   124      1.366110   8 C  py              164      1.227794  11 O  s         
   108     -1.105692   7 C  px              149     -1.016121  10 O  s         
   109      0.481567   7 C  py              123     -0.469602   8 C  px        
    94      0.372969   6 C  py               34      0.372881   2 C  py        
    49      0.372881   3 C  py              119     -0.371059   8 C  s         

 Vector   63  Occ=0.000000D+00  E= 1.179558D-01  Symmetry=e'
              MO Center=  4.2D-01,  8.4D-01,  4.5D-15, r^2= 9.3D+00
   Bfn.  Coefficient  Atom+Function         Bfn.  Coefficient  Atom+Function  
  ----- ------------  ---------------      ----- ------------  ---------------
   134      1.295525   9 O  s                93     -1.107462   6 C  px        
    94     -1.042993   6 C  py              108     -0.998863   7 C  px        
   149     -0.831077  10 O  s               124     -0.595001   8 C  py        
   164     -0.464448  11 O  s                89     -0.391528   6 C  s         
    33     -0.372881   2 C  px               48     -0.372881   3 C  px        

 Vector   64  Occ=0.000000D+00  E= 1.487231D-01  Symmetry=a1'
              MO Center= -4.0D-14, -3.5D-14, -4.9D-14, r^2= 8.9D+00
   Bfn.  Coefficient  Atom+Function         Bfn.  Coefficient  Atom+Function  
  ----- ------------  ---------------      ----- ------------  ---------------
    26      2.485501   1 Fe dzz              44     -1.794702   3 C  s         
    29     -1.794702   2 C  s                89      1.322724   6 C  s         
   119      1.322724   8 C  s               104      1.322724   7 C  s         
    21     -1.131388   1 Fe dxx              24     -1.131388   1 Fe dyy       
    50     -1.037382   3 C  pz               35      1.037382   2 C  pz        

 Vector   65  Occ=0.000000D+00  E= 1.896895D-01  Symmetry=e'
              MO Center= -5.5D-02, -6.7D-01,  5.6D-15, r^2= 6.6D+00
   Bfn.  Coefficient  Atom+Function         Bfn.  Coefficient  Atom+Function  
  ----- ------------  ---------------      ----- ------------  ---------------
    22      2.792719   1 Fe dxy              89     -1.970017   6 C  s         
   104      1.611797   7 C  s                12      1.551160   1 Fe px        
   108      0.762355   7 C  px               13      0.717639   1 Fe py        
    93      0.698376   6 C  px               94      0.615363   6 C  py        
   120      0.545265   8 C  px               21     -0.513000   1 Fe dxx       

 Vector   66  Occ=0.000000D+00  E= 1.896895D-01  Symmetry=e'
              MO Center=  5.5D-02,  6.7D-01,  2.3D-16, r^2= 6.6D+00
   Bfn.  Coefficient  Atom+Function         Bfn.  Coefficient  Atom+Function  
  ----- ------------  ---------------      ----- ------------  ---------------
   119      2.067961   8 C  s                13      1.551160   1 Fe py        
    24     -1.396359   1 Fe dyy              21      1.396359   1 Fe dxx       
   104     -1.344209   7 C  s                22      1.026000   1 Fe dxy       
   124      0.934392   8 C  py               89     -0.723753   6 C  s         
    12     -0.717639   1 Fe px              108     -0.578424   7 C  px        

 Vector   67  Occ=0.000000D+00  E= 2.219878D-01  Symmetry=a1'
              MO Center= -6.9D-15, -1.7D-15, -8.2D-15, r^2= 9.7D+00
   Bfn.  Coefficient  Atom+Function         Bfn.  Coefficient  Atom+Function  
  ----- ------------  ---------------      ----- ------------  ---------------
    89     -0.999292   6 C  s               119     -0.999292   8 C  s         
   104     -0.999292   7 C  s               124      0.920985   8 C  py        
   108      0.920985   7 C  px              134      0.911819   9 O  s         
   164      0.911819  11 O  s               149      0.911819  10 O  s         
    50     -0.759028   3 C  pz               35      0.759028   2 C  pz        

 Vector   68  Occ=0.000000D+00  E= 2.287514D-01  Symmetry=e"
              MO Center= -2.9D-01, -2.3D-01, -3.1D-15, r^2= 7.5D+00
   Bfn.  Coefficient  Atom+Function         Bfn.  Coefficient  Atom+Function  
  ----- ------------  ---------------      ----- ------------  ---------------
    23     -4.100710   1 Fe dxz              25      3.699548   1 Fe dyz       
   110     -1.661134   7 C  pz              125      1.565332   8 C  pz        
    48     -1.070692   3 C  px               33      1.070692   2 C  px        
    49      0.965949   3 C  py               34     -0.965949   2 C  py        
   107      0.277962   7 C  pz              122     -0.261931   8 C  pz        

 Vector   69  Occ=0.000000D+00  E= 2.287514D-01  Symmetry=e"
              MO Center=  2.9D-01,  2.3D-01, -8.8D-15, r^2= 7.5D+00
   Bfn.  Coefficient  Atom+Function         Bfn.  Coefficient  Atom+Function  
  ----- ------------  ---------------      ----- ------------  ---------------
    25      4.100710   1 Fe dyz              23      3.699548   1 Fe dxz       
    95     -1.862801   6 C  pz               49      1.070692   3 C  py        
    34     -1.070692   2 C  py              125      1.014368   8 C  pz        
    48      0.965949   3 C  px               33     -0.965949   2 C  px        
   110      0.848433   7 C  pz               92      0.311707   6 C  pz        

 Vector   70  Occ=0.000000D+00  E= 2.555464D-01  Symmetry=a1'
              MO Center=  2.3D-14, -1.6D-14, -1.0D-13, r^2= 9.3D+00
   Bfn.  Coefficient  Atom+Function         Bfn.  Coefficient  Atom+Function  
  ----- ------------  ---------------      ----- ------------  ---------------
     5      5.374396   1 Fe s                26     -2.507297   1 Fe dzz       
    24     -1.892008   1 Fe dyy              21     -1.892008   1 Fe dxx       
     4     -0.429773   1 Fe s                29      0.370895   2 C  s         
    44      0.370895   3 C  s                 3      0.344775   1 Fe s         
    50     -0.331627   3 C  pz               35      0.331627   2 C  pz        

 Vector   71  Occ=0.000000D+00  E= 2.587504D-01  Symmetry=e"
              MO Center= -1.5D-01,  1.8D-01, -1.6D-16, r^2= 6.2D+00
   Bfn.  Coefficient  Atom+Function         Bfn.  Coefficient  Atom+Function  
  ----- ------------  ---------------      ----- ------------  ---------------
    25     -1.765250   1 Fe dyz              31      0.538597   2 C  py        
    46     -0.538597   3 C  py              125     -0.443189   8 C  pz        
   122     -0.323951   8 C  pz               49      0.310158   3 C  py        
    34     -0.310158   2 C  py               95      0.304753   6 C  pz        
   170      0.223718  11 O  pz               92      0.222761   6 C  pz        

 Vector   72  Occ=0.000000D+00  E= 2.587504D-01  Symmetry=e"
              MO Center=  1.5D-01, -1.8D-01, -2.7D-15, r^2= 6.2D+00
   Bfn.  Coefficient  Atom+Function         Bfn.  Coefficient  Atom+Function  
  ----- ------------  ---------------      ----- ------------  ---------------
    23      1.765250   1 Fe dxz              45      0.538597   3 C  px        
    30     -0.538597   2 C  px              110      0.431824   7 C  pz        
    95     -0.335801   6 C  pz              107      0.315645   7 C  pz        
    33      0.310158   2 C  px               48     -0.310158   3 C  px        
    92     -0.245456   6 C  pz              155     -0.217981  10 O  pz        

 Vector   73  Occ=0.000000D+00  E= 2.972092D-01  Symmetry=a2"
              MO Center= -2.8D-15, -2.3D-15,  6.9D-14, r^2= 1.1D+01
   Bfn.  Coefficient  Atom+Function         Bfn.  Coefficient  Atom+Function  
  ----- ------------  ---------------      ----- ------------  ---------------
    14     -2.363077   1 Fe pz               35     -1.458931   2 C  pz        
    50     -1.458931   3 C  pz               59      0.826294   4 O  s         
    74     -0.826294   5 O  s               125      0.743388   8 C  pz        
   110      0.743388   7 C  pz               95      0.743388   6 C  pz        
    44     -0.654776   3 C  s                29      0.654776   2 C  s         

 Vector   74  Occ=0.000000D+00  E= 2.990401D-01  Symmetry=e'
              MO Center= -2.2D-01,  4.8D-01,  2.4D-15, r^2= 8.7D+00
   Bfn.  Coefficient  Atom+Function         Bfn.  Coefficient  Atom+Function  
  ----- ------------  ---------------      ----- ------------  ---------------
    22      2.309837   1 Fe dxy              12     -1.740460   1 Fe px        
    94     -1.176348   6 C  py              123      1.047180   8 C  px        
   108     -0.970558   7 C  px              149     -0.877544  10 O  s         
    21     -0.808157   1 Fe dxx              24      0.808157   1 Fe dyy       
   134      0.793437   9 O  s                33      0.766492   2 C  px        

 Vector   75  Occ=0.000000D+00  E= 2.990401D-01  Symmetry=e'
              MO Center=  2.2D-01, -4.8D-01, -1.5D-15, r^2= 8.7D+00
   Bfn.  Coefficient  Atom+Function         Bfn.  Coefficient  Atom+Function  
  ----- ------------  ---------------      ----- ------------  ---------------
    13     -1.740460   1 Fe py               22      1.616315   1 Fe dxy       
   124     -1.176335   8 C  py               21      1.154918   1 Fe dxx       
    24     -1.154918   1 Fe dyy              93     -1.153534   6 C  px        
   164     -0.964742  11 O  s               109      0.841403   7 C  py        
   108      0.772086   7 C  px               49      0.766492   3 C  py        

 Vector   76  Occ=0.000000D+00  E= 3.324512D-01  Symmetry=a1'
              MO Center= -1.3D-13, -3.7D-15,  9.6D-14, r^2= 1.2D+01
   Bfn.  Coefficient  Atom+Function         Bfn.  Coefficient  Atom+Function  
  ----- ------------  ---------------      ----- ------------  ---------------
    29     -4.738650   2 C  s                44     -4.738650   3 C  s         
    26      4.226119   1 Fe dzz               5      1.569706   1 Fe s         
    59      1.551373   4 O  s                74      1.551373   5 O  s         
    21     -1.172877   1 Fe dxx              24     -1.172877   1 Fe dyy       
    65     -0.910730   4 O  pz               80      0.910730   5 O  pz        

 Vector   77  Occ=0.000000D+00  E= 3.339806D-01  Symmetry=a2'
              MO Center= -3.4D-15,  1.2D-14, -1.5D-29, r^2= 8.4D+00
   Bfn.  Coefficient  Atom+Function         Bfn.  Coefficient  Atom+Function  
  ----- ------------  ---------------      ----- ------------  ---------------
   109     -0.816498   7 C  py              123      0.816498   8 C  px        
    93     -0.597718   6 C  px               94      0.597718   6 C  py        
   106      0.417356   7 C  py              120     -0.417356   8 C  px        
    91     -0.305526   6 C  py               90      0.305526   6 C  px        
   124      0.218780   8 C  py              108     -0.218780   7 C  px        

 Vector   78  Occ=0.000000D+00  E= 3.447120D-01  Symmetry=e'
              MO Center= -5.8D-01, -4.2D-01,  8.6D-16, r^2= 7.2D+00
   Bfn.  Coefficient  Atom+Function         Bfn.  Coefficient  Atom+Function  
  ----- ------------  ---------------      ----- ------------  ---------------
    22      3.523771   1 Fe dxy             109      1.921914   7 C  py        
   123      1.783747   8 C  px               13     -1.147936   1 Fe py        
    12     -0.985017   1 Fe px               93     -0.506072   6 C  px        
    49     -0.391084   3 C  py               34     -0.391084   2 C  py        
    48     -0.335580   3 C  px               33     -0.335580   2 C  px        

 Vector   79  Occ=0.000000D+00  E= 3.447120D-01  Symmetry=e'
              MO Center=  5.8D-01,  4.2D-01,  2.3D-15, r^2= 7.2D+00
   Bfn.  Coefficient  Atom+Function         Bfn.  Coefficient  Atom+Function  
  ----- ------------  ---------------      ----- ------------  ---------------
    24     -1.761885   1 Fe dyy              21      1.761885   1 Fe dxx       
    94      1.535569   6 C  py               93     -1.475828   6 C  px        
    12      1.147936   1 Fe px              123     -1.045972   8 C  px        
    13     -0.985017   1 Fe py              109      0.762926   7 C  py        
   124     -0.754250   8 C  py              108      0.722141   7 C  px        

 Vector   80  Occ=0.000000D+00  E= 4.090760D-01  Symmetry=a2"
              MO Center= -5.5D-16,  2.6D-16,  1.3D-14, r^2= 5.7D+00
   Bfn.  Coefficient  Atom+Function         Bfn.  Coefficient  Atom+Function  
  ----- ------------  ---------------      ----- ------------  ---------------
    14     -4.584112   1 Fe pz               44     -3.444964   3 C  s         
    29      3.444964   2 C  s                35     -1.780867   2 C  pz        
    50     -1.780867   3 C  pz               80      0.558977   5 O  pz        
    65      0.558977   4 O  pz               62      0.344683   4 O  pz        
    77      0.344683   5 O  pz               11     -0.316402   1 Fe pz        

 Vector   81  Occ=0.000000D+00  E= 4.136105D-01  Symmetry=e'
              MO Center= -6.2D-02,  1.3D-01, -1.8D-15, r^2= 7.5D+00
   Bfn.  Coefficient  Atom+Function         Bfn.  Coefficient  Atom+Function  
  ----- ------------  ---------------      ----- ------------  ---------------
    22      5.580443   1 Fe dxy             104      4.882546   7 C  s         
    89     -4.354413   6 C  s                12      3.526085   1 Fe px        
   123      2.109130   8 C  px               21     -2.001705   1 Fe dxx       
    24      2.001705   1 Fe dyy              93      1.654257   6 C  px        
   108      1.401162   7 C  px              153     -0.726856  10 O  px        

 Vector   82  Occ=0.000000D+00  E= 4.136105D-01  Symmetry=e'
              MO Center=  6.2D-02, -1.3D-01,  8.6D-14, r^2= 7.5D+00
   Bfn.  Coefficient  Atom+Function         Bfn.  Coefficient  Atom+Function  
  ----- ------------  ---------------      ----- ------------  ---------------
   119      5.332961   8 C  s                22      4.003411   1 Fe dxy       
    13      3.526085   1 Fe py               89     -3.123857   6 C  s         
    24     -2.790222   1 Fe dyy              21      2.790222   1 Fe dxx       
   104     -2.209104   7 C  s               109      2.041870   7 C  py        
    94      1.788776   6 C  py              124      1.333903   8 C  py        

 Vector   83  Occ=0.000000D+00  E= 4.187688D-01  Symmetry=e"
              MO Center= -3.4D-01, -2.5D-02, -3.6D-14, r^2= 9.0D+00
   Bfn.  Coefficient  Atom+Function         Bfn.  Coefficient  Atom+Function  
  ----- ------------  ---------------      ----- ------------  ---------------
    23     -3.170985   1 Fe dxz              48     -1.699091   3 C  px        
    33      1.699091   2 C  px               25      1.450272   1 Fe dyz       
    49      0.777091   3 C  py               34     -0.777091   2 C  py        
   110      0.474087   7 C  pz              107     -0.435296   7 C  pz        
   125     -0.306320   8 C  pz              122      0.281255   8 C  pz        

 Vector   84  Occ=0.000000D+00  E= 4.187688D-01  Symmetry=e"
              MO Center=  3.4D-01,  2.5D-02, -5.3D-14, r^2= 9.0D+00
   Bfn.  Coefficient  Atom+Function         Bfn.  Coefficient  Atom+Function  
  ----- ------------  ---------------      ----- ------------  ---------------
    25     -3.170985   1 Fe dyz              49     -1.699091   3 C  py        
    34      1.699091   2 C  py               23     -1.450272   1 Fe dxz       
    33      0.777091   2 C  px               48     -0.777091   3 C  px        
    95     -0.450568   6 C  pz               92      0.413701   6 C  pz        
   125      0.370575   8 C  pz              122     -0.340253   8 C  pz        

 Vector   85  Occ=0.000000D+00  E= 4.594025D-01  Symmetry=a1'
              MO Center= -6.0D-15,  1.1D-14,  1.4D-16, r^2= 1.1D+01
   Bfn.  Coefficient  Atom+Function         Bfn.  Coefficient  Atom+Function  
  ----- ------------  ---------------      ----- ------------  ---------------
     5     -3.388973   1 Fe s                 4      1.967999   1 Fe s         
    26      1.513964   1 Fe dzz             104      1.200136   7 C  s         
    89      1.200136   6 C  s               119      1.200136   8 C  s         
   153     -0.836006  10 O  px              169     -0.836006  11 O  py        
    24      0.625688   1 Fe dyy              21      0.625688   1 Fe dxx       

 Vector   86  Occ=0.000000D+00  E= 4.854742D-01  Symmetry=e'
              MO Center= -1.2D+00,  6.1D-02, -7.5D-16, r^2= 1.0D+01
   Bfn.  Coefficient  Atom+Function         Bfn.  Coefficient  Atom+Function  
  ----- ------------  ---------------      ----- ------------  ---------------
   153      1.024038  10 O  px              103     -0.644653   7 C  s         
   169     -0.584383  11 O  py              118      0.381898   8 C  s         
   138      0.381119   9 O  px              104      0.374378   7 C  s         
   150     -0.341319  10 O  px               21     -0.337909   1 Fe dxx       
    24      0.337909   1 Fe dyy              22      0.299613   1 Fe dxy       

 Vector   87  Occ=0.000000D+00  E= 4.854742D-01  Symmetry=e'
              MO Center=  1.2D+00, -6.1D-02, -2.7D-15, r^2= 1.0D+01
   Bfn.  Coefficient  Atom+Function         Bfn.  Coefficient  Atom+Function  
  ----- ------------  ---------------      ----- ------------  ---------------
   169      0.852384  11 O  py              139      0.724426   9 O  py        
    22      0.675819   1 Fe dxy             138      0.658260   9 O  px        
    88      0.592679   6 C  s               118     -0.523892   8 C  s         
    89     -0.344195   6 C  s               119      0.304247   8 C  s         
   166     -0.297188  11 O  py              136     -0.264290   9 O  py        

 Vector   88  Occ=0.000000D+00  E= 4.906306D-01  Symmetry=a2"
              MO Center= -1.9D-15, -3.3D-15, -6.2D-14, r^2= 1.3D+01
   Bfn.  Coefficient  Atom+Function         Bfn.  Coefficient  Atom+Function  
  ----- ------------  ---------------      ----- ------------  ---------------
    14     -1.282637   1 Fe pz               80      1.150603   5 O  pz        
    65      1.150603   4 O  pz               44     -1.020340   3 C  s         
    29      1.020340   2 C  s                35     -0.784269   2 C  pz        
    50     -0.784269   3 C  pz               43     -0.445830   3 C  s         
    28      0.445830   2 C  s                74      0.318662   5 O  s         

 Vector   89  Occ=0.000000D+00  E= 5.326461D-01  Symmetry=a1'
              MO Center=  1.4D-14, -1.4D-14,  8.9D-16, r^2= 9.7D+00
   Bfn.  Coefficient  Atom+Function         Bfn.  Coefficient  Atom+Function  
  ----- ------------  ---------------      ----- ------------  ---------------
     5     -2.264098   1 Fe s                 4      1.769364   1 Fe s         
    26      1.764039   1 Fe dzz              65      0.829449   4 O  pz        
    80     -0.829449   5 O  pz              124     -0.697163   8 C  py        
   108     -0.697163   7 C  px               35     -0.596686   2 C  pz        
    50      0.596686   3 C  pz               93      0.510358   6 C  px        


 center of mass
 --------------
 x =   0.00000000 y =   0.00000000 z =   0.00000000

 moments of inertia (a.u.)
 ------------------
        2255.012792094188           0.000000000000           0.000000000000
           0.000000000000        2255.012792094188           0.000000000000
           0.000000000000           0.000000000000        1950.260605202691

     Multipole analysis of the density
     ---------------------------------

     L   x y z        total         alpha         beta         nuclear
     -   - - -        -----         -----         ----         -------
     0   0 0 0      0.000000    -48.000000    -48.000000     96.000000

     1   1 0 0      0.000000      0.000000      0.000000      0.000000
     1   0 1 0      0.000000      0.000000      0.000000      0.000000
     1   0 0 1      0.000000      0.000000      0.000000      0.000000

     2   2 0 0    -53.003653   -270.344905   -270.344905    487.686157
     2   1 1 0      0.000000      0.000000      0.000000      0.000000
     2   1 0 1      0.000000      0.000000      0.000000      0.000000
     2   0 2 0    -53.003653   -270.344905   -270.344905    487.686157
     2   0 1 1      0.000000      0.000000      0.000000      0.000000
     2   0 0 2    -51.969478   -346.034925   -346.034925    640.100373


 Task  times  cpu:        8.4s     wall:        8.6s


                                NWChem Input Module
                                -------------------


  perdew86 is a nonlocal functional; adding perdew81 local functional. 
              case t20 --- DFT (energy) with Becke '88 and Perdew '86
              -------------------------------------------------------

                                 NWChem DFT Module
                                 -----------------


              case t20 --- DFT (energy) with Becke '88 and Perdew '86


  Caching 1-el integrals 
  Rotation of axis 

            General Information
            -------------------
          SCF calculation type: DFT
          Wavefunction type:  closed shell.
          No. of atoms     :    11
          No. of electrons :    96
           Alpha electrons :    48
            Beta electrons :    48
          Charge           :     0
          Spin multiplicity:     1
          Use of symmetry is: on ; symmetry adaption is: on 
          Maximum number of iterations:  30
          AO basis - number of functions:   176
                     number of shells:    70
          A Charge density fitting basis will be used.
          CD basis - number of functions:   395
                     number of shells:   150
          Convergence on energy requested: 1.00D-06
          Convergence on density requested: 1.00D-05
          Convergence on gradient requested: 5.00D-04

              XC Information
              --------------
                    Becke 1988 Exchange Functional  1.000          
                Perdew 1981 Correlation Functional  1.000 local    
                Perdew 1986 Correlation Functional  1.000 non-local

             Grid Information
             ----------------
          Grid used for XC integration:  medium    
          Radial quadrature: Mura-Knowles        
          Angular quadrature: Lebedev. 
          Tag              B.-S. Rad. Rad. Pts. Rad. Cut. Ang. Pts.
          ---              ---------- --------- --------- ---------
          fe                  1.40      112           8.0       590
          c                   0.70       49          11.0       434
          o                   0.60       49          13.0       434
          Grid pruning is: on 
          Number of quadrature shells:   308
          Spatial weights used:  Erf1

          Convergence Information
          -----------------------
          Convergence aids based upon iterative change in 
          total energy or number of iterations. 
          Levelshifting, if invoked, occurs when the 
          HOMO/LUMO gap drops below (HL_TOL): 1.00D-02
          DIIS, if invoked, will attempt to extrapolate 
          using up to (NFOCK): 10 stored Fock matrices.

                    Damping( 0%)  Levelshifting(0.5)       DIIS
                  --------------- ------------------- ---------------
          dE  on:    start            ASAP                start   
          dE off:    2 iters         30 iters            30 iters 


      Screening Tolerance Information
      -------------------------------
          Density screening/tol_rho: 1.00D-10
          AO Gaussian exp screening on grid/accAOfunc:  14
          CD Gaussian exp screening on grid/accCDfunc:  20
          XC Gaussian exp screening on grid/accXCfunc:  20
          Schwarz screening/accCoul: 1.00D-08


 Loading old vectors from job with title :

case t19 --- Default DFT (energy)


      Symmetry analysis of molecular orbitals - initial
      -------------------------------------------------

  Numbering of irreducible representations: 

     1 a1'         2 a1"         3 a2'         4 a2"         5 e'      
     6 e"      

  Orbital symmetries:

     1 a1'         2 a1'         3 a2"         4 e'          5 e'      
     6 a1'         7 a2"         8 a1'         9 e'         10 e'      
    11 a1'        12 a2"        13 a1'        14 e'         15 e'      
    16 a1'        17 a2"        18 e'         19 e'         20 a1'     
    21 a2"        22 a1'        23 e'         24 e'         25 a1'     
    26 a2"        27 e'         28 e'         29 a1'        30 a1'     
    31 e"         32 e"         33 e'         34 e'         35 a2"     
    36 e'         37 e'         38 a2'        39 a1'        40 e"      
    41 e"         42 e'         43 e'         44 a2"        45 e"      
[...]
   164      1.230108  11 O  s               149     -1.181291  10 O  s         
   109      0.511574   7 C  py              123     -0.509823   8 C  px        
    49      0.308850   3 C  py               34      0.308850   2 C  py        
    33     -0.287925   2 C  px               48     -0.287925   3 C  px        

 Vector   64  Occ=0.000000D+00  E= 1.731127D-01  Symmetry=a1'
              MO Center=  2.6D-14,  4.7D-14, -3.0D-14, r^2= 9.3D+00
   Bfn.  Coefficient  Atom+Function         Bfn.  Coefficient  Atom+Function  
  ----- ------------  ---------------      ----- ------------  ---------------
    26      2.441495   1 Fe dzz              29     -1.864867   2 C  s         
    44     -1.864867   3 C  s               119      1.301431   8 C  s         
   104      1.301431   7 C  s                89      1.301431   6 C  s         
    24     -1.160307   1 Fe dyy              21     -1.160307   1 Fe dxx       
    35      1.123002   2 C  pz               50     -1.123002   3 C  pz        

 Vector   65  Occ=0.000000D+00  E= 2.257982D-01  Symmetry=e'
              MO Center= -3.3D-01, -6.2D-01, -6.3D-15, r^2= 6.6D+00
   Bfn.  Coefficient  Atom+Function         Bfn.  Coefficient  Atom+Function  
  ----- ------------  ---------------      ----- ------------  ---------------
    22     -2.923042   1 Fe dxy              89      2.273932   6 C  s         
    12     -1.595203   1 Fe px              104     -1.426170   7 C  s         
    13     -1.186664   1 Fe py              119     -0.847762   8 C  s         
    93     -0.754843   6 C  px               94     -0.729283   6 C  py        
   108     -0.661007   7 C  px              120     -0.515067   8 C  px        

 Vector   66  Occ=0.000000D+00  E= 2.257982D-01  Symmetry=e'
              MO Center=  3.3D-01,  6.2D-01,  1.3D-17, r^2= 6.6D+00
   Bfn.  Coefficient  Atom+Function         Bfn.  Coefficient  Atom+Function  
  ----- ------------  ---------------      ----- ------------  ---------------
   119      2.136255   8 C  s               104     -1.802311   7 C  s         
    13      1.595203   1 Fe py               21      1.461521   1 Fe dxx       
    24     -1.461521   1 Fe dyy              12     -1.186664   1 Fe px        
   124      0.940428   8 C  py              108     -0.783460   7 C  px        
    22      0.429271   1 Fe dxy              91      0.402231   6 C  py        

 Vector   67  Occ=0.000000D+00  E= 2.513467D-01  Symmetry=a1'
              MO Center=  1.1D-13,  5.3D-14,  4.4D-15, r^2= 9.9D+00
   Bfn.  Coefficient  Atom+Function         Bfn.  Coefficient  Atom+Function  
  ----- ------------  ---------------      ----- ------------  ---------------
   104     -1.048782   7 C  s               119     -1.048782   8 C  s         
    89     -1.048782   6 C  s                21      1.007145   1 Fe dxx       
    24      1.007145   1 Fe dyy             164      0.953904  11 O  s         
   134      0.953904   9 O  s               149      0.953904  10 O  s         
   124      0.935012   8 C  py              108      0.935012   7 C  px        

 Vector   68  Occ=0.000000D+00  E= 2.619224D-01  Symmetry=e"
              MO Center= -3.1D-01,  2.0D-01,  6.3D-15, r^2= 7.5D+00
   Bfn.  Coefficient  Atom+Function         Bfn.  Coefficient  Atom+Function  
  ----- ------------  ---------------      ----- ------------  ---------------
    23     -5.566290   1 Fe dxz             110     -1.830100   7 C  pz        
    48     -1.486359   3 C  px               33      1.486359   2 C  px        
    95      1.163957   6 C  pz              125      0.666144   8 C  pz        
    25      0.592383   1 Fe dyz             107      0.316862   7 C  pz        
    17     -0.276511   1 Fe dxz             155      0.228792  10 O  pz        

 Vector   69  Occ=0.000000D+00  E= 2.619224D-01  Symmetry=e"
              MO Center=  3.1D-01, -2.0D-01,  7.5D-15, r^2= 7.5D+00
   Bfn.  Coefficient  Atom+Function         Bfn.  Coefficient  Atom+Function  
  ----- ------------  ---------------      ----- ------------  ---------------
    25     -5.566290   1 Fe dyz             125     -1.728620   8 C  pz        
    34      1.486359   2 C  py               49     -1.486359   3 C  py        
    95      1.441207   6 C  pz               23     -0.592383   1 Fe dxz       
   122      0.299291   8 C  pz              110      0.287413   7 C  pz        
    19     -0.276511   1 Fe dyz              92     -0.249529   6 C  pz        

 Vector   70  Occ=0.000000D+00  E= 2.905477D-01  Symmetry=a1'
              MO Center=  9.5D-15,  8.3D-15,  8.3D-15, r^2= 9.0D+00
   Bfn.  Coefficient  Atom+Function         Bfn.  Coefficient  Atom+Function  
  ----- ------------  ---------------      ----- ------------  ---------------
     5     -5.391265   1 Fe s                26      3.107130   1 Fe dzz       
    21      1.714745   1 Fe dxx              24      1.714745   1 Fe dyy       
    44     -0.850230   3 C  s                29     -0.850230   2 C  s         
     4      0.644680   1 Fe s                59      0.486092   4 O  s         
    74      0.486092   5 O  s                35     -0.419055   2 C  pz        

 Vector   71  Occ=0.000000D+00  E= 3.027574D-01  Symmetry=e"
              MO Center= -4.1D-02, -2.5D-01,  4.2D-15, r^2= 6.3D+00
   Bfn.  Coefficient  Atom+Function         Bfn.  Coefficient  Atom+Function  
  ----- ------------  ---------------      ----- ------------  ---------------
    23     -1.509553   1 Fe dxz              25     -0.778993   1 Fe dyz       
    30      0.491960   2 C  px               45     -0.491960   3 C  px        
    95      0.471407   6 C  pz              110     -0.366027   7 C  pz        
    33     -0.318113   2 C  px               48      0.318113   3 C  px        
    92      0.301188   6 C  pz               31      0.253873   2 C  py        

 Vector   72  Occ=0.000000D+00  E= 3.027574D-01  Symmetry=e"
              MO Center=  4.1D-02,  2.5D-01,  4.7D-16, r^2= 6.3D+00
   Bfn.  Coefficient  Atom+Function         Bfn.  Coefficient  Atom+Function  
  ----- ------------  ---------------      ----- ------------  ---------------
    25     -1.509553   1 Fe dyz              23      0.778993   1 Fe dxz       
    31      0.491960   2 C  py               46     -0.491960   3 C  py        
   125     -0.483493   8 C  pz              110      0.333008   7 C  pz        
    34     -0.318113   2 C  py               49      0.318113   3 C  py        
   122     -0.308910   8 C  pz               45      0.253873   3 C  px        

 Vector   73  Occ=0.000000D+00  E= 3.296645D-01  Symmetry=a2"
              MO Center= -8.6D-15, -3.3D-15,  1.4D-15, r^2= 1.1D+01
   Bfn.  Coefficient  Atom+Function         Bfn.  Coefficient  Atom+Function  
  ----- ------------  ---------------      ----- ------------  ---------------
    14     -2.500725   1 Fe pz               35     -1.462263   2 C  pz        
    50     -1.462263   3 C  pz               59      0.818922   4 O  s         
    74     -0.818922   5 O  s                95      0.767796   6 C  pz        
   110      0.767796   7 C  pz              125      0.767796   8 C  pz        
    29      0.747241   2 C  s                44     -0.747241   3 C  s         

 Vector   74  Occ=0.000000D+00  E= 3.361777D-01  Symmetry=e'
              MO Center=  9.2D-03,  5.0D-01, -3.5D-15, r^2= 8.6D+00
   Bfn.  Coefficient  Atom+Function         Bfn.  Coefficient  Atom+Function  
  ----- ------------  ---------------      ----- ------------  ---------------
    22     -2.892944   1 Fe dxy              12      1.379140   1 Fe px        
   123     -1.140566   8 C  px               94      1.027821   6 C  py        
    89      0.965244   6 C  s               134     -0.909810   9 O  s         
   109     -0.909719   7 C  py              104     -0.819839   7 C  s         
   149      0.772755  10 O  s                33     -0.723014   2 C  px        

 Vector   75  Occ=0.000000D+00  E= 3.361777D-01  Symmetry=e'
              MO Center= -9.2D-03, -5.0D-01, -3.0D-15, r^2= 8.6D+00
   Bfn.  Coefficient  Atom+Function         Bfn.  Coefficient  Atom+Function  
  ----- ------------  ---------------      ----- ------------  ---------------
    24     -1.446472   1 Fe dyy              21      1.446472   1 Fe dxx       
    13     -1.379140   1 Fe py               22      1.167028   1 Fe dxy       
   124     -1.096711   8 C  py               93     -1.046464   6 C  px        
   119      1.030618   8 C  s               164     -0.971429  11 O  s         
   108      0.891075   7 C  px               49      0.723014   3 C  py        

 Vector   76  Occ=0.000000D+00  E= 3.633842D-01  Symmetry=a1'
              MO Center= -8.7D-14, -4.4D-14,  1.1D-14, r^2= 1.2D+01
   Bfn.  Coefficient  Atom+Function         Bfn.  Coefficient  Atom+Function  
  ----- ------------  ---------------      ----- ------------  ---------------
    29      4.796215   2 C  s                44      4.796215   3 C  s         
    26     -3.981522   1 Fe dzz               5     -2.236425   1 Fe s         
    59     -1.581123   4 O  s                74     -1.581123   5 O  s         
    21      1.358890   1 Fe dxx              24      1.358890   1 Fe dyy       
    65      0.924069   4 O  pz               80     -0.924069   5 O  pz        

 Vector   77  Occ=0.000000D+00  E= 3.717515D-01  Symmetry=a2'
              MO Center=  1.1D-13,  1.4D-13,  1.0D-17, r^2= 8.3D+00
   Bfn.  Coefficient  Atom+Function         Bfn.  Coefficient  Atom+Function  
  ----- ------------  ---------------      ----- ------------  ---------------
   109      0.823349   7 C  py              123     -0.823349   8 C  px        
    94     -0.602733   6 C  py               93      0.602733   6 C  px        
   106     -0.426593   7 C  py              120      0.426593   8 C  px        
    90     -0.312288   6 C  px               91      0.312288   6 C  py        
   108      0.220616   7 C  px              124     -0.220616   8 C  py        

 Vector   78  Occ=0.000000D+00  E= 3.840743D-01  Symmetry=e'
              MO Center= -4.2D-01, -7.4D-01, -8.0D-16, r^2= 7.3D+00
   Bfn.  Coefficient  Atom+Function         Bfn.  Coefficient  Atom+Function  
  ----- ------------  ---------------      ----- ------------  ---------------
    22     -4.735696   1 Fe dxy             123     -2.305717   8 C  px        
   109     -2.004605   7 C  py               12      0.815086   1 Fe px        
    89      0.760789   6 C  s                13      0.622248   1 Fe py        
    94      0.527312   6 C  py              104     -0.468790   7 C  s         
   124     -0.455473   8 C  py               33      0.429365   2 C  px        

 Vector   79  Occ=0.000000D+00  E= 3.840743D-01  Symmetry=e'
              MO Center=  4.2D-01,  7.4D-01, -2.3D-15, r^2= 7.3D+00
   Bfn.  Coefficient  Atom+Function         Bfn.  Coefficient  Atom+Function  
  ----- ------------  ---------------      ----- ------------  ---------------
    24      2.367848   1 Fe dyy              21     -2.367848   1 Fe dxx       
    93      1.815823   6 C  px               94     -1.738305   6 C  py        
   109     -1.411325   7 C  py              123      0.833038   8 C  px        
    13      0.815086   1 Fe py              108     -0.716094   7 C  px        
   119     -0.709898   8 C  s                22     -0.635357   1 Fe dxy       

 Vector   80  Occ=0.000000D+00  E= 4.590892D-01  Symmetry=e"
              MO Center= -3.5D-01,  1.3D-02, -3.1D-15, r^2= 8.9D+00
   Bfn.  Coefficient  Atom+Function         Bfn.  Coefficient  Atom+Function  
  ----- ------------  ---------------      ----- ------------  ---------------
    23      3.332136   1 Fe dxz              33     -1.780296   2 C  px        
    48      1.780296   3 C  px               25     -1.310892   1 Fe dyz       
    49     -0.700384   3 C  py               34      0.700384   2 C  py        
   110     -0.498483   7 C  pz              107      0.459428   7 C  pz        
   125      0.298238   8 C  pz              122     -0.274871   8 C  pz        

 Vector   81  Occ=0.000000D+00  E= 4.590892D-01  Symmetry=e"
              MO Center=  3.5D-01, -1.3D-02, -1.0D-13, r^2= 8.9D+00
   Bfn.  Coefficient  Atom+Function         Bfn.  Coefficient  Atom+Function  
  ----- ------------  ---------------      ----- ------------  ---------------
    25     -3.332136   1 Fe dyz              49     -1.780296   3 C  py        
    34      1.780296   2 C  py               23     -1.310892   1 Fe dxz       
    48     -0.700384   3 C  px               33      0.700384   2 C  px        
    95     -0.459987   6 C  pz               92      0.423948   6 C  pz        
   125      0.403411   8 C  pz              122     -0.371805   8 C  pz        

 Vector   82  Occ=0.000000D+00  E= 4.617568D-01  Symmetry=e'
              MO Center=  2.6D-01,  1.2D-02,  1.0D-13, r^2= 7.1D+00
   Bfn.  Coefficient  Atom+Function         Bfn.  Coefficient  Atom+Function  
  ----- ------------  ---------------      ----- ------------  ---------------
    22     -5.809466   1 Fe dxy              89      4.989479   6 C  s         
   119     -4.168571   8 C  s                13     -3.527181   1 Fe py        
   109     -1.694333   7 C  py               12     -1.557521   1 Fe px        
    94     -1.421421   6 C  py              124     -1.385056   8 C  py        
    21     -1.125206   1 Fe dxx              24      1.125206   1 Fe dyy       

 Vector   83  Occ=0.000000D+00  E= 4.617568D-01  Symmetry=e'
              MO Center= -2.6D-01, -1.2D-02,  7.2D-15, r^2= 7.1D+00
   Bfn.  Coefficient  Atom+Function         Bfn.  Coefficient  Atom+Function  
  ----- ------------  ---------------      ----- ------------  ---------------
   104     -5.287403   7 C  s                12     -3.527181   1 Fe px        
   119      3.354629   8 C  s                24     -2.904733   1 Fe dyy       
    21      2.904733   1 Fe dxx              22     -2.250412   1 Fe dxy       
    89      1.932774   6 C  s               123     -1.615484   8 C  px        
    93     -1.579119   6 C  px               13      1.557521   1 Fe py        

 Vector   84  Occ=0.000000D+00  E= 4.670498D-01  Symmetry=a2"
              MO Center= -1.9D-15,  7.8D-15,  7.8D-15, r^2= 5.8D+00
   Bfn.  Coefficient  Atom+Function         Bfn.  Coefficient  Atom+Function  
  ----- ------------  ---------------      ----- ------------  ---------------
    14     -4.701449   1 Fe pz               44     -3.605127   3 C  s         
    29      3.605127   2 C  s                50     -1.836126   3 C  pz        
    35     -1.836126   2 C  pz               65      0.629100   4 O  pz        
    80      0.629100   5 O  pz               62      0.320770   4 O  pz        
    77      0.320770   5 O  pz               11     -0.314405   1 Fe pz        

 Vector   85  Occ=0.000000D+00  E= 5.009834D-01  Symmetry=a1'
              MO Center=  1.5D-13, -8.9D-14, -1.1D-15, r^2= 1.1D+01
   Bfn.  Coefficient  Atom+Function         Bfn.  Coefficient  Atom+Function  
  ----- ------------  ---------------      ----- ------------  ---------------
     5      3.271697   1 Fe s                 4     -2.063278   1 Fe s         
    26     -1.543023   1 Fe dzz             119     -1.137027   8 C  s         
    89     -1.137027   6 C  s               104     -1.137027   7 C  s         
   169      0.830187  11 O  py              153      0.830187  10 O  px        
    21     -0.616218   1 Fe dxx              24     -0.616218   1 Fe dyy       


 center of mass
 --------------
 x =   0.00000000 y =   0.00000000 z =   0.00000000

 moments of inertia (a.u.)
 ------------------
        2255.012792094188           0.000000000000           0.000000000000
           0.000000000000        2255.012792094188           0.000000000000
           0.000000000000           0.000000000000        1950.260605202691

     Multipole analysis of the density
     ---------------------------------

     L   x y z        total         alpha         beta         nuclear
     -   - - -        -----         -----         ----         -------
     0   0 0 0      0.000000    -48.000000    -48.000000     96.000000

     1   1 0 0      0.000000      0.000000      0.000000      0.000000
     1   0 1 0      0.000000      0.000000      0.000000      0.000000
     1   0 0 1      0.000000      0.000000      0.000000      0.000000

     2   2 0 0    -53.630863   -270.658510   -270.658510    487.686157
     2   1 1 0      0.000000      0.000000      0.000000      0.000000
     2   1 0 1      0.000000      0.000000      0.000000      0.000000
     2   0 2 0    -53.630863   -270.658510   -270.658510    487.686157
     2   0 1 1      0.000000      0.000000      0.000000      0.000000
     2   0 0 2    -52.665990   -346.383181   -346.383181    640.100373


 Parallel integral file used     256 records with       0 large values


 Task  times  cpu:        9.9s     wall:       10.0s
 Summary of allocated global arrays
-----------------------------------
  No active global arrays



                         GA Statistics for process    0
                         ------------------------------

       create   destroy   get      put      acc     scatter   gather  read&inc
calls: 1590     1590     1.88e+05 1.35e+05 8.20e+04    0        0     2.96e+04 
number of processes/call 1.17e+00 1.06e+00 1.01e+00 0.00e+00 0.00e+00
bytes total:             6.13e+08 2.92e+08 1.44e+08 0.00e+00 0.00e+00 2.37e+05
bytes remote:            3.92e+08 1.79e+08 1.03e+08 0.00e+00 0.00e+00 0.00e+00
Max memory consumed for GA by this process: 2399456 bytes
MA_summarize_allocated_blocks: starting scan ...
MA_summarize_allocated_blocks: scan completed: 0 heap blocks, 0 stack blocks
MA usage statistics:

	allocation statistics:
					      heap	     stack
					      ----	     -----
	current number of blocks	         0	         0
	maximum number of blocks	        36	        63
	current total bytes		         0	         0
	maximum total bytes		  55925040	  36479104
	maximum total K-bytes		     55926	     36480
	maximum total M-bytes		        56	        37


                                NWChem Input Module
                                -------------------





                                     CITATION
                                     --------
                Please cite the following reference when publishing
                           results obtained with NWChem:

                 M. Valiev, E.J. Bylaska, N. Govind, K. Kowalski,
              T.P. Straatsma, H.J.J. van Dam, D. Wang, J. Nieplocha,
                        E. Apra, T.L. Windus, W.A. de Jong
                 "NWChem: a comprehensive and scalable open-source
                  solution for large scale molecular simulations"
                      Comput. Phys. Commun. 181, 1477 (2010)
                           doi:10.1016/j.cpc.2010.04.018

                              AUTHORS & CONTRIBUTORS
                              ----------------------
      E. J. Bylaska, W. A. de Jong, N. Govind, K. Kowalski, T. P. Straatsma,
     M. Valiev, H. J. J. Van Dam, D. Wang, E. Apra, T. L. Windus, J. Hammond,
     J. Autschbach, P. Nichols, S. Hirata, M. T. Hackler, Y. Zhao, P.-D. Fan,
      R. J. Harrison, M. Dupuis, D. M. A. Smith, J. Nieplocha, V. Tipparaju,
          M. Krishnan, A. Vazquez-Mayagoitia, L. Jensen, M. Swart, Q. Wu,
          T. Van Voorhis, A. A. Auer, M. Nooijen, L. D. Crosby, E. Brown,
             G. Cisneros, G. I. Fann, H. Fruchtl, J. Garza, K. Hirao,
        R. Kendall, J. A. Nichols, K. Tsemekhman, K. Wolinski, J. Anchell,
       D. Bernholdt, P. Borowski, T. Clark, D. Clerc, H. Dachsel, M. Deegan,
        K. Dyall, D. Elwood, E. Glendening, M. Gutowski, A. Hess, J. Jaffe,
        B. Johnson, J. Ju, R. Kobayashi, R. Kutteh, Z. Lin, R. Littlefield,
    X. Long, B. Meng, T. Nakajima, S. Niu, L. Pollack, M. Rosing, G. Sandrone,
       M. Stave, H. Taylor, G. Thomas, J. H. van Lenthe, A. Wong, Z. Zhang.

 Total times  cpu:       42.8s     wall:       43.9s
 