 Entering Gaussian System, Link 0=/usr/local/Gaussian/g03/g03
 Initial command:
 /usr/local/Gaussian/g03/l1.exe /export/scratch//webmo/3305/Gau-384.inp -scrdir=/export/scratch//webmo/3305/
 Entering Link 1 = /usr/local/Gaussian/g03/l1.exe PID=       386.
  
 Copyright (c) 1988,1990,1992,1993,1995,1998,2003, Gaussian, Inc.
                  All Rights Reserved.
  
 This is the Gaussian(R) 03 program.  It is based on the
 the Gaussian(R) 98 system (copyright 1998, Gaussian, Inc.),
 the Gaussian(R) 94 system (copyright 1995, Gaussian, Inc.),
 the Gaussian 92(TM) system (copyright 1992, Gaussian, Inc.),
 the Gaussian 90(TM) system (copyright 1990, Gaussian, Inc.),
 the Gaussian 88(TM) system (copyright 1988, Gaussian, Inc.),
 the Gaussian 86(TM) system (copyright 1986, Carnegie Mellon
 University), and the Gaussian 82(TM) system (copyright 1983,
 Carnegie Mellon University). Gaussian is a federally registered
 trademark of Gaussian, Inc.
  
 This software contains proprietary and confidential information,
 including trade secrets, belonging to Gaussian, Inc.
  
 This software is provided under written license and may be
 used, copied, transmitted, or stored only in accord with that
 written license.
  
 The following legend is applicable only to US Government
 contracts under DFARS:
  
                    RESTRICTED RIGHTS LEGEND
  
 Use, duplication or disclosure by the US Government is subject
 to restrictions as set forth in subparagraph (c)(1)(ii) of the
 Rights in Technical Data and Computer Software clause at DFARS
 252.227-7013.
  
 Gaussian, Inc.
 Carnegie Office Park, Building 6, Pittsburgh, PA 15106 USA
  
 The following legend is applicable only to US Government
 contracts under FAR:
  
                    RESTRICTED RIGHTS LEGEND
  
 Use, reproduction and disclosure by the US Government is subject
 to restrictions as set forth in subparagraph (c) of the
 Commercial Computer Software - Restricted Rights clause at FAR
 52.227-19.
  
 Gaussian, Inc.
 Carnegie Office Park, Building 6, Pittsburgh, PA 15106 USA
  
  
 ---------------------------------------------------------------
 Warning -- This program may not be used in any manner that
 competes with the business of Gaussian, Inc. or will provide
 assistance to any competitor of Gaussian, Inc.  The licensee
 of this program is prohibited from giving any competitor of
 Gaussian, Inc. access to this program.  By using this program,
 the user acknowledges that Gaussian, Inc. is engaged in the
 business of creating and licensing software in the field of
 computational chemistry and represents and warrants to the
 licensee that it is not a competitor of Gaussian, Inc. and that
 it will not use this program in any manner prohibited above.
 ---------------------------------------------------------------
  

 Cite this work as:
 Gaussian 03, Revision B.04,
 M. J. Frisch, G. W. Trucks, H. B. Schlegel, G. E. Scuseria, 
 M. A. Robb, J. R. Cheeseman, J. A. Montgomery, Jr., T. Vreven, 
 K. N. Kudin, J. C. Burant, J. M. Millam, S. S. Iyengar, J. Tomasi, 
 V. Barone, B. Mennucci, M. Cossi, G. Scalmani, N. Rega, 
 G. A. Petersson, H. Nakatsuji, M. Hada, M. Ehara, K. Toyota, 
 R. Fukuda, J. Hasegawa, M. Ishida, T. Nakajima, Y. Honda, O. Kitao, 
 H. Nakai, M. Klene, X. Li, J. E. Knox, H. P. Hratchian, J. B. Cross, 
 C. Adamo, J. Jaramillo, R. Gomperts, R. E. Stratmann, O. Yazyev, 
 A. J. Austin, R. Cammi, C. Pomelli, J. W. Ochterski, P. Y. Ayala, 
 K. Morokuma, G. A. Voth, P. Salvador, J. J. Dannenberg, 
 V. G. Zakrzewski, S. Dapprich, A. D. Daniels, M. C. Strain, 
 O. Farkas, D. K. Malick, A. D. Rabuck, K. Raghavachari, 
 J. B. Foresman, J. V. Ortiz, Q. Cui, A. G. Baboul, S. Clifford, 
 J. Cioslowski, B. B. Stefanov, G. Liu, A. Liashenko, P. Piskorz, 
 I. Komaromi, R. L. Martin, D. J. Fox, T. Keith, M. A. Al-Laham, 
 C. Y. Peng, A. Nanayakkara, M. Challacombe, P. M. W. Gill, 
 B. Johnson, W. Chen, M. W. Wong, C. Gonzalez, and J. A. Pople, 
 Gaussian, Inc., Pittsburgh PA, 2003.
 
 ***************************************************
 Gaussian 03:  Sun64-SVR4-Unix-G03RevB.04 2-Jun-2003
                     31-Aug-2006 
 ***************************************************
 ------------------------------
 #P B3LYP/6-311+G(d,p) OPT FREQ
 ------------------------------
 1/14=-1,18=20,26=3,38=1/1,3;
 2/9=110,17=6,18=5,40=1/2;
 3/5=4,6=6,7=111,11=2,16=1,25=1,30=1,74=-5/1,2,3;
 4//1;
 5/5=2,38=5/2;
 6/7=2,8=2,9=2,10=2,28=1/1;
 7//1,2,3,16;
 1/14=-1,18=20/3(1);
 99//99;
 2/9=110/2;
 3/5=4,6=6,7=111,11=2,16=1,25=1,30=1,74=-5/1,2,3;
 4/5=5,16=3/1;
 5/5=2,38=5/2;
 7//1,2,3,16;
 1/14=-1,18=20/3(-5);
 2/9=110/2;
 6/7=2,8=2,9=2,10=2,19=2,28=1/1;
 99/9=1/99;
 Leave Link    1 at Thu Aug 31 12:24:26 2006, MaxMem=          0 cpu:       0.2
 (Enter /usr/local/Gaussian/g03/l101.exe)
 ----------------------
 phenol/cl comlex basis
 ----------------------
 Symbolic Z-matrix:
 Charge =  0 Multiplicity = 2
 C
 C                    1    B1
 C                    1    B2       2    A1
 C                    1    B3       2    A2       3    D1       0
 C                    1    B4       2    A3       3    D2       0
 C                    1    B5       2    A4       3    D3       0
 H                    1    B6       2    A5       3    D4       0
 H                    1    B7       2    A6       3    D5       0
 H                    1    B8       2    A7       3    D6       0
 H                    1    B9       2    A8       3    D7       0
 O                    1    B10      2    A9       3    D8       0
 H                    1    B11      2    A10      3    D9       0
 Cl                   1    B12      2    A11      3    D10      0
 H                    1    B13      2    A12      3    D11      0
       Variables:
  A10                 146.32574                  
  A11                  55.85348                  
  A12                 114.46404                  
  B1                    1.40986                  
  B2                    2.43209                  
  B3                    2.79852                  
  B4                    2.40383                  
  B5                    1.37732                  
  B6                    1.08241                  
  B7                    2.16234                  
  B8                    3.41077                  
  B10                   3.65087                  
  B9                    3.88033                  
  B11                   2.14326                  
  B12                   3.07961                  
  B13                   3.81486                  
  D10                 105.43613                  
  D11                   2.48351                  
  D1                    0.90971                  
  D2                    1.56008                  
  D3                    1.96123                  
  A1                   30.46661                  
  D4                 -179.11364                  
  A2                   59.87384                  
  D5                 -169.50831                  
  A3                   89.98878                  
  A4                  120.46755                  
  D6                   -0.66046                  
  D7                    0.93425                  
  A5                  119.39457                  
  D8                    1.77279                  
  A6                   25.63099                  
  D9                    2.8642                   
  A7                   21.25749                  
  A8                   60.49466                  
  A9                   99.86785                  
 
                    Isotopes and Nuclear Properties:

  Atom         1           2           3           4           5           6           7           8           9          10
 IAtWgt=          12          12          12          12          12          12           1           1           1           1
 AtmWgt=  12.0000000  12.0000000  12.0000000  12.0000000  12.0000000  12.0000000   1.0078250   1.0078250   1.0078250   1.0078250
 IAtSpn=           0           0           0           0           0           0           1           1           1           1
 AtZEff=   0.0000000   0.0000000   0.0000000   0.0000000   0.0000000   0.0000000   0.0000000   0.0000000   0.0000000   0.0000000
 AtQMom=   0.0000000   0.0000000   0.0000000   0.0000000   0.0000000   0.0000000   0.0000000   0.0000000   0.0000000   0.0000000
 AtGFac=   0.0000000   0.0000000   0.0000000   0.0000000   0.0000000   0.0000000   2.7928460   2.7928460   2.7928460   2.7928460

  Atom        11          12          13          14
 IAtWgt=          16           1          35           1
 AtmWgt=  15.9949146   1.0078250  34.9688527   1.0078250
 IAtSpn=           0           1           3           1
 AtZEff=   0.0000000   0.0000000   0.0000000   0.0000000
 AtQMom=   0.0000000   0.0000000  -8.2490000   0.0000000
 AtGFac=   0.0000000   2.7928460   0.8218740   2.7928460
 Leave Link  101 at Thu Aug 31 12:24:27 2006, MaxMem=    6291456 cpu:       0.2
 (Enter /usr/local/Gaussian/g03/l103.exe)

 GradGradGradGradGradGradGradGradGradGradGradGradGradGradGradGradGradGrad
 Berny optimization.
 Initialization pass.
                           ----------------------------
                           !    Initial Parameters    !
                           ! (Angstroms and Degrees)  !
 --------------------------                            --------------------------
 ! Name  Definition              Value          Derivative Info.                !
 --------------------------------------------------------------------------------
 ! R1    R(1,2)                  1.4099         estimate D2E/DX2                !
 ! R2    R(1,6)                  1.3773         estimate D2E/DX2                !
 ! R3    R(1,7)                  1.0824         estimate D2E/DX2                !
 ! R4    R(1,13)                 3.0796         estimate D2E/DX2                !
 ! R5    R(2,3)                  1.4113         estimate D2E/DX2                !
 ! R6    R(2,8)                  1.0799         estimate D2E/DX2                !
 ! R7    R(2,13)                 2.5686         estimate D2E/DX2                !
 ! R8    R(3,4)                  1.3744         estimate D2E/DX2                !
 ! R9    R(3,9)                  1.0825         estimate D2E/DX2                !
 ! R10   R(3,13)                 3.1345         estimate D2E/DX2                !
 ! R11   R(4,5)                  1.4045         estimate D2E/DX2                !
 ! R12   R(4,10)                 1.0824         estimate D2E/DX2                !
 ! R13   R(5,6)                  1.4032         estimate D2E/DX2                !
 ! R14   R(5,11)                 1.3474         estimate D2E/DX2                !
 ! R15   R(6,12)                 1.0854         estimate D2E/DX2                !
 ! R16   R(8,13)                 2.6474         estimate D2E/DX2                !
 ! R17   R(11,14)                0.9632         estimate D2E/DX2                !
 ! A1    A(2,1,6)              120.4676         estimate D2E/DX2                !
 ! A2    A(2,1,7)              119.3946         estimate D2E/DX2                !
 ! A3    A(6,1,7)              120.1291         estimate D2E/DX2                !
 ! A4    A(6,1,13)             116.7971         estimate D2E/DX2                !
 ! A5    A(7,1,13)              95.4144         estimate D2E/DX2                !
 ! A6    A(1,2,3)              119.1018         estimate D2E/DX2                !
 ! A7    A(1,2,8)              119.9847         estimate D2E/DX2                !
 ! A8    A(3,2,8)              120.0722         estimate D2E/DX2                !
 ! A9    A(2,3,4)              120.6559         estimate D2E/DX2                !
 ! A10   A(2,3,9)              119.2774         estimate D2E/DX2                !
 ! A11   A(4,3,9)              120.0591         estimate D2E/DX2                !
 ! A12   A(4,3,13)             116.4724         estimate D2E/DX2                !
 ! A13   A(9,3,13)              97.4409         estimate D2E/DX2                !
 ! A14   A(3,4,5)              119.5413         estimate D2E/DX2                !
 ! A15   A(3,4,10)             121.8783         estimate D2E/DX2                !
 ! A16   A(5,4,10)             118.5792         estimate D2E/DX2                !
 ! A17   A(4,5,6)              120.5464         estimate D2E/DX2                !
 ! A18   A(4,5,11)             117.024          estimate D2E/DX2                !
 ! A19   A(6,5,11)             122.4293         estimate D2E/DX2                !
 ! A20   A(1,6,5)              119.6567         estimate D2E/DX2                !
 ! A21   A(1,6,12)             120.5199         estimate D2E/DX2                !
 ! A22   A(5,6,12)             119.8224         estimate D2E/DX2                !
 ! A23   A(5,11,14)            110.239          estimate D2E/DX2                !
 ! A24   A(1,13,3)              46.0708         estimate D2E/DX2                !
 ! A25   A(1,13,8)              43.5555         estimate D2E/DX2                !
 ! A26   A(3,13,8)              42.9479         estimate D2E/DX2                !
 ! D1    D(6,1,2,3)              1.9612         estimate D2E/DX2                !
 ! D2    D(6,1,2,8)            171.4695         estimate D2E/DX2                !
 ! D3    D(7,1,2,3)           -179.1136         estimate D2E/DX2                !
 ! D4    D(7,1,2,8)             -9.6053         estimate D2E/DX2                !
 ! D5    D(2,1,6,5)             -0.7908         estimate D2E/DX2                !
 ! D6    D(2,1,6,12)           178.8523         estimate D2E/DX2                !
 ! D7    D(7,1,6,5)           -179.7081         estimate D2E/DX2                !
 ! D8    D(7,1,6,12)            -0.0649         estimate D2E/DX2                !
 ! D9    D(13,1,6,5)           -65.1669         estimate D2E/DX2                !
 ! D10   D(13,1,6,12)          114.4763         estimate D2E/DX2                !
 ! D11   D(6,1,13,3)            78.3367         estimate D2E/DX2                !
 ! D12   D(6,1,13,8)           140.8304         estimate D2E/DX2                !
 ! D13   D(7,1,13,3)          -153.8759         estimate D2E/DX2                !
 ! D14   D(7,1,13,8)           -91.3822         estimate D2E/DX2                !
 ! D15   D(1,2,3,4)             -1.8627         estimate D2E/DX2                !
 ! D16   D(1,2,3,9)            179.135          estimate D2E/DX2                !
 ! D17   D(8,2,3,4)           -171.3616         estimate D2E/DX2                !
 ! D18   D(8,2,3,9)              9.6361         estimate D2E/DX2                !
 ! D19   D(2,3,4,5)              0.591          estimate D2E/DX2                !
 ! D20   D(2,3,4,10)          -179.0095         estimate D2E/DX2                !
 ! D21   D(9,3,4,5)            179.5856         estimate D2E/DX2                !
 ! D22   D(9,3,4,10)            -0.015          estimate D2E/DX2                !
 ! D23   D(13,3,4,5)            62.4983         estimate D2E/DX2                !
 ! D24   D(13,3,4,10)         -117.1022         estimate D2E/DX2                !
 ! D25   D(4,3,13,1)           -77.351          estimate D2E/DX2                !
 ! D26   D(4,3,13,8)          -141.1195         estimate D2E/DX2                !
 ! D27   D(9,3,13,1)           153.6465         estimate D2E/DX2                !
 ! D28   D(9,3,13,8)            89.878          estimate D2E/DX2                !
 ! D29   D(3,4,5,6)              0.6105         estimate D2E/DX2                !
 ! D30   D(3,4,5,11)          -179.5912         estimate D2E/DX2                !
 ! D31   D(10,4,5,6)          -179.7758         estimate D2E/DX2                !
 ! D32   D(10,4,5,11)            0.0225         estimate D2E/DX2                !
 ! D33   D(4,5,6,1)             -0.5101         estimate D2E/DX2                !
 ! D34   D(4,5,6,12)           179.8442         estimate D2E/DX2                !
 ! D35   D(11,5,6,1)           179.7027         estimate D2E/DX2                !
 ! D36   D(11,5,6,12)            0.057          estimate D2E/DX2                !
 ! D37   D(4,5,11,14)          178.4759         estimate D2E/DX2                !
 ! D38   D(6,5,11,14)           -1.7299         estimate D2E/DX2                !
 --------------------------------------------------------------------------------
 Trust Radius=3.00D-01 FncErr=1.00D-07 GrdErr=1.00D-06
 Number of steps in this run=  91 maximum allowed number of steps= 100.
 GradGradGradGradGradGradGradGradGradGradGradGradGradGradGradGradGradGrad

 Leave Link  103 at Thu Aug 31 12:24:28 2006, MaxMem=    6291456 cpu:       0.0
 (Enter /usr/local/Gaussian/g03/l202.exe)
                          Input orientation:                          
 ---------------------------------------------------------------------
 Center     Atomic     Atomic              Coordinates (Angstroms)
 Number     Number      Type              X           Y           Z
 ---------------------------------------------------------------------
    1          6             0        0.000000    0.000000    0.000000
    2          6             0        0.000000    0.000000    1.409858
    3          6             0        1.233155    0.000000    2.096274
    4          6             0        2.420200   -0.038430    1.404594
    5          6             0        2.402937   -0.065445    0.000471
    6          6             0        1.186443   -0.040628   -0.698373
    7          1             0       -0.942945    0.014588   -0.531268
    8          1             0       -0.919731    0.170324    1.949560
    9          1             0        1.236525    0.014254    3.178700
   10          1             0        3.376643   -0.055064    1.911082
   11          8             0        3.595131   -0.111272   -0.625672
   12          1             0        1.186889   -0.059382   -1.783627
   13         17             0       -0.678373   -2.456764    1.728620
   14          1             0        3.469102   -0.150464   -1.579816
 ---------------------------------------------------------------------
                    Distance matrix (angstroms):
                    1          2          3          4          5
     1  C    0.000000
     2  C    1.409858   0.000000
     3  C    2.432085   1.411325   0.000000
     4  C    2.798522   2.420510   1.374399   0.000000
     5  C    2.403828   2.786532   2.401055   1.404489   0.000000
     6  C    1.377325   2.419491   2.795333   2.438161   1.403159
     7  H    1.082406   2.158084   3.411686   3.880865   3.388817
     8  H    2.162337   1.079905   2.164591   3.390532   3.859361
     9  H    3.410767   2.158240   1.082525   2.133381   3.386445
    10  H    3.880333   3.414084   2.152177   1.082400   2.144445
    11  O    3.650865   4.132884   3.605594   2.346860   1.347398
    12  H    2.143259   3.407430   3.880632   3.418515   2.159124
    13  Cl   3.079612   2.568558   3.134454   3.943917   4.266073
    14  H    3.814856   4.582080   4.305315   3.165352   1.908203
                    6          7          8          9         10
     6  C    0.000000
     7  H    2.136648   0.000000
     8  H    3.389988   2.485820   0.000000
     9  H    3.877785   4.302784   2.486882   0.000000
    10  H    3.406822   4.962737   4.302454   2.488326   0.000000
    11  O    2.410820   4.540802   5.205296   4.477949   2.546766
    12  H    1.085416   2.471855   4.292703   4.963121   4.294870
    13  Cl   3.899430   3.359267   2.647388   3.446084   4.716419
    14  H    2.449395   4.537934   5.641033   5.258802   3.493425
                   11         12         13         14
    11  O    0.000000
    12  H    2.672673   0.000000
    13  Cl   5.413581   4.643547   0.000000
    14  H    0.963229   2.293104   5.785008   0.000000
 Stoichiometry    C6H6ClO(2)
 Framework group  C1[X(C6H6ClO)]
 Deg. of freedom    36
 Full point group                 C1      NOp   1
 Largest Abelian subgroup         C1      NOp   1
 Largest concise Abelian subgroup C1      NOp   1
                         Standard orientation:                         
 ---------------------------------------------------------------------
 Center     Atomic     Atomic              Coordinates (Angstroms)
 Number     Number      Type              X           Y           Z
 ---------------------------------------------------------------------
    1          6             0        0.153691   -1.131744    0.879047
    2          6             0        0.780733    0.110629    1.104937
    3          6             0        0.125363    1.293693    0.701589
    4          6             0       -1.090018    1.238433    0.062239
    5          6             0       -1.689123   -0.008610   -0.179725
    6          6             0       -1.063227   -1.193316    0.236908
    7          1             0        0.645536   -2.041139    1.199504
    8          1             0        1.661988    0.165257    1.726709
    9          1             0        0.597853    2.249971    0.886372
   10          1             0       -1.602496    2.132197   -0.269638
   11          8             0       -2.876098   -0.004150   -0.817339
   12          1             0       -1.537959   -2.150569    0.046056
   13         17             0        2.536724   -0.074743   -0.760438
   14          1             0       -3.184958   -0.906402   -0.952828
 ---------------------------------------------------------------------
 Rotational constants (GHZ):      3.1899995      0.9838083      0.9418422
 Leave Link  202 at Thu Aug 31 12:24:29 2006, MaxMem=    6291456 cpu:       0.5
 (Enter /usr/local/Gaussian/g03/l301.exe)
 Standard basis: 6-311+G(d,p) (5D, 7F)
 There are   220 symmetry adapted basis functions of A   symmetry.
 Integral buffers will be    131072 words long.
 Raffenetti 2 integral format.
 Two-electron integral symmetry is turned on.
   220 basis functions,   353 primitive gaussians,   228 cartesian basis functions
    34 alpha electrons       33 beta electrons
       nuclear repulsion energy       394.8949018052 Hartrees.
 IExCor= 402 DFT=T Ex=B+HF Corr=LYP ExCW=0 ScaHFX=  0.200000
 ScaDFX=  0.800000  0.720000  1.000000  0.810000
 IRadAn=      0 IRanWt=     -1 IRanGd=            0 ICorTp=0
 NAtoms=   14 NActive=   14 NUniq=   14 SFac= 1.00D+00 NAtFMM=   60 Big=F
 Leave Link  301 at Thu Aug 31 12:24:31 2006, MaxMem=    6291456 cpu:       0.1
 (Enter /usr/local/Gaussian/g03/l302.exe)
 NPDir=0 NMtPBC=     1 NCelOv=     1 NCel=       1 NClECP=     1 NCelD=      1
         NCelK=      1 NCelE2=     1 NClLst=     1 CellRange=     0.0.
 One-electron integrals computed using PRISM.
 NBasis=   220 RedAO= T  NBF=   220
 NBsUse=   220 1.00D-06 NBFU=   220
 Precomputing XC quadrature grid using
 IXCGrd= 2 IRadAn=           0 IRanWt=          -1 IRanGd=           0.
 NRdTot=     897 NPtTot=      113716 NUsed=      120052 NTot=      120084
 NSgBfM=   227   227   227   227.
 Leave Link  302 at Thu Aug 31 12:24:40 2006, MaxMem=    6291456 cpu:       2.8
 (Enter /usr/local/Gaussian/g03/l303.exe)
 DipDrv:  MaxL=1.
 Leave Link  303 at Thu Aug 31 12:24:42 2006, MaxMem=    6291456 cpu:       0.2
 (Enter /usr/local/Gaussian/g03/l401.exe)
 Harris functional with IExCor=  402 diagonalized for initial guess.
 ExpMin= 4.38D-02 ExpMax= 1.06D+05 ExpMxC= 3.62D+03 IAcc=2 IRadAn=         4 AccDes= 0.00D+00
 HarFok:  IExCor= 402 AccDes= 0.00D+00 IRadAn=         4 IDoV=1
 ScaDFX=  1.000000  1.000000  1.000000  1.000000
 Harris En= -767.835651721323    
 Initial guess orbital symmetries:
 Alpha Orbitals:
       Occupied  (A) (A) (A) (A) (A) (A) (A) (A) (A) (A) (A) (A)
                 (A) (A) (A) (A) (A) (A) (A) (A) (A) (A) (A) (A)
                 (A) (A) (A) (A) (A) (A) (A) (A) (A) (A)
       Virtual   (A) (A) (A) (A) (A) (A) (A) (A) (A) (A) (A) (A)
                 (A) (A) (A) (A) (A) (A) (A) (A) (A) (A) (A) (A)
                 (A) (A) (A) (A) (A) (A) (A) (A) (A) (A) (A) (A)
                 (A) (A) (A) (A) (A) (A) (A) (A) (A) (A) (A) (A)
                 (A) (A) (A) (A) (A) (A) (A) (A) (A) (A) (A) (A)
                 (A) (A) (A) (A) (A) (A) (A) (A) (A) (A) (A) (A)
                 (A) (A) (A) (A) (A) (A) (A) (A) (A) (A) (A) (A)
                 (A) (A) (A) (A) (A) (A) (A) (A) (A) (A) (A) (A)
                 (A) (A) (A) (A) (A) (A) (A) (A) (A) (A) (A) (A)
                 (A) (A) (A) (A) (A) (A) (A) (A) (A) (A) (A) (A)
                 (A) (A) (A) (A) (A) (A) (A) (A) (A) (A) (A) (A)
                 (A) (A) (A) (A) (A) (A) (A) (A) (A) (A) (A) (A)
                 (A) (A) (A) (A) (A) (A) (A) (A) (A) (A) (A) (A)
                 (A) (A) (A) (A) (A) (A) (A) (A) (A) (A) (A) (A)
                 (A) (A) (A) (A) (A) (A) (A) (A) (A) (A) (A) (A)
                 (A) (A) (A) (A) (A) (A)
 Beta  Orbitals:
       Occupied  (A) (A) (A) (A) (A) (A) (A) (A) (A) (A) (A) (A)
                 (A) (A) (A) (A) (A) (A) (A) (A) (A) (A) (A) (A)
                 (A) (A) (A) (A) (A) (A) (A) (A) (A)
       Virtual   (A) (A) (A) (A) (A) (A) (A) (A) (A) (A) (A) (A)
                 (A) (A) (A) (A) (A) (A) (A) (A) (A) (A) (A) (A)
                 (A) (A) (A) (A) (A) (A) (A) (A) (A) (A) (A) (A)
                 (A) (A) (A) (A) (A) (A) (A) (A) (A) (A) (A) (A)
                 (A) (A) (A) (A) (A) (A) (A) (A) (A) (A) (A) (A)
                 (A) (A) (A) (A) (A) (A) (A) (A) (A) (A) (A) (A)
                 (A) (A) (A) (A) (A) (A) (A) (A) (A) (A) (A) (A)
                 (A) (A) (A) (A) (A) (A) (A) (A) (A) (A) (A) (A)
                 (A) (A) (A) (A) (A) (A) (A) (A) (A) (A) (A) (A)
                 (A) (A) (A) (A) (A) (A) (A) (A) (A) (A) (A) (A)
                 (A) (A) (A) (A) (A) (A) (A) (A) (A) (A) (A) (A)
                 (A) (A) (A) (A) (A) (A) (A) (A) (A) (A) (A) (A)
                 (A) (A) (A) (A) (A) (A) (A) (A) (A) (A) (A) (A)
                 (A) (A) (A) (A) (A) (A) (A) (A) (A) (A) (A) (A)
                 (A) (A) (A) (A) (A) (A) (A) (A) (A) (A) (A) (A)
                 (A) (A) (A) (A) (A) (A) (A)
 The electronic state of the initial guess is 2-A.
 <S**2> of initial guess= 0.7500
 Leave Link  401 at Thu Aug 31 12:26:18 2006, MaxMem=    6291456 cpu:      30.6
 (Enter /usr/local/Gaussian/g03/l502.exe)
 UHF open shell SCF:
 Requested convergence on RMS density matrix=1.00D-08 within 128 cycles.
 Requested convergence on MAX density matrix=1.00D-06.
 Requested convergence on             energy=1.00D-06.
 No special actions if energy rises.
 Using DIIS extrapolation, IDIIS=  1040.
 Integral symmetry usage will be decided dynamically.
       120051 words used for storage of precomputed grid.
 IEnd=    321824 IEndB=    321824 NGot=   6291456 MDV=   6038485
 LenX=   6038485
 Fock matrices will be formed incrementally for  20 cycles.

 Cycle   1  Pass 1  IDiag  1:
 Petite list used in FoFDir.
 MinBra= 0 MaxBra= 2 Meth= 1.
 IRaf=       0 NMat=   1 IRICut=       1 DoRegI=T DoRafI=F ISym2E= 1 JSym2E=1.
 E= -767.525533836423    
 DIIS: error= 2.65D-02 at cycle   1 NSaved=   1.
 NSaved= 1 IEnMin= 1 EnMin= -767.525533836423     IErMin= 1 ErrMin= 2.65D-02
 ErrMax= 2.65D-02 EMaxC= 1.00D-01 BMatC= 9.59D-01 BMatP= 9.59D-01
 IDIUse=3 WtCom= 7.35D-01 WtEn= 2.65D-01
 Coeff-Com:  0.100D+01
 Coeff-En:   0.100D+01
 Coeff:      0.100D+01
 Gap=     0.254 Goal=   None    Shift=    0.000
 Gap=     0.124 Goal=   None    Shift=    0.000
 GapD=    0.124 DampG=1.000 DampE=0.500 DampFc=0.5000 IDamp=-1.
 Damping current iteration by 5.00D-01
 RMSDP=1.05D-02 MaxDP=4.75D-01              OVMax= 2.15D-01

 Cycle   2  Pass 1  IDiag  1:
 RMSU=  5.27D-03    CP:  9.95D-01
 E= -767.616757026140     Delta-E=       -0.091223189717 Rises=F Damp=T
 DIIS: error= 6.07D-03 at cycle   2 NSaved=   2.
 NSaved= 2 IEnMin= 2 EnMin= -767.616757026140     IErMin= 2 ErrMin= 6.07D-03
 ErrMax= 6.07D-03 EMaxC= 1.00D-01 BMatC= 5.35D-02 BMatP= 9.59D-01
 IDIUse=3 WtCom= 9.39D-01 WtEn= 6.07D-02
 Coeff-Com:  0.526D-01 0.947D+00
 Coeff-En:   0.159D+00 0.841D+00
 Coeff:      0.591D-01 0.941D+00
 Gap=     0.230 Goal=   None    Shift=    0.000
 Gap=     0.119 Goal=   None    Shift=    0.000
 RMSDP=5.96D-03 MaxDP=5.75D-01 DE=-9.12D-02 OVMax= 2.67D-01

 Cycle   3  Pass 1  IDiag  1:
 RMSU=  5.30D-03    CP:  9.94D-01  4.82D-01
 E= -767.728890872106     Delta-E=       -0.112133845967 Rises=F Damp=F
 DIIS: error= 7.64D-03 at cycle   3 NSaved=   3.
 NSaved= 3 IEnMin= 3 EnMin= -767.728890872106     IErMin= 2 ErrMin= 6.07D-03
 ErrMax= 7.64D-03 EMaxC= 1.00D-01 BMatC= 6.00D-02 BMatP= 5.35D-02
 IDIUse=3 WtCom= 1.03D-01 WtEn= 8.97D-01
 Coeff-Com: -0.314D-01 0.520D+00 0.511D+00
 Coeff-En:   0.000D+00 0.000D+00 0.100D+01
 Coeff:     -0.322D-02 0.534D-01 0.950D+00
 Gap=     0.239 Goal=   None    Shift=    0.000
 Gap=     0.121 Goal=   None    Shift=    0.000
 RMSDP=5.76D-03 MaxDP=6.10D-01 DE=-1.12D-01 OVMax= 2.72D-01

 Cycle   4  Pass 1  IDiag  1:
 RMSU=  2.43D-03    CP:  9.83D-01  8.88D-01  1.05D-01
 E= -767.689921034013     Delta-E=        0.038969838093 Rises=F Damp=F
 DIIS: error= 1.39D-02 at cycle   4 NSaved=   4.
 NSaved= 4 IEnMin= 3 EnMin= -767.728890872106     IErMin= 2 ErrMin= 6.07D-03
 ErrMax= 1.39D-02 EMaxC= 1.00D-01 BMatC= 1.89D-01 BMatP= 5.35D-02
 IDIUse=2 WtCom= 0.00D+00 WtEn= 1.00D+00
 Coeff-En:   0.000D+00 0.000D+00 0.716D+00 0.284D+00
 Coeff:      0.000D+00 0.000D+00 0.716D+00 0.284D+00
 Gap=     0.206 Goal=   None    Shift=    0.000
 Gap=     0.106 Goal=   None    Shift=    0.000
 RMSDP=2.29D-03 MaxDP=1.17D-01 DE= 3.90D-02 OVMax= 1.20D-01

 Cycle   5  Pass 1  IDiag  1:
 RMSU=  8.41D-04    CP:  9.66D-01  7.13D-01  4.22D-01  6.97D-01
 E= -767.743926098060     Delta-E=       -0.054005064047 Rises=F Damp=F
 DIIS: error= 2.89D-03 at cycle   5 NSaved=   5.
 NSaved= 5 IEnMin= 5 EnMin= -767.743926098060     IErMin= 5 ErrMin= 2.89D-03
 ErrMax= 2.89D-03 EMaxC= 1.00D-01 BMatC= 8.76D-03 BMatP= 5.35D-02
 IDIUse=3 WtCom= 9.71D-01 WtEn= 2.89D-02
 Coeff-Com:  0.776D-02-0.177D-01 0.224D+00-0.396D-01 0.826D+00
 Coeff-En:   0.000D+00 0.000D+00 0.152D+00 0.000D+00 0.848D+00
 Coeff:      0.753D-02-0.172D-01 0.222D+00-0.385D-01 0.827D+00
 Gap=     0.199 Goal=   None    Shift=    0.000
 Gap=     0.098 Goal=   None    Shift=    0.000
 RMSDP=8.03D-04 MaxDP=7.40D-02 DE=-5.40D-02 OVMax= 4.17D-02

 Cycle   6  Pass 1  IDiag  1:
 RMSU=  1.81D-04    CP:  9.68D-01  6.51D-01  5.43D-01  5.75D-01  9.74D-01
 E= -767.746474167519     Delta-E=       -0.002548069459 Rises=F Damp=F
 DIIS: error= 3.95D-04 at cycle   6 NSaved=   6.
 NSaved= 6 IEnMin= 6 EnMin= -767.746474167519     IErMin= 6 ErrMin= 3.95D-04
 ErrMax= 3.95D-04 EMaxC= 1.00D-01 BMatC= 1.01D-04 BMatP= 8.76D-03
 IDIUse=3 WtCom= 9.96D-01 WtEn= 3.95D-03
 Coeff-Com:  0.377D-02-0.137D-01 0.738D-01-0.412D-01 0.434D+00 0.544D+00
 Coeff-En:   0.000D+00 0.000D+00 0.000D+00 0.000D+00 0.000D+00 0.100D+01
 Coeff:      0.376D-02-0.137D-01 0.735D-01-0.410D-01 0.432D+00 0.546D+00
 Gap=     0.199 Goal=   None    Shift=    0.000
 Gap=     0.097 Goal=   None    Shift=    0.000
 RMSDP=6.94D-05 MaxDP=2.73D-03 DE=-2.55D-03 OVMax= 1.66D-03

 Cycle   7  Pass 1  IDiag  1:
 RMSU=  6.10D-05    CP:  9.69D-01  6.52D-01  5.42D-01  5.87D-01  9.72D-01
                    CP:  1.03D+00
 E= -767.746499273520     Delta-E=       -0.000025106001 Rises=F Damp=F
 DIIS: error= 1.05D-04 at cycle   7 NSaved=   7.
 NSaved= 7 IEnMin= 7 EnMin= -767.746499273520     IErMin= 7 ErrMin= 1.05D-04
 ErrMax= 1.05D-04 EMaxC= 1.00D-01 BMatC= 9.90D-06 BMatP= 1.01D-04
 IDIUse=3 WtCom= 9.99D-01 WtEn= 1.05D-03
 Coeff-Com:  0.615D-03-0.298D-02-0.874D-02-0.871D-02 0.327D-01 0.219D+00
 Coeff-Com:  0.768D+00
 Coeff-En:   0.000D+00 0.000D+00 0.000D+00 0.000D+00 0.000D+00 0.000D+00
 Coeff-En:   0.100D+01
 Coeff:      0.614D-03-0.298D-02-0.873D-02-0.870D-02 0.327D-01 0.219D+00
 Coeff:      0.768D+00
 Gap=     0.199 Goal=   None    Shift=    0.000
 Gap=     0.098 Goal=   None    Shift=    0.000
 RMSDP=5.91D-05 MaxDP=4.31D-03 DE=-2.51D-05 OVMax= 1.36D-03

 Cycle   8  Pass 1  IDiag  1:
 RMSU=  3.18D-05    CP:  9.68D-01  6.55D-01  5.35D-01  5.96D-01  9.92D-01
                    CP:  1.08D+00  1.08D+00
 E= -767.746503602376     Delta-E=       -0.000004328856 Rises=F Damp=F
 DIIS: error= 8.93D-05 at cycle   8 NSaved=   8.
 NSaved= 8 IEnMin= 8 EnMin= -767.746503602376     IErMin= 8 ErrMin= 8.93D-05
 ErrMax= 8.93D-05 EMaxC= 1.00D-01 BMatC= 3.92D-06 BMatP= 9.90D-06
 IDIUse=1 WtCom= 1.00D+00 WtEn= 0.00D+00
 Coeff-Com: -0.482D-03 0.101D-02-0.221D-01 0.600D-02-0.825D-01 0.484D-02
 Coeff-Com:  0.422D+00 0.671D+00
 Coeff:     -0.482D-03 0.101D-02-0.221D-01 0.600D-02-0.825D-01 0.484D-02
 Coeff:      0.422D+00 0.671D+00
 Gap=     0.199 Goal=   None    Shift=    0.000
 Gap=     0.098 Goal=   None    Shift=    0.000
 RMSDP=2.39D-05 MaxDP=1.39D-03 DE=-4.33D-06 OVMax= 8.50D-04

 Cycle   9  Pass 1  IDiag  1:
 RMSU=  1.43D-05    CP:  9.69D-01  6.56D-01  5.35D-01  5.99D-01  9.89D-01
                    CP:  1.13D+00  1.25D+00  1.01D+00
 E= -767.746505417763     Delta-E=       -0.000001815386 Rises=F Damp=F
 DIIS: error= 3.60D-05 at cycle   9 NSaved=   9.
 NSaved= 9 IEnMin= 9 EnMin= -767.746505417763     IErMin= 9 ErrMin= 3.60D-05
 ErrMax= 3.60D-05 EMaxC= 1.00D-01 BMatC= 8.89D-07 BMatP= 3.92D-06
 IDIUse=1 WtCom= 1.00D+00 WtEn= 0.00D+00
 Coeff-Com: -0.455D-03 0.134D-02-0.849D-02 0.699D-02-0.544D-01-0.646D-01
 Coeff-Com: -0.385D-01 0.330D+00 0.828D+00
 Coeff:     -0.455D-03 0.134D-02-0.849D-02 0.699D-02-0.544D-01-0.646D-01
 Coeff:     -0.385D-01 0.330D+00 0.828D+00
 Gap=     0.200 Goal=   None    Shift=    0.000
 Gap=     0.098 Goal=   None    Shift=    0.000
 RMSDP=1.67D-05 MaxDP=1.09D-03 DE=-1.82D-06 OVMax= 6.06D-04

 Cycle  10  Pass 1  IDiag  1:
 RMSU=  6.93D-06    CP:  9.69D-01  6.57D-01  5.35D-01  6.01D-01  9.84D-01
                    CP:  1.19D+00  1.31D+00  1.15D+00  1.25D+00
 E= -767.746506117800     Delta-E=       -0.000000700037 Rises=F Damp=F
 DIIS: error= 1.88D-05 at cycle  10 NSaved=  10.
 NSaved=10 IEnMin=10 EnMin= -767.746506117800     IErMin=10 ErrMin= 1.88D-05
 ErrMax= 1.88D-05 EMaxC= 1.00D-01 BMatC= 1.19D-07 BMatP= 8.89D-07
 IDIUse=1 WtCom= 1.00D+00 WtEn= 0.00D+00
 Coeff-Com: -0.171D-04 0.507D-04 0.390D-02-0.117D-03 0.933D-02-0.154D-01
 Coeff-Com: -0.119D+00-0.952D-01 0.196D+00 0.102D+01
 Coeff:     -0.171D-04 0.507D-04 0.390D-02-0.117D-03 0.933D-02-0.154D-01
 Coeff:     -0.119D+00-0.952D-01 0.196D+00 0.102D+01
 Gap=     0.200 Goal=   None    Shift=    0.000
 Gap=     0.098 Goal=   None    Shift=    0.000
 RMSDP=7.96D-06 MaxDP=5.32D-04 DE=-7.00D-07 OVMax= 3.76D-04

 Cycle  11  Pass 1  IDiag  1:
 RMSU=  3.77D-06    CP:  9.69D-01  6.57D-01  5.34D-01  6.02D-01  9.87D-01
                    CP:  1.17D+00  1.32D+00  1.25D+00  1.43D+00  1.09D+00
 E= -767.746506265769     Delta-E=       -0.000000147969 Rises=F Damp=F
 DIIS: error= 6.95D-06 at cycle  11 NSaved=  11.
 NSaved=11 IEnMin=11 EnMin= -767.746506265769     IErMin=11 ErrMin= 6.95D-06
 ErrMax= 6.95D-06 EMaxC= 1.00D-01 BMatC= 7.45D-08 BMatP= 1.19D-07
 IDIUse=1 WtCom= 1.00D+00 WtEn= 0.00D+00
 Coeff-Com:  0.116D-03-0.245D-03 0.423D-02-0.206D-02 0.187D-01 0.685D-02
 Coeff-Com: -0.484D-01-0.121D+00-0.825D-01 0.537D+00 0.687D+00
 Coeff:      0.116D-03-0.245D-03 0.423D-02-0.206D-02 0.187D-01 0.685D-02
 Coeff:     -0.484D-01-0.121D+00-0.825D-01 0.537D+00 0.687D+00
 Gap=     0.200 Goal=   None    Shift=    0.000
 Gap=     0.098 Goal=   None    Shift=    0.000
 RMSDP=3.76D-06 MaxDP=2.76D-04 DE=-1.48D-07 OVMax= 1.55D-04

 Cycle  12  Pass 1  IDiag  1:
 RMSU=  1.58D-06    CP:  9.69D-01  6.57D-01  5.35D-01  6.02D-01  9.87D-01
                    CP:  1.17D+00  1.31D+00  1.26D+00  1.48D+00  1.24D+00
                    CP:  1.23D+00
 E= -767.746506298674     Delta-E=       -0.000000032906 Rises=F Damp=F
 DIIS: error= 7.93D-06 at cycle  12 NSaved=  12.
 NSaved=12 IEnMin=12 EnMin= -767.746506298674     IErMin=11 ErrMin= 6.95D-06
 ErrMax= 7.93D-06 EMaxC= 1.00D-01 BMatC= 2.44D-08 BMatP= 7.45D-08
 IDIUse=1 WtCom= 1.00D+00 WtEn= 0.00D+00
 Coeff-Com:  0.817D-04-0.190D-03 0.219D-02-0.142D-02 0.108D-01 0.599D-02
 Coeff-Com: -0.100D-01-0.651D-01-0.101D+00 0.127D+00 0.432D+00 0.600D+00
 Coeff:      0.817D-04-0.190D-03 0.219D-02-0.142D-02 0.108D-01 0.599D-02
 Coeff:     -0.100D-01-0.651D-01-0.101D+00 0.127D+00 0.432D+00 0.600D+00
 Gap=     0.200 Goal=   None    Shift=    0.000
 Gap=     0.098 Goal=   None    Shift=    0.000
 RMSDP=1.96D-06 MaxDP=9.06D-05 DE=-3.29D-08 OVMax= 1.25D-04

 Cycle  13  Pass 1  IDiag  1:
 RMSU=  1.04D-06    CP:  9.69D-01  6.57D-01  5.35D-01  6.02D-01  9.88D-01
                    CP:  1.17D+00  1.30D+00  1.25D+00  1.50D+00  1.33D+00
                    CP:  1.45D+00  9.47D-01
 E= -767.746506308262     Delta-E=       -0.000000009588 Rises=F Damp=F
 DIIS: error= 1.92D-06 at cycle  13 NSaved=  13.
 NSaved=13 IEnMin=13 EnMin= -767.746506308262     IErMin=13 ErrMin= 1.92D-06
 ErrMax= 1.92D-06 EMaxC= 1.00D-01 BMatC= 4.86D-09 BMatP= 2.44D-08
 IDIUse=1 WtCom= 1.00D+00 WtEn= 0.00D+00
 Coeff-Com:  0.284D-04-0.568D-04 0.396D-03-0.392D-03 0.225D-02 0.172D-02
 Coeff-Com:  0.571D-02-0.812D-02-0.367D-01-0.394D-01 0.592D-01 0.349D+00
 Coeff-Com:  0.666D+00
 Coeff:      0.284D-04-0.568D-04 0.396D-03-0.392D-03 0.225D-02 0.172D-02
 Coeff:      0.571D-02-0.812D-02-0.367D-01-0.394D-01 0.592D-01 0.349D+00
 Coeff:      0.666D+00
 Gap=     0.200 Goal=   None    Shift=    0.000
 Gap=     0.098 Goal=   None    Shift=    0.000
 RMSDP=1.19D-06 MaxDP=1.13D-04 DE=-9.59D-09 OVMax= 3.53D-05

 Cycle  14  Pass 1  IDiag  1:
 RMSU=  3.06D-07    CP:  9.69D-01  6.57D-01  5.35D-01  6.02D-01  9.88D-01
                    CP:  1.16D+00  1.30D+00  1.24D+00  1.51D+00  1.35D+00
                    CP:  1.51D+00  1.07D+00  8.99D-01
 E= -767.746506309948     Delta-E=       -0.000000001686 Rises=F Damp=F
 DIIS: error= 1.14D-06 at cycle  14 NSaved=  14.
 NSaved=14 IEnMin=14 EnMin= -767.746506309948     IErMin=14 ErrMin= 1.14D-06
 ErrMax= 1.14D-06 EMaxC= 1.00D-01 BMatC= 8.00D-10 BMatP= 4.86D-09
 IDIUse=1 WtCom= 1.00D+00 WtEn= 0.00D+00
 Coeff-Com:  0.159D-05-0.430D-05-0.102D-03 0.247D-04-0.509D-03-0.373D-03
 Coeff-Com:  0.371D-02 0.564D-02-0.211D-02-0.400D-01-0.517D-01 0.103D+00
 Coeff-Com:  0.409D+00 0.573D+00
 Coeff:      0.159D-05-0.430D-05-0.102D-03 0.247D-04-0.509D-03-0.373D-03
 Coeff:      0.371D-02 0.564D-02-0.211D-02-0.400D-01-0.517D-01 0.103D+00
 Coeff:      0.409D+00 0.573D+00
 Gap=     0.200 Goal=   None    Shift=    0.000
 Gap=     0.098 Goal=   None    Shift=    0.000
 RMSDP=3.05D-07 MaxDP=1.39D-05 DE=-1.69D-09 OVMax= 1.74D-05

 Cycle  15  Pass 1  IDiag  1:
 RMSU=  1.51D-07    CP:  9.69D-01  6.57D-01  5.35D-01  6.02D-01  9.88D-01
                    CP:  1.16D+00  1.30D+00  1.25D+00  1.51D+00  1.35D+00
                    CP:  1.54D+00  1.11D+00  9.68D-01  9.20D-01
 E= -767.746506310225     Delta-E=       -0.000000000277 Rises=F Damp=F
 DIIS: error= 2.05D-07 at cycle  15 NSaved=  15.
 NSaved=15 IEnMin=15 EnMin= -767.746506310225     IErMin=15 ErrMin= 2.05D-07
 ErrMax= 2.05D-07 EMaxC= 1.00D-01 BMatC= 4.39D-11 BMatP= 8.00D-10
 IDIUse=1 WtCom= 1.00D+00 WtEn= 0.00D+00
 Coeff-Com: -0.442D-05 0.827D-05-0.867D-04 0.638D-04-0.481D-03-0.352D-03
 Coeff-Com:  0.603D-04 0.260D-02 0.517D-02-0.488D-02-0.240D-01-0.195D-01
 Coeff-Com:  0.689D-02 0.165D+00 0.870D+00
 Coeff:     -0.442D-05 0.827D-05-0.867D-04 0.638D-04-0.481D-03-0.352D-03
 Coeff:      0.603D-04 0.260D-02 0.517D-02-0.488D-02-0.240D-01-0.195D-01
 Coeff:      0.689D-02 0.165D+00 0.870D+00
 Gap=     0.200 Goal=   None    Shift=    0.000
 Gap=     0.098 Goal=   None    Shift=    0.000
 RMSDP=1.53D-07 MaxDP=9.01D-06 DE=-2.77D-10 OVMax= 7.12D-06

 Cycle  16  Pass 1  IDiag  1:
 RMSU=  5.69D-08    CP:  9.69D-01  6.57D-01  5.35D-01  6.02D-01  9.88D-01
                    CP:  1.16D+00  1.30D+00  1.25D+00  1.51D+00  1.36D+00
                    CP:  1.56D+00  1.12D+00  1.02D+00  1.02D+00  1.07D+00
 E= -767.746506310254     Delta-E=       -0.000000000029 Rises=F Damp=F
 DIIS: error= 1.13D-07 at cycle  16 NSaved=  16.
 NSaved=16 IEnMin=16 EnMin= -767.746506310254     IErMin=16 ErrMin= 1.13D-07
 ErrMax= 1.13D-07 EMaxC= 1.00D-01 BMatC= 1.42D-11 BMatP= 4.39D-11
 IDIUse=1 WtCom= 1.00D+00 WtEn= 0.00D+00
 Coeff-Com: -0.273D-05 0.544D-05-0.310D-04 0.279D-04-0.178D-03-0.120D-03
 Coeff-Com: -0.481D-03 0.483D-03 0.283D-02 0.316D-02-0.501D-02-0.209D-01
 Coeff-Com: -0.576D-01 0.304D-02 0.411D+00 0.663D+00
 Coeff:     -0.273D-05 0.544D-05-0.310D-04 0.279D-04-0.178D-03-0.120D-03
 Coeff:     -0.481D-03 0.483D-03 0.283D-02 0.316D-02-0.501D-02-0.209D-01
 Coeff:     -0.576D-01 0.304D-02 0.411D+00 0.663D+00
 Gap=     0.200 Goal=   None    Shift=    0.000
 Gap=     0.098 Goal=   None    Shift=    0.000
 RMSDP=5.73D-08 MaxDP=3.69D-06 DE=-2.91D-11 OVMax= 3.67D-06

 Cycle  17  Pass 1  IDiag  1:
 RMSU=  2.23D-08    CP:  9.69D-01  6.57D-01  5.35D-01  6.02D-01  9.88D-01
                    CP:  1.16D+00  1.30D+00  1.25D+00  1.51D+00  1.36D+00
                    CP:  1.56D+00  1.13D+00  1.03D+00  1.04D+00  1.19D+00
                    CP:  1.21D+00
 E= -767.746506310266     Delta-E=       -0.000000000012 Rises=F Damp=F
 DIIS: error= 6.05D-08 at cycle  17 NSaved=  17.
 NSaved=17 IEnMin=17 EnMin= -767.746506310266     IErMin=17 ErrMin= 6.05D-08
 ErrMax= 6.05D-08 EMaxC= 1.00D-01 BMatC= 4.42D-12 BMatP= 1.42D-11
 IDIUse=1 WtCom= 1.00D+00 WtEn= 0.00D+00
 Coeff-Com: -0.133D-07 0.258D-06 0.985D-05-0.498D-05 0.556D-04 0.616D-04
 Coeff-Com: -0.251D-03-0.540D-03-0.657D-04 0.314D-02 0.438D-02-0.524D-02
 Coeff-Com: -0.374D-01-0.506D-01-0.451D-01 0.395D+00 0.736D+00
 Coeff:     -0.133D-07 0.258D-06 0.985D-05-0.498D-05 0.556D-04 0.616D-04
 Coeff:     -0.251D-03-0.540D-03-0.657D-04 0.314D-02 0.438D-02-0.524D-02
 Coeff:     -0.374D-01-0.506D-01-0.451D-01 0.395D+00 0.736D+00
 Gap=     0.200 Goal=   None    Shift=    0.000
 Gap=     0.098 Goal=   None    Shift=    0.000
 RMSDP=4.54D-08 MaxDP=2.59D-06 DE=-1.21D-11 OVMax= 3.34D-06

 Cycle  18  Pass 1  IDiag  1:
 RMSU=  1.34D-08    CP:  9.69D-01  6.57D-01  5.35D-01  6.02D-01  9.88D-01
                    CP:  1.16D+00  1.30D+00  1.25D+00  1.51D+00  1.36D+00
                    CP:  1.56D+00  1.13D+00  1.03D+00  1.07D+00  1.25D+00
                    CP:  1.51D+00  1.24D+00
 E= -767.746506310275     Delta-E=       -0.000000000009 Rises=F Damp=F
 DIIS: error= 3.65D-08 at cycle  18 NSaved=  18.
 NSaved=18 IEnMin=18 EnMin= -767.746506310275     IErMin=18 ErrMin= 3.65D-08
 ErrMax= 3.65D-08 EMaxC= 1.00D-01 BMatC= 3.79D-13 BMatP= 4.42D-12
 IDIUse=1 WtCom= 1.00D+00 WtEn= 0.00D+00
 Coeff-Com:  0.493D-06-0.995D-06 0.715D-05-0.479D-05 0.380D-04 0.309D-04
 Coeff-Com:  0.302D-04-0.192D-03-0.493D-03 0.154D-03 0.173D-02 0.158D-02
 Coeff-Com:  0.286D-02-0.915D-02-0.640D-01-0.368D-01 0.114D+00 0.990D+00
 Coeff:      0.493D-06-0.995D-06 0.715D-05-0.479D-05 0.380D-04 0.309D-04
 Coeff:      0.302D-04-0.192D-03-0.493D-03 0.154D-03 0.173D-02 0.158D-02
 Coeff:      0.286D-02-0.915D-02-0.640D-01-0.368D-01 0.114D+00 0.990D+00
 Gap=     0.200 Goal=   None    Shift=    0.000
 Gap=     0.098 Goal=   None    Shift=    0.000
 RMSDP=3.14D-08 MaxDP=1.38D-06 DE=-8.87D-12 OVMax= 2.12D-06

 Cycle  19  Pass 1  IDiag  1:
 RMSU=  5.98D-09    CP:  9.69D-01  6.57D-01  5.35D-01  6.02D-01  9.88D-01
                    CP:  1.16D+00  1.30D+00  1.25D+00  1.51D+00  1.36D+00
                    CP:  1.57D+00  1.13D+00  1.03D+00  1.08D+00  1.28D+00
                    CP:  1.72D+00  1.63D+00  1.42D+00
 E= -767.746506310277     Delta-E=       -0.000000000003 Rises=F Damp=F
 DIIS: error= 1.98D-08 at cycle  19 NSaved=  19.
 NSaved=19 IEnMin=19 EnMin= -767.746506310277     IErMin=19 ErrMin= 1.98D-08
 ErrMax= 1.98D-08 EMaxC= 1.00D-01 BMatC= 1.52D-13 BMatP= 3.79D-13
 IDIUse=1 WtCom= 1.00D+00 WtEn= 0.00D+00
 Coeff-Com:  0.227D-06-0.504D-06 0.127D-05-0.110D-05 0.498D-05-0.990D-06
 Coeff-Com:  0.685D-04 0.212D-04-0.209D-03-0.540D-03-0.693D-04 0.180D-02
 Coeff-Com:  0.102D-01 0.805D-02-0.164D-01-0.109D+00-0.124D+00 0.393D+00
 Coeff-Com:  0.836D+00
 Coeff:      0.227D-06-0.504D-06 0.127D-05-0.110D-05 0.498D-05-0.990D-06
 Coeff:      0.685D-04 0.212D-04-0.209D-03-0.540D-03-0.693D-04 0.180D-02
 Coeff:      0.102D-01 0.805D-02-0.164D-01-0.109D+00-0.124D+00 0.393D+00
 Coeff:      0.836D+00
 Gap=     0.200 Goal=   None    Shift=    0.000
 Gap=     0.098 Goal=   None    Shift=    0.000
 RMSDP=1.84D-08 MaxDP=7.70D-07 DE=-2.50D-12 OVMax= 1.29D-06

 Cycle  20  Pass 1  IDiag  1:
 Restarting incremental Fock formation.
 E= -767.746506310270     Delta-E=        0.000000000008 Rises=F Damp=F
 DIIS: error= 1.18D-08 at cycle  20 NSaved=  20.
 NSaved=20 IEnMin=19 EnMin= -767.746506310277     IErMin=20 ErrMin= 1.18D-08
 ErrMax= 1.18D-08 EMaxC= 1.00D-01 BMatC= 5.01D-14 BMatP= 1.52D-13
 IDIUse=1 WtCom= 1.00D+00 WtEn= 0.00D+00
 Coeff-Com: -0.125D-06 0.210D-06-0.282D-05 0.158D-05-0.149D-04-0.122D-04
 Coeff-Com:  0.302D-04 0.990D-04 0.107D-03-0.383D-03-0.834D-03-0.229D-04
 Coeff-Com:  0.337D-02 0.803D-02 0.197D-01-0.357D-01-0.104D+00-0.243D+00
 Coeff-Com:  0.382D+00 0.970D+00
 Coeff:     -0.125D-06 0.210D-06-0.282D-05 0.158D-05-0.149D-04-0.122D-04
 Coeff:      0.302D-04 0.990D-04 0.107D-03-0.383D-03-0.834D-03-0.229D-04
 Coeff:      0.337D-02 0.803D-02 0.197D-01-0.357D-01-0.104D+00-0.243D+00
 Coeff:      0.382D+00 0.970D+00
 Gap=     0.200 Goal=   None    Shift=    0.000
 Gap=     0.098 Goal=   None    Shift=    0.000
 RMSDP=1.50D-08 MaxDP=6.63D-07 DE= 7.50D-12 OVMax= 1.10D-06

 Cycle  21  Pass 1  IDiag  1:
 RMSU=  1.50D-08    CP:  1.00D+00
 E= -767.746506310271     Delta-E=       -0.000000000001 Rises=F Damp=F
 DIIS: error= 3.43D-09 at cycle  21 NSaved=  20.
 NSaved=20 IEnMin=18 EnMin= -767.746506310277     IErMin=20 ErrMin= 3.43D-09
 ErrMax= 3.43D-09 EMaxC= 1.00D-01 BMatC= 6.00D-15 BMatP= 5.01D-14
 IDIUse=1 WtCom= 1.00D+00 WtEn= 0.00D+00
 Coeff-Com: -0.104D-07 0.493D-06-0.424D-06 0.351D-05 0.418D-05-0.732D-05
 Coeff-Com: -0.235D-04-0.146D-04 0.802D-04 0.145D-03-0.807D-04-0.141D-02
 Coeff-Com: -0.929D-03 0.153D-02 0.143D-01 0.177D-01-0.961D-01-0.133D+00
 Coeff-Com:  0.150D+00 0.105D+01
 Coeff:     -0.104D-07 0.493D-06-0.424D-06 0.351D-05 0.418D-05-0.732D-05
 Coeff:     -0.235D-04-0.146D-04 0.802D-04 0.145D-03-0.807D-04-0.141D-02
 Coeff:     -0.929D-03 0.153D-02 0.143D-01 0.177D-01-0.961D-01-0.133D+00
 Coeff:      0.150D+00 0.105D+01
 Gap=     0.200 Goal=   None    Shift=    0.000
 Gap=     0.098 Goal=   None    Shift=    0.000
 RMSDP=5.37D-09 MaxDP=3.04D-07 DE=-1.36D-12 OVMax= 3.86D-07

 SCF Done:  E(UB+HF-LYP) =  -767.746506310     A.U. after   21 cycles
             Convg  =    0.5366D-08             -V/T =  2.0030
             S**2   =   0.7573
 KE= 7.654203357105D+02 PE=-2.600426791154D+03 EE= 6.723650473282D+02
 Annihilation of the first spin contaminant:
 S**2 before annihilation     0.7573,   after     0.7500
 Leave Link  502 at Thu Aug 31 15:58:31 2006, MaxMem=    6291456 cpu:    4016.4
 (Enter /usr/local/Gaussian/g03/l601.exe)
 Copying SCF densities to generalized density rwf, ISCF=1 IROHF=0.

 **********************************************************************

            Population analysis using the SCF density.

 **********************************************************************

 Orbital symmetries:
 Alpha Orbitals:
       Occupied  (A) (A) (A) (A) (A) (A) (A) (A) (A) (A) (A) (A)
                 (A) (A) (A) (A) (A) (A) (A) (A) (A) (A) (A) (A)
                 (A) (A) (A) (A) (A) (A) (A) (A) (A) (A)
       Virtual   (A) (A) (A) (A) (A) (A) (A) (A) (A) (A) (A) (A)
                 (A) (A) (A) (A) (A) (A) (A) (A) (A) (A) (A) (A)
                 (A) (A) (A) (A) (A) (A) (A) (A) (A) (A) (A) (A)
                 (A) (A) (A) (A) (A) (A) (A) (A) (A) (A) (A) (A)
                 (A) (A) (A) (A) (A) (A) (A) (A) (A) (A) (A) (A)
                 (A) (A) (A) (A) (A) (A) (A) (A) (A) (A) (A) (A)
                 (A) (A) (A) (A) (A) (A) (A) (A) (A) (A) (A) (A)
                 (A) (A) (A) (A) (A) (A) (A) (A) (A) (A) (A) (A)
                 (A) (A) (A) (A) (A) (A) (A) (A) (A) (A) (A) (A)
                 (A) (A) (A) (A) (A) (A) (A) (A) (A) (A) (A) (A)
                 (A) (A) (A) (A) (A) (A) (A) (A) (A) (A) (A) (A)
                 (A) (A) (A) (A) (A) (A) (A) (A) (A) (A) (A) (A)
                 (A) (A) (A) (A) (A) (A) (A) (A) (A) (A) (A) (A)
                 (A) (A) (A) (A) (A) (A) (A) (A) (A) (A) (A) (A)
                 (A) (A) (A) (A) (A) (A) (A) (A) (A) (A) (A) (A)
                 (A) (A) (A) (A) (A) (A)
 Beta  Orbitals:
       Occupied  (A) (A) (A) (A) (A) (A) (A) (A) (A) (A) (A) (A)
                 (A) (A) (A) (A) (A) (A) (A) (A) (A) (A) (A) (A)
                 (A) (A) (A) (A) (A) (A) (A) (A) (A)
       Virtual   (A) (A) (A) (A) (A) (A) (A) (A) (A) (A) (A) (A)
                 (A) (A) (A) (A) (A) (A) (A) (A) (A) (A) (A) (A)
                 (A) (A) (A) (A) (A) (A) (A) (A) (A) (A) (A) (A)
                 (A) (A) (A) (A) (A) (A) (A) (A) (A) (A) (A) (A)
                 (A) (A) (A) (A) (A) (A) (A) (A) (A) (A) (A) (A)
                 (A) (A) (A) (A) (A) (A) (A) (A) (A) (A) (A) (A)
                 (A) (A) (A) (A) (A) (A) (A) (A) (A) (A) (A) (A)
                 (A) (A) (A) (A) (A) (A) (A) (A) (A) (A) (A) (A)
                 (A) (A) (A) (A) (A) (A) (A) (A) (A) (A) (A) (A)
                 (A) (A) (A) (A) (A) (A) (A) (A) (A) (A) (A) (A)
                 (A) (A) (A) (A) (A) (A) (A) (A) (A) (A) (A) (A)
                 (A) (A) (A) (A) (A) (A) (A) (A) (A) (A) (A) (A)
                 (A) (A) (A) (A) (A) (A) (A) (A) (A) (A) (A) (A)
                 (A) (A) (A) (A) (A) (A) (A) (A) (A) (A) (A) (A)
                 (A) (A) (A) (A) (A) (A) (A) (A) (A) (A) (A) (A)
                 (A) (A) (A) (A) (A) (A) (A)
 The electronic state is 2-A.
 Alpha  occ. eigenvalues -- -101.50223 -19.19943 -10.28164 -10.21901 -10.21495
 Alpha  occ. eigenvalues --  -10.21112 -10.20793 -10.20207  -9.41442  -7.18334
 Alpha  occ. eigenvalues --   -7.16896  -7.16885  -1.11571  -0.89241  -0.78996
 Alpha  occ. eigenvalues --   -0.78324  -0.75314  -0.66733  -0.64259  -0.58635
 Alpha  occ. eigenvalues --   -0.53660  -0.50775  -0.47299  -0.46170  -0.45971
 Alpha  occ. eigenvalues --   -0.43036  -0.40331  -0.39094  -0.37593  -0.31350
 Alpha  occ. eigenvalues --   -0.30048  -0.27738  -0.27310  -0.24380
 Alpha virt. eigenvalues --   -0.04427  -0.03857  -0.02137   0.00251   0.01577
 Alpha virt. eigenvalues --    0.03133   0.03924   0.04773   0.05810   0.06819
 Alpha virt. eigenvalues --    0.07069   0.08087   0.08390   0.10215   0.11490
 Alpha virt. eigenvalues --    0.11832   0.11965   0.12152   0.12570   0.12803
 Alpha virt. eigenvalues --    0.12945   0.14390   0.15688   0.16157   0.16790
 Alpha virt. eigenvalues --    0.17014   0.17893   0.18838   0.19621   0.19896
 Alpha virt. eigenvalues --    0.20751   0.21116   0.21935   0.23546   0.23828
 Alpha virt. eigenvalues --    0.23973   0.25227   0.25427   0.26912   0.28315
 Alpha virt. eigenvalues --    0.29454   0.29638   0.32783   0.33047   0.34488
 Alpha virt. eigenvalues --    0.35016   0.44337   0.46422   0.46575   0.48803
 Alpha virt. eigenvalues --    0.49191   0.49509   0.51952   0.52357   0.53039
 Alpha virt. eigenvalues --    0.53304   0.54456   0.55966   0.56754   0.57879
 Alpha virt. eigenvalues --    0.60754   0.61375   0.63786   0.64416   0.67481
 Alpha virt. eigenvalues --    0.68275   0.68945   0.71069   0.72643   0.73120
 Alpha virt. eigenvalues --    0.77589   0.79211   0.80497   0.81723   0.82562
 Alpha virt. eigenvalues --    0.82945   0.83338   0.87145   0.89916   0.92522
 Alpha virt. eigenvalues --    0.92888   0.93438   0.94709   0.96973   0.97662
 Alpha virt. eigenvalues --    1.02601   1.03927   1.04987   1.05825   1.08400
 Alpha virt. eigenvalues --    1.10061   1.10583   1.17736   1.20400   1.22302
 Alpha virt. eigenvalues --    1.30970   1.32363   1.37863   1.44901   1.45969
 Alpha virt. eigenvalues --    1.47891   1.53043   1.54093   1.55630   1.57973
 Alpha virt. eigenvalues --    1.59742   1.62563   1.63965   1.64945   1.70265
 Alpha virt. eigenvalues --    1.73396   1.74523   1.77833   1.79403   1.85627
 Alpha virt. eigenvalues --    1.86611   1.89678   1.90598   1.92966   1.93888
 Alpha virt. eigenvalues --    1.94282   1.97401   1.98947   2.03409   2.05999
 Alpha virt. eigenvalues --    2.06387   2.21934   2.28131   2.28990   2.31496
 Alpha virt. eigenvalues --    2.32960   2.36434   2.37288   2.40483   2.43699
 Alpha virt. eigenvalues --    2.43767   2.54415   2.59996   2.60684   2.61710
 Alpha virt. eigenvalues --    2.68623   2.69509   2.72500   2.72868   2.73477
 Alpha virt. eigenvalues --    2.75159   2.78276   2.79239   2.82009   2.86772
 Alpha virt. eigenvalues --    2.90963   2.91340   3.04169   3.05651   3.06864
 Alpha virt. eigenvalues --    3.08931   3.15507   3.27189   3.36685   3.41782
 Alpha virt. eigenvalues --    3.47347   3.49412   3.56602   3.62814   3.86781
 Alpha virt. eigenvalues --    3.95620   3.99685   4.08701   4.11597   4.12455
 Alpha virt. eigenvalues --    4.79581   4.95232   5.39979   5.72817   9.72515
 Alpha virt. eigenvalues --   23.54592  23.89353  23.90579  23.99545  24.09883
 Alpha virt. eigenvalues --   24.16448  25.89082  25.90178  26.10431  49.89041
 Alpha virt. eigenvalues --  215.70498
  Beta  occ. eigenvalues -- -101.49777 -19.19777 -10.27939 -10.21687 -10.21330
  Beta  occ. eigenvalues --  -10.20977 -10.20847 -10.20250  -9.41013  -7.16928
  Beta  occ. eigenvalues --   -7.16628  -7.16619  -1.11226  -0.88824  -0.78822
  Beta  occ. eigenvalues --   -0.77524  -0.72413  -0.66476  -0.63961  -0.58470
  Beta  occ. eigenvalues --   -0.53493  -0.50590  -0.47103  -0.46117  -0.44928
  Beta  occ. eigenvalues --   -0.42847  -0.40151  -0.37469  -0.37267  -0.29531
  Beta  occ. eigenvalues --   -0.27427  -0.26690  -0.26446
  Beta virt. eigenvalues --   -0.16642  -0.03666  -0.02407  -0.02083   0.00306
  Beta virt. eigenvalues --    0.01594   0.03169   0.03966   0.04874   0.05926
  Beta virt. eigenvalues --    0.06854   0.07336   0.08123   0.08424   0.10476
  Beta virt. eigenvalues --    0.11771   0.11877   0.12016   0.12292   0.12688
  Beta virt. eigenvalues --    0.12871   0.13020   0.14470   0.15744   0.16257
  Beta virt. eigenvalues --    0.16884   0.17112   0.18085   0.18893   0.19674
  Beta virt. eigenvalues --    0.19975   0.20820   0.21273   0.22055   0.23699
  Beta virt. eigenvalues --    0.23985   0.24202   0.25267   0.25538   0.26948
  Beta virt. eigenvalues --    0.28436   0.29631   0.29832   0.32866   0.33172
  Beta virt. eigenvalues --    0.34547   0.35176   0.44492   0.46492   0.47747
  Beta virt. eigenvalues --    0.49410   0.49455   0.49963   0.52128   0.52802
  Beta virt. eigenvalues --    0.53241   0.53461   0.54575   0.56639   0.56913
  Beta virt. eigenvalues --    0.57945   0.61341   0.62035   0.64080   0.65193
  Beta virt. eigenvalues --    0.67567   0.68543   0.69184   0.71157   0.72830
  Beta virt. eigenvalues --    0.73642   0.77726   0.79706   0.80756   0.81929
  Beta virt. eigenvalues --    0.82768   0.83281   0.83587   0.87256   0.91702
  Beta virt. eigenvalues --    0.93101   0.93954   0.94199   0.95710   0.97677
  Beta virt. eigenvalues --    0.99807   1.03367   1.04701   1.05335   1.06616
  Beta virt. eigenvalues --    1.08640   1.10636   1.11228   1.18281   1.20502
  Beta virt. eigenvalues --    1.23376   1.31406   1.32932   1.38036   1.45010
  Beta virt. eigenvalues --    1.46017   1.48174   1.53192   1.54402   1.55762
  Beta virt. eigenvalues --    1.58216   1.60129   1.62801   1.64241   1.65291
  Beta virt. eigenvalues --    1.70241   1.73661   1.74616   1.78023   1.79534
  Beta virt. eigenvalues --    1.85878   1.87021   1.90075   1.90840   1.93227
  Beta virt. eigenvalues --    1.94043   1.94645   1.97486   1.99309   2.03679
  Beta virt. eigenvalues --    2.06241   2.06511   2.22466   2.28289   2.29477
  Beta virt. eigenvalues --    2.32072   2.33421   2.37058   2.37744   2.41949
  Beta virt. eigenvalues --    2.43859   2.43996   2.54471   2.60429   2.60820
  Beta virt. eigenvalues --    2.61994   2.68662   2.69535   2.72552   2.73437
  Beta virt. eigenvalues --    2.73566   2.75435   2.78375   2.79387   2.82452
  Beta virt. eigenvalues --    2.87228   2.91342   2.91543   3.04796   3.06139
  Beta virt. eigenvalues --    3.07101   3.09099   3.16099   3.27408   3.36835
  Beta virt. eigenvalues --    3.41932   3.47458   3.49613   3.56731   3.62964
  Beta virt. eigenvalues --    3.86994   3.95745   3.99988   4.08818   4.11885
  Beta virt. eigenvalues --    4.12682   4.79961   4.95905   5.40134   5.72993
  Beta virt. eigenvalues --    9.73342  23.54730  23.89432  23.90826  23.99723
  Beta virt. eigenvalues --   24.09937  24.16522  25.89470  25.90551  26.12249
  Beta virt. eigenvalues --   49.89205 215.70908
          Condensed to atoms (all electrons):
              1          2          3          4          5          6
     1  C    6.876370  -1.542969   1.446891  -0.977150   0.913707  -0.873577
     2  C   -1.542969   8.401451  -1.732133   0.844942  -1.103853   0.690966
     3  C    1.446891  -1.732133   6.849559  -1.019949   1.042244  -0.745257
     4  C   -0.977150   0.844942  -1.019949   7.412545  -0.708254   0.181060
     5  C    0.913707  -1.103853   1.042244  -0.708254   6.556639  -0.745544
     6  C   -0.873577   0.690966  -0.745257   0.181060  -0.745544   7.187784
     7  H    0.376152  -0.026093   0.003153  -0.002206   0.025288  -0.017794
     8  H   -0.049484   0.421795  -0.047159   0.018577  -0.007341   0.026971
     9  H    0.003669  -0.003818   0.407614  -0.054205   0.006437  -0.001385
    10  H    0.007905  -0.006239   0.037332   0.341223   0.026300  -0.041522
    11  O   -0.013735   0.010738   0.018993  -0.250591   0.295595   0.004706
    12  H    0.117574  -0.001392   0.011442  -0.067148  -0.049423   0.344657
    13  Cl   0.066617  -0.285944   0.076212   0.062169  -0.019591   0.080827
    14  H    0.006746  -0.003457  -0.007123   0.081000   0.057673  -0.126785
              7          8          9         10         11         12
     1  C    0.376152  -0.049484   0.003669   0.007905  -0.013735   0.117574
     2  C   -0.026093   0.421795  -0.003818  -0.006239   0.010738  -0.001392
     3  C    0.003153  -0.047159   0.407614   0.037332   0.018993   0.011442
     4  C   -0.002206   0.018577  -0.054205   0.341223  -0.250591  -0.067148
     5  C    0.025288  -0.007341   0.006437   0.026300   0.295595  -0.049423
     6  C   -0.017794   0.026971  -0.001385  -0.041522   0.004706   0.344657
     7  H    0.509893  -0.007104  -0.000204   0.000036  -0.000563  -0.008160
     8  H   -0.007104   0.484458  -0.007356  -0.000205   0.000113  -0.000261
     9  H   -0.000204  -0.007356   0.509824  -0.007664  -0.000533   0.000043
    10  H    0.000036  -0.000205  -0.007664   0.510377  -0.008221  -0.000092
    11  O   -0.000563   0.000113  -0.000533  -0.008221   7.939291  -0.013178
    12  H   -0.008160  -0.000261   0.000043  -0.000092  -0.013178   0.543287
    13  Cl  -0.000952  -0.027856  -0.001601  -0.000978  -0.000144  -0.001221
    14  H   -0.000015  -0.000002   0.000016   0.000129   0.244610   0.007055
             13         14
     1  C    0.066617   0.006746
     2  C   -0.285944  -0.003457
     3  C    0.076212  -0.007123
     4  C    0.062169   0.081000
     5  C   -0.019591   0.057673
     6  C    0.080827  -0.126785
     7  H   -0.000952  -0.000015
     8  H   -0.027856  -0.000002
     9  H   -0.001601   0.000016
    10  H   -0.000978   0.000129
    11  O   -0.000144   0.244610
    12  H   -0.001221   0.007055
    13  Cl  17.352658  -0.000026
    14  H   -0.000026   0.482426
 Mulliken atomic charges:
              1
     1  C   -0.358715
     2  C    0.336005
     3  C   -0.341818
     4  C    0.137988
     5  C   -0.289878
     6  C    0.034895
     7  H    0.148567
     8  H    0.194856
     9  H    0.149162
    10  H    0.141618
    11  O   -0.227082
    12  H    0.116818
    13  Cl  -0.300171
    14  H    0.257754
 Sum of Mulliken charges=   0.00000
 Atomic charges with hydrogens summed into heavy atoms:
              1
     1  C   -0.210148
     2  C    0.530862
     3  C   -0.192656
     4  C    0.279606
     5  C   -0.289878
     6  C    0.151713
     7  H    0.000000
     8  H    0.000000
     9  H    0.000000
    10  H    0.000000
    11  O    0.030672
    12  H    0.000000
    13  Cl  -0.300171
    14  H    0.000000
 Sum of Mulliken charges=   0.00000
          Atomic-Atomic Spin Densities.
              1          2          3          4          5          6
     1  C    0.436450  -0.240238   0.259135  -0.186768   0.164338  -0.235518
     2  C   -0.240238   0.182603  -0.241104   0.269483  -0.191687   0.262938
     3  C    0.259135  -0.241104   0.432729  -0.260620   0.176330  -0.189045
     4  C   -0.186768   0.269483  -0.260620   0.125360  -0.136548   0.129879
     5  C    0.164338  -0.191687   0.176330  -0.136548   0.336341  -0.133850
     6  C   -0.235518   0.262938  -0.189045   0.129879  -0.133850   0.096640
     7  H   -0.003372   0.007306  -0.001897   0.000223  -0.001871   0.001009
     8  H    0.002804   0.014378   0.003248  -0.005817   0.002640  -0.005495
     9  H   -0.001645   0.007689  -0.004730   0.001581  -0.001689   0.000025
    10  H   -0.000166   0.000974  -0.000040  -0.000717   0.000484  -0.000042
    11  O   -0.000885   0.000644  -0.000167  -0.001968  -0.040963   0.003156
    12  H   -0.000051   0.001086  -0.000239  -0.000111   0.001023  -0.001153
    13  Cl  -0.085358   0.029872  -0.088397   0.035424  -0.026669   0.030815
    14  H    0.000761   0.000109   0.000777  -0.001291   0.001230  -0.001698
              7          8          9         10         11         12
     1  C   -0.003372   0.002804  -0.001645  -0.000166  -0.000885  -0.000051
     2  C    0.007306   0.014378   0.007689   0.000974   0.000644   0.001086
     3  C   -0.001897   0.003248  -0.004730  -0.000040  -0.000167  -0.000239
     4  C    0.000223  -0.005817   0.001581  -0.000717  -0.001968  -0.000111
     5  C   -0.001871   0.002640  -0.001689   0.000484  -0.040963   0.001023
     6  C    0.001009  -0.005495   0.000025  -0.000042   0.003156  -0.001153
     7  H   -0.008263  -0.000342   0.000004  -0.000003   0.000046   0.000108
     8  H   -0.000342   0.003001  -0.000400  -0.000001  -0.000005  -0.000002
     9  H    0.000004  -0.000400  -0.007006   0.000095   0.000022  -0.000003
    10  H   -0.000003  -0.000001   0.000095   0.000760  -0.000170   0.000002
    11  O    0.000046  -0.000005   0.000022  -0.000170   0.086910  -0.000197
    12  H    0.000108  -0.000002  -0.000003   0.000002  -0.000197   0.001175
    13  Cl   0.000709  -0.012690   0.000774  -0.000069  -0.000145  -0.000088
    14  H   -0.000009   0.000000  -0.000003   0.000002   0.000329  -0.000004
             13         14
     1  C   -0.085358   0.000761
     2  C    0.029872   0.000109
     3  C   -0.088397   0.000777
     4  C    0.035424  -0.001291
     5  C   -0.026669   0.001230
     6  C    0.030815  -0.001698
     7  H    0.000709  -0.000009
     8  H   -0.012690   0.000000
     9  H    0.000774  -0.000003
    10  H   -0.000069   0.000002
    11  O   -0.000145   0.000329
    12  H   -0.000088  -0.000004
    13  Cl   0.704171  -0.000062
    14  H   -0.000062  -0.001768
 Mulliken atomic spin densities:
              1
     1  C    0.109487
     2  C    0.104052
     3  C    0.085980
     4  C   -0.031890
     5  C    0.149111
     6  C   -0.042339
     7  H   -0.006352
     8  H    0.001318
     9  H   -0.005287
    10  H    0.001110
    11  O    0.046605
    12  H    0.001548
    13  Cl   0.588286
    14  H   -0.001629
 Sum of Mulliken spin densities=   1.00000
 Electronic spatial extent (au):  <R**2>=  1266.6416
 Charge=     0.0000 electrons
 Dipole moment (field-independent basis, Debye):
    X=    -4.4849    Y=    -1.2200    Z=     1.9938  Tot=     5.0574
 Quadrupole moment (field-independent basis, Debye-Ang):
   XX=   -60.0437   YY=   -46.8853   ZZ=   -55.7326
   XY=     5.7338   XZ=     6.8914   YZ=     1.2061
 Traceless Quadrupole moment (field-independent basis, Debye-Ang):
   XX=    -5.8232   YY=     7.3353   ZZ=    -1.5121
   XY=     5.7338   XZ=     6.8914   YZ=     1.2061
 Octapole moment (field-independent basis, Debye-Ang**2):
  XXX=   -42.6472  YYY=    -0.5083  ZZZ=    -5.5381  XYY=   -11.4452
  XXY=   -17.6468  XXZ=     0.7006  XZZ=     1.4409  YZZ=    -2.5306
  YYZ=    -0.1450  XYZ=    -5.1835
 Hexadecapole moment (field-independent basis, Debye-Ang**3):
 XXXX= -1138.6378 YYYY=  -284.2725 ZZZZ=  -243.3913 XXXY=    65.4702
 XXXZ=    38.0006 YYYX=     7.8267 YYYZ=    -0.7355 ZZZX=    16.9874
 ZZZY=     2.6243 XXYY=  -216.2190 XXZZ=  -217.7905 YYZZ=   -93.0862
 XXYZ=    19.2188 YYXZ=    17.2859 ZZXY=     6.2319
 N-N= 3.948949018052D+02 E-N=-2.600426790843D+03  KE= 7.654203357104D+02
                          Isotropic Fermi Contact Couplings
        Atom                 a.u.       MegaHertz       Gauss      10(-4) cm-1
     1  C(13)              0.00438       4.92834       1.75855       1.64392
     2  C(13)              0.03034      34.11008      12.17133      11.37790
     3  C(13)              0.00274       3.07477       1.09715       1.02563
     4  C(13)             -0.00714      -8.02828      -2.86469      -2.67795
     5  C(13)              0.00789       8.86681       3.16390       2.95765
     6  C(13)             -0.00806      -9.05656      -3.23161      -3.02094
     7  H(1)              -0.00176      -7.87931      -2.81153      -2.62826
     8  H(1)               0.00218       9.72658       3.47069       3.24444
     9  H(1)              -0.00150      -6.69099      -2.38751      -2.23187
    10  H(1)               0.00023       1.02552       0.36593       0.34208
    11  O(17)              0.00786      -4.76757      -1.70119      -1.59029
    12  H(1)               0.00031       1.39903       0.49921       0.46666
    13  Cl(35)             0.06601      28.94219      10.32729       9.65407
    14  H(1)              -0.00089      -3.99035      -1.42386      -1.33104
 --------------------------------------------------------
       Center         ----  Spin Dipole Couplings  ----
                      3XX-RR        3YY-RR        3ZZ-RR
 --------------------------------------------------------
     1   Atom       -0.020939     -0.066784      0.087723
     2   Atom        0.027160     -0.082570      0.055410
     3   Atom       -0.019846     -0.053394      0.073241
     4   Atom        0.004352      0.011257     -0.015610
     5   Atom       -0.026677     -0.095736      0.122413
     6   Atom        0.007331      0.014798     -0.022129
     7   Atom       -0.006118      0.009078     -0.002960
     8   Atom       -0.001222     -0.013933      0.015155
     9   Atom       -0.005699      0.010053     -0.004354
    10   Atom       -0.000007      0.002867     -0.002860
    11   Atom       -0.039424     -0.133818      0.173242
    12   Atom        0.000557      0.002103     -0.002661
    13   Atom        1.116202     -1.857790      0.741588
    14   Atom       -0.002443      0.007449     -0.005006
 --------------------------------------------------------
                        XY            XZ            YZ
 --------------------------------------------------------
     1   Atom       -0.000855     -0.093573      0.005948
     2   Atom       -0.009794     -0.128197      0.011490
     3   Atom       -0.009812     -0.075159      0.011485
     4   Atom        0.000937      0.018198     -0.000997
     5   Atom       -0.007372     -0.114760      0.013895
     6   Atom        0.001495      0.023070     -0.003014
     7   Atom       -0.004458     -0.003217     -0.006771
     8   Atom        0.001023      0.009958      0.002749
     9   Atom        0.002777     -0.003446      0.003750
    10   Atom       -0.000330      0.000836      0.000121
    11   Atom       -0.006739     -0.172187      0.017772
    12   Atom        0.000218      0.001096     -0.000907
    13   Atom       -0.222768     -2.806859      0.208104
    14   Atom        0.007734      0.000342      0.003418
 --------------------------------------------------------


 ---------------------------------------------------------------------------------
              Anisotropic Spin Dipole Couplings in Principal Axis System
 ---------------------------------------------------------------------------------

       Atom             a.u.   MegaHertz   Gauss  10(-4) cm-1        Axes

              Baa    -0.0754   -10.117    -3.610    -3.375  0.8349 -0.2543  0.4882
     1 C(13)  Bbb    -0.0663    -8.903    -3.177    -2.970  0.2334  0.9668  0.1044
              Bcc     0.1417    19.021     6.787     6.345 -0.4985  0.0268  0.8665
 
              Baa    -0.0877   -11.771    -4.200    -3.926  0.7386 -0.0869  0.6685
     2 C(13)  Bbb    -0.0834   -11.196    -3.995    -3.735  0.1043  0.9944  0.0140
              Bcc     0.1712    22.967     8.195     7.661 -0.6660  0.0594  0.7436
 
              Baa    -0.0628    -8.427    -3.007    -2.811  0.8342  0.3430  0.4319
     3 C(13)  Bbb    -0.0536    -7.192    -2.566    -2.399 -0.2607  0.9353 -0.2392
              Bcc     0.1164    15.619     5.573     5.210 -0.4860  0.0869  0.8696
 
              Baa    -0.0264    -3.547    -1.266    -1.183 -0.5094  0.0354  0.8598
     4 C(13)  Bbb     0.0113     1.514     0.540     0.505 -0.0484  0.9964 -0.0697
              Bcc     0.0152     2.033     0.725     0.678  0.8592  0.0772  0.5058
 
              Baa    -0.0966   -12.965    -4.626    -4.325  0.0093  0.9982 -0.0584
     5 C(13)  Bbb    -0.0890   -11.940    -4.260    -3.983  0.8792  0.0197  0.4760
              Bcc     0.1856    24.905     8.887     8.307 -0.4763  0.0558  0.8775
 
              Baa    -0.0350    -4.696    -1.676    -1.567 -0.4793  0.0674  0.8751
     6 C(13)  Bbb     0.0150     2.016     0.719     0.672  0.0565  0.9973 -0.0458
              Bcc     0.0200     2.681     0.957     0.894  0.8758 -0.0275  0.4818
 
              Baa    -0.0110    -5.863    -2.092    -1.956  0.7208  0.3600  0.5924
     7 H(1)   Bbb    -0.0016    -0.834    -0.297    -0.278 -0.6755  0.1730  0.7168
              Bcc     0.0126     6.697     2.390     2.234 -0.1555  0.9168 -0.3679
 
              Baa    -0.0142    -7.572    -2.702    -2.526 -0.0094  0.9959 -0.0901
     8 H(1)   Bbb    -0.0059    -3.158    -1.127    -1.053  0.9052 -0.0298 -0.4239
              Bcc     0.0201    10.730     3.829     3.579  0.4248  0.0855  0.9012
 
              Baa    -0.0096    -5.117    -1.826    -1.707  0.7314 -0.2262  0.6433
     9 H(1)   Bbb    -0.0016    -0.855    -0.305    -0.285 -0.6718 -0.0769  0.7367
              Bcc     0.0112     5.972     2.131     1.992  0.1172  0.9710  0.2082
 
              Baa    -0.0031    -1.651    -0.589    -0.551 -0.2646 -0.0343  0.9638
    10 H(1)   Bbb     0.0002     0.101     0.036     0.034  0.9579  0.1059  0.2667
              Bcc     0.0029     1.550     0.553     0.517 -0.1112  0.9938  0.0048
 
              Baa    -0.1379     9.976     3.560     3.328 -0.6440  0.6558 -0.3939
    11 O(17)  Bbb    -0.1323     9.572     3.416     3.193  0.5905  0.7535  0.2890
              Bcc     0.2702   -19.548    -6.975    -6.521 -0.4863  0.0465  0.8725
 
              Baa    -0.0032    -1.688    -0.602    -0.563 -0.2877  0.1742  0.9418
    12 H(1)   Bbb     0.0009     0.476     0.170     0.159  0.9577  0.0409  0.2850
              Bcc     0.0023     1.211     0.432     0.404  0.0111  0.9839 -0.1786
 
              Baa    -1.8842   -98.615   -35.188   -32.894  0.6839  0.0217  0.7293
    13 Cl(35) Bbb    -1.8743   -98.098   -35.004   -32.722  0.0247  0.9983 -0.0529
              Bcc     3.7585   196.713    70.192    65.617  0.7292 -0.0542 -0.6822
 
              Baa    -0.0076    -4.035    -1.440    -1.346  0.6861 -0.4783  0.5481
    14 H(1)   Bbb    -0.0047    -2.510    -0.896    -0.837 -0.5628  0.1285  0.8166
              Bcc     0.0123     6.545     2.335     2.183  0.4610  0.8687  0.1810
 

 ---------------------------------------------------------------------------------

 No NMR shielding tensors so no spin-rotation constants.
 Leave Link  601 at Thu Aug 31 15:58:40 2006, MaxMem=    6291456 cpu:       2.3
 (Enter /usr/local/Gaussian/g03/l701.exe)
 Compute integral first derivatives.
 ... and contract with generalized density number  0.
 Leave Link  701 at Thu Aug 31 15:58:44 2006, MaxMem=    6291456 cpu:       1.2
 (Enter /usr/local/Gaussian/g03/l702.exe)
 L702 exits ... SP integral derivatives will be done elsewhere.
 Leave Link  702 at Thu Aug 31 15:58:44 2006, MaxMem=    6291456 cpu:       0.0
 (Enter /usr/local/Gaussian/g03/l703.exe)
 Compute integral first derivatives, UseDBF=F.
 Integral derivatives from FoFDir, PRISM(SPDF).
 Symmetry not used in FoFDir.
 MinBra= 0 MaxBra= 2 Meth= 1.
 IRaf=       0 NMat=   1 IRICut=       1 DoRegI=T DoRafI=F ISym2E= 0 JSym2E=0.
 Leave Link  703 at Thu Aug 31 16:28:10 2006, MaxMem=    6291456 cpu:     557.9
 (Enter /usr/local/Gaussian/g03/l716.exe)
 Dipole        =-1.76448659D+00-4.79978482D-01 7.84402794D-01
 ***** Axes restored to original set *****
 -------------------------------------------------------------------
 Center     Atomic                   Forces (Hartrees/Bohr)
 Number     Number              X              Y              Z
 -------------------------------------------------------------------
    1          6          -0.002448782    0.000230650   -0.000572661
    2          6          -0.001852566   -0.000220561    0.001196263
    3          6          -0.000729338    0.000213496    0.002440216
    4          6           0.003009904   -0.000172514   -0.000380270
    5          6          -0.003077306    0.000289115    0.002360948
    6          6           0.001429478   -0.000121052   -0.002612997
    7          1          -0.000150783   -0.000021111   -0.000175391
    8          1          -0.000186979    0.000039689    0.000092428
    9          1           0.000029298   -0.000026514    0.000231528
   10          1           0.000150226   -0.000008747    0.000388550
   11          8           0.003321029   -0.000137521   -0.001401921
   12          1          -0.000021915    0.000004035   -0.000250845
   13         17           0.000010036    0.000018930   -0.000021297
   14          1           0.000517698   -0.000087896   -0.001294550
 -------------------------------------------------------------------
 Cartesian Forces:  Max     0.003321029 RMS     0.001257605
 Leave Link  716 at Thu Aug 31 16:28:12 2006, MaxMem=    6291456 cpu:       0.0
 (Enter /usr/local/Gaussian/g03/l103.exe)

 GradGradGradGradGradGradGradGradGradGradGradGradGradGradGradGradGradGrad
 Berny optimization.
 Internal  Forces:  Max     0.004655533 RMS     0.000857166
 Search for a local minimum.
 Step number   1 out of a maximum of  91
 All quantities printed in internal units (Hartrees-Bohrs-Radians)
 Second derivative matrix not updated -- first step.
     Eigenvalues ---    0.02039   0.02069   0.02119   0.02165   0.02232
     Eigenvalues ---    0.02271   0.02303   0.02388   0.02895   0.03134
     Eigenvalues ---    0.03281   0.03567   0.06642   0.09439   0.11641
     Eigenvalues ---    0.12628   0.15710   0.16000   0.16000   0.16000
     Eigenvalues ---    0.17979   0.22864   0.25000   0.32386   0.34308
     Eigenvalues ---    0.35348   0.35691   0.35705   0.35706   0.38488
     Eigenvalues ---    0.42695   0.43165   0.46825   0.49884   0.54785
     Eigenvalues ---    0.555791000.000001000.000001000.000001000.00000
     Eigenvalues --- 1000.000001000.000001000.000001000.000001000.00000
     Eigenvalues --- 1000.000001000.000001000.000001000.000001000.00000
     Eigenvalues --- 1000.000001000.000001000.000001000.000001000.00000
     Eigenvalues --- 1000.000001000.000001000.000001000.000001000.00000
     Eigenvalues --- 1000.000001000.000001000.000001000.000001000.00000
     Eigenvalues --- 1000.000001000.000001000.000001000.000001000.00000
     Eigenvalues --- 1000.000001000.000001000.000001000.000001000.00000
     Eigenvalues --- 1000.000001000.000001000.000001000.000001000.00000
     Eigenvalues --- 1000.00000
 RFO step:  Lambda=-1.30575400D-04.
 Linear search not attempted -- first point.
 Iteration  1 RMS(Cart)=  0.00356667 RMS(Int)=  0.00000542
 Iteration  2 RMS(Cart)=  0.00000501 RMS(Int)=  0.00000053
 Iteration  3 RMS(Cart)=  0.00000000 RMS(Int)=  0.00000053
 Variable       Old X    -DE/DX   Delta X   Delta X   Delta X     New X
                                 (Linear)    (Quad)   (Total)
    R1        2.66425   0.00199   0.00000   0.00527   0.00527   2.66952
    R2        2.60277   0.00307   0.00000   0.00620   0.00620   2.60897
    R3        2.04545   0.00022   0.00000   0.00061   0.00061   2.04606
    R4        5.81962   0.00029   0.00000   0.00262   0.00262   5.82224
    R5        2.66702   0.00191   0.00000   0.00512   0.00512   2.67214
    R6        2.04072   0.00009   0.00000   0.00049   0.00049   2.04121
    R7        4.85387  -0.00047   0.00000  -0.00115  -0.00115   4.85272
    R8        2.59724   0.00314   0.00000   0.00626   0.00626   2.60350
    R9        2.04568   0.00023   0.00000   0.00065   0.00065   2.04632
   R10        5.92326   0.00031   0.00000   0.00281   0.00281   5.92607
   R11        2.65410   0.00161   0.00000   0.00346   0.00346   2.65756
   R12        2.04544   0.00031   0.00000   0.00088   0.00088   2.04632
   R13        2.65159   0.00168   0.00000   0.00361   0.00361   2.65519
   R14        2.54621   0.00466   0.00000   0.00837   0.00837   2.55459
   R15        2.05114   0.00025   0.00000   0.00071   0.00071   2.05185
   R16        5.00284   0.00016   0.00000  -0.00020  -0.00020   5.00264
   R17        1.82024   0.00123   0.00000   0.00224   0.00224   1.82247
    A1        2.10256   0.00009   0.00000   0.00006   0.00005   2.10261
    A2        2.08383  -0.00005   0.00000   0.00037   0.00037   2.08420
    A3        2.09665  -0.00004   0.00000  -0.00046  -0.00046   2.09619
    A4        2.03849  -0.00014   0.00000  -0.00022  -0.00022   2.03828
    A5        1.66530   0.00023   0.00000   0.00015   0.00015   1.66544
    A6        2.07872  -0.00010   0.00000  -0.00026  -0.00026   2.07845
    A7        2.09413   0.00004   0.00000  -0.00003  -0.00003   2.09410
    A8        2.09565   0.00008   0.00000   0.00011   0.00011   2.09576
    A9        2.10584   0.00009   0.00000   0.00015   0.00015   2.10600
   A10        2.08178  -0.00008   0.00000   0.00008   0.00008   2.08187
   A11        2.09543  -0.00002   0.00000  -0.00026  -0.00026   2.09517
   A12        2.03283  -0.00015   0.00000  -0.00028  -0.00028   2.03254
   A13        1.70066   0.00021   0.00000   0.00016   0.00016   1.70082
   A14        2.08639  -0.00027   0.00000  -0.00095  -0.00095   2.08544
   A15        2.12718  -0.00014   0.00000  -0.00123  -0.00123   2.12595
   A16        2.06960   0.00041   0.00000   0.00218   0.00218   2.07177
   A17        2.10393   0.00046   0.00000   0.00186   0.00186   2.10579
   A18        2.04245  -0.00006   0.00000  -0.00025  -0.00026   2.04220
   A19        2.13679  -0.00040   0.00000  -0.00160  -0.00160   2.13519
   A20        2.08840  -0.00027   0.00000  -0.00089  -0.00089   2.08751
   A21        2.10347   0.00011   0.00000   0.00026   0.00026   2.10373
   A22        2.09130   0.00016   0.00000   0.00063   0.00063   2.09192
   A23        1.92403   0.00124   0.00000   0.00772   0.00772   1.93175
   A24        0.80409   0.00055   0.00000   0.00120   0.00120   0.80528
   A25        0.76019   0.00035   0.00000   0.00076   0.00076   0.76095
   A26        0.74958   0.00034   0.00000   0.00073   0.00073   0.75032
    D1        0.03423  -0.00004   0.00000   0.00135   0.00135   0.03558
    D2        2.99271   0.00009   0.00000   0.00019   0.00019   2.99289
    D3       -3.12612  -0.00013   0.00000  -0.00035  -0.00035  -3.12648
    D4       -0.16764   0.00001   0.00000  -0.00151  -0.00151  -0.16916
    D5       -0.01380  -0.00002   0.00000  -0.00088  -0.00088  -0.01469
    D6        3.12156  -0.00007   0.00000  -0.00127  -0.00127   3.12029
    D7       -3.13650   0.00006   0.00000   0.00082   0.00082  -3.13568
    D8       -0.00113   0.00001   0.00000   0.00043   0.00043  -0.00070
    D9       -1.13738   0.00023   0.00000   0.00047   0.00047  -1.13691
   D10        1.99799   0.00018   0.00000   0.00008   0.00008   1.99807
   D11        1.36723  -0.00004   0.00000  -0.00030  -0.00030   1.36693
   D12        2.45795  -0.00008   0.00000  -0.00039  -0.00039   2.45756
[...]
    R5        2.67227  -0.00009   0.00000  -0.00014  -0.00014   2.67213
    R6        2.04122   0.00000   0.00000  -0.00002  -0.00002   2.04120
    R7        4.85134  -0.00001   0.00000  -0.00494  -0.00494   4.84640
    R8        2.60366  -0.00005   0.00000  -0.00004  -0.00004   2.60362
    R9        2.04621  -0.00001   0.00000  -0.00003  -0.00003   2.04618
   R10        5.92571  -0.00005   0.00000  -0.00643  -0.00643   5.91928
   R11        2.65636  -0.00016   0.00000  -0.00052  -0.00052   2.65583
   R12        2.04614  -0.00005   0.00000  -0.00014  -0.00014   2.04600
   R13        2.65449  -0.00018   0.00000  -0.00045  -0.00045   2.65405
   R14        2.55609   0.00037   0.00000   0.00109   0.00109   2.55718
   R15        2.05151  -0.00003   0.00000  -0.00011  -0.00011   2.05140
   R16        5.00227  -0.00001   0.00000  -0.00175  -0.00175   5.00052
   R17        1.82236  -0.00002   0.00000  -0.00004  -0.00004   1.82232
    A1        2.10239  -0.00001   0.00000  -0.00004  -0.00004   2.10235
    A2        2.08446   0.00001   0.00000  -0.00004  -0.00004   2.08441
    A3        2.09614   0.00000   0.00000   0.00009   0.00009   2.09623
    A4        2.03815   0.00000   0.00000  -0.00079  -0.00079   2.03736
    A5        1.66563   0.00000   0.00000   0.00136   0.00136   1.66699
    A6        2.07865   0.00000   0.00000   0.00007   0.00007   2.07873
    A7        2.09387   0.00000   0.00000  -0.00015  -0.00015   2.09372
    A8        2.09555   0.00000   0.00000  -0.00012  -0.00012   2.09544
    A9        2.10600  -0.00002   0.00000  -0.00011  -0.00011   2.10588
   A10        2.08206   0.00001   0.00000  -0.00004  -0.00004   2.08202
   A11        2.09496   0.00002   0.00000   0.00015   0.00015   2.09512
   A12        2.03245  -0.00001   0.00000  -0.00059  -0.00059   2.03185
   A13        1.70097   0.00000   0.00000   0.00017   0.00017   1.70115
   A14        2.08450  -0.00002   0.00000  -0.00017  -0.00017   2.08432
   A15        2.12564  -0.00001   0.00000  -0.00010  -0.00010   2.12554
   A16        2.07302   0.00003   0.00000   0.00028   0.00028   2.07330
   A17        2.10751   0.00007   0.00000   0.00046   0.00046   2.10797
   A18        2.04067  -0.00001   0.00000  -0.00009  -0.00009   2.04058
   A19        2.13500  -0.00007   0.00000  -0.00037  -0.00037   2.13463
   A20        2.08671  -0.00003   0.00000  -0.00023  -0.00023   2.08649
   A21        2.10390   0.00000   0.00000   0.00000   0.00000   2.10390
   A22        2.09256   0.00002   0.00000   0.00023   0.00023   2.09279
   A23        1.92843  -0.00003   0.00000  -0.00045  -0.00045   1.92798
   A24        0.80543  -0.00002   0.00000   0.00071   0.00071   0.80614
   A25        0.76097  -0.00001   0.00000   0.00039   0.00039   0.76136
   A26        0.75034  -0.00001   0.00000   0.00072   0.00072   0.75107
    D1        0.03656   0.00001   0.00000   0.00059   0.00059   0.03715
    D2        2.99240  -0.00001   0.00000  -0.00058  -0.00058   2.99181
    D3       -3.12602   0.00001   0.00000   0.00069   0.00069  -3.12533
    D4       -0.17018   0.00000   0.00000  -0.00049  -0.00049  -0.17067
    D5       -0.01493   0.00000   0.00000  -0.00019  -0.00019  -0.01512
    D6        3.12018   0.00000   0.00000   0.00020   0.00020   3.12038
    D7       -3.13540  -0.00001   0.00000  -0.00028  -0.00028  -3.13568
    D8       -0.00028   0.00000   0.00000   0.00010   0.00010  -0.00018
    D9       -1.13652   0.00000   0.00000   0.00103   0.00103  -1.13549
   D10        1.99859   0.00000   0.00000   0.00142   0.00142   2.00001
   D11        1.36683   0.00000   0.00000  -0.00016  -0.00016   1.36667
   D12        2.45738   0.00000   0.00000   0.00027   0.00027   2.45765
   D13       -2.68661   0.00000   0.00000   0.00051   0.00051  -2.68610
   D14       -1.59605   0.00000   0.00000   0.00094   0.00094  -1.59511
   D15       -0.03506  -0.00001   0.00000  -0.00064  -0.00064  -0.03569
   D16        3.12608  -0.00001   0.00000  -0.00057  -0.00057   3.12552
   D17       -2.99071   0.00000   0.00000   0.00055   0.00055  -2.99016
   D18        0.17043   0.00000   0.00000   0.00061   0.00061   0.17104
   D19        0.01186   0.00001   0.00000   0.00027   0.00027   0.01213
   D20       -3.12280   0.00000   0.00000   0.00010   0.00010  -3.12269
   D21        3.13376   0.00001   0.00000   0.00020   0.00020   3.13396
   D22       -0.00089   0.00000   0.00000   0.00003   0.00003  -0.00086
   D23        1.09050   0.00000   0.00000   0.00036   0.00036   1.09086
   D24       -2.04416   0.00000   0.00000   0.00019   0.00019  -2.04396
   D25       -1.35003   0.00001   0.00000  -0.00041  -0.00041  -1.35044
   D26       -2.46284   0.00001   0.00000  -0.00011  -0.00011  -2.46295
   D27        2.68221   0.00000   0.00000  -0.00039  -0.00039   2.68182
   D28        1.56939   0.00000   0.00000  -0.00009  -0.00009   1.56930
   D29        0.01038   0.00000   0.00000   0.00014   0.00014   0.01052
   D30       -3.13351   0.00000   0.00000   0.00006   0.00006  -3.13345
   D31       -3.13794   0.00001   0.00000   0.00031   0.00031  -3.13764
   D32        0.00135   0.00001   0.00000   0.00022   0.00022   0.00158
   D33       -0.00883   0.00000   0.00000  -0.00019  -0.00019  -0.00902
   D34        3.13919  -0.00001   0.00000  -0.00057  -0.00057   3.13862
   D35        3.13518   0.00000   0.00000  -0.00010  -0.00010   3.13509
   D36        0.00002  -0.00001   0.00000  -0.00048  -0.00048  -0.00046
   D37        3.11262  -0.00001   0.00000  -0.00153  -0.00153   3.11109
   D38       -0.03131  -0.00001   0.00000  -0.00162  -0.00162  -0.03292
         Item               Value     Threshold  Converged?
 Maximum Force            0.000368     0.000450     YES
 RMS     Force            0.000054     0.000300     YES
 Maximum Displacement     0.006259     0.001800     NO 
 RMS     Displacement     0.000890     0.001200     YES
 Predicted change in Energy=-6.475901D-07
 GradGradGradGradGradGradGradGradGradGradGradGradGradGradGradGradGradGrad

 Leave Link  103 at Fri Sep  1 21:03:53 2006, MaxMem=    6291456 cpu:       0.2
 (Enter /usr/local/Gaussian/g03/l9999.exe)
 1\1\GINC-PUBLIX\Freq\UB3LYP\6-311+G(d,p)\C6H6Cl1O1(2)\NOBODY\01-Sep-20
 06\0\\#P GEOM=ALLCHECK GUESS=READ SCRF=CHECK GENCHK UB3LYP/6-311+G(D,P
 ) FREQ\\phenol/cl comlex basis\\0,2\C,-1.019502133,0.6511819247,-0.789
 0374429\C,-1.0190693581,0.6494758544,0.62371672\C,0.2167666063,0.65098
 91621,1.3110287878\C,1.4066220488,0.6125471612,0.6174226583\C,1.386440
 9162,0.5860088484,-0.7878654897\C,0.1696668362,0.6107844491,-1.4893074
 054\H,-1.9625404497,0.6647215022,-1.320727421\H,-1.9388691477,0.819900
 3554,1.1637923242\H,0.2208115876,0.6643331683,2.3937466775\H,2.3627011
 269,0.5957107857,1.1253804105\O,2.5830417108,0.5389138029,-1.416770591
 3\H,0.1703794874,0.5920317463,-2.5747569837\Cl,-1.6954766469,-1.806575
 5964,0.94137859\H,2.4607372064,0.4978527582,-2.3724532763\\Version=Sun
 64-SVR4-Unix-G03RevB.04\State=2-A\HF=-767.7465737\S2=0.757451\S2-1=0.\
 S2A=0.750039\RMSD=3.911e-09\RMSF=1.236e-04\Dipole=0.8123642,1.4495743,
 -1.0760542\DipoleDeriv=0.3578553,0.2200671,-0.1766554,0.0642397,-0.118
 5612,0.003623,-0.3434834,-0.5623498,0.3061582,-0.1255727,-0.235403,0.0
 050797,-0.1160098,-0.1518867,0.0691793,0.0365223,0.1958106,-0.1550188,
 0.4893999,0.5363374,-0.213121,0.0270878,-0.1248421,-0.0583369,-0.05644
 98,0.0776883,0.1441813,-0.1935039,-0.175614,0.1623495,0.0236674,-0.090
 0454,-0.028075,0.6517223,0.398019,-0.4550084,1.5934717,0.3572639,-0.78
 11002,-0.0758348,0.1013723,0.0442876,-0.7913353,-0.2068057,0.7348044,-
 0.7813427,-0.4323464,0.3666669,0.0334723,-0.1027209,-0.005185,-0.14980
 26,-0.0367722,0.076379,0.0108265,0.0232277,-0.0530642,-0.0250294,0.106
 9805,0.0058866,-0.0404123,0.0197394,0.043457,0.0536627,0.0459249,0.009
 1413,0.0411931,0.1473832,-0.0246954,0.0090605,-0.0279972,0.0655576,0.0
 767856,-0.00581,-0.0023487,-0.017093,0.1091822,0.016352,-0.0188778,-0.
 0304974,-0.0251479,-0.0108111,-0.0098484,-0.036071,0.0070977,0.1530301
 ,0.004935,-0.0418425,0.0003244,0.0615354,-1.5001464,-0.3459369,0.80541
 79,0.0474399,-0.3317071,-0.0212622,0.8643592,0.2416711,-0.7115897,0.05
 18273,-0.0076724,0.0390287,-0.0004613,0.1526448,-0.010383,0.0418861,0.
 0129188,-0.0880093,-0.31951,0.0251805,0.0158834,-0.0028679,-0.1796745,
 0.0038344,0.012203,-0.0156121,-0.3019925,0.2970579,0.0046298,-0.141206
 9,-0.0069017,0.3288449,-0.0001605,-0.1735499,-0.0661372,0.3046936\Pola
 r=125.3253211,37.7345921,102.3163411,-23.2394515,-21.1223068,100.66781
 4\PG=C01 [X(C6H6Cl1O1)]\NImag=0\\0.73969353,-0.01775394,0.13386312,0.0
 2183318,0.00612076,0.64964682,-0.11968312,0.00966804,0.01551475,0.6824
 3819,0.00924363,-0.05394848,-0.01635224,-0.06521875,0.11561369,-0.0251
 7796,0.00173526,-0.30109347,-0.04925311,0.03761868,0.63113458,0.023642
 66,-0.00375099,-0.05528424,-0.25089178,0.01780396,-0.05656600,0.656492
 54,-0.00011119,0.00603241,0.00337479,0.00271721,-0.05630655,-0.0086831
 8,-0.01236393,0.13692891,-0.03141432,-0.00149891,-0.02473637,-0.098802
 17,0.00019655,-0.16661930,-0.03181398,0.01227788,0.73851642,-0.0128751
 2,0.00061403,0.02066556,-0.05256254,-0.00258776,-0.00828322,-0.3131365
 8,0.00871184,0.13377201,0.76413962,0.00045826,-0.00103452,-0.00177174,
 0.00157468,0.00640857,0.00251431,0.00666853,-0.05600919,-0.00566630,-0
 .01518404,0.12213772,0.02083125,-0.00051627,-0.03823609,0.01537354,0.0
 0708738,0.04498091,0.07710344,-0.00708427,-0.18817425,0.01245757,0.007
 66477,0.65310923,-0.06483016,-0.00080433,0.02722159,-0.00691672,0.0035
 2846,-0.02209795,0.02654908,0.00069579,0.03149306,-0.12375446,0.001502
 23,0.00774729,0.66671265,0.00193230,-0.00077918,0.00009903,-0.00067709
 ,-0.00653669,0.00029062,0.00101931,-0.00006373,-0.00154953,0.00034520,
 -0.06570100,-0.00469020,-0.01508181,0.15620828,-0.02215392,-0.00134706
 ,0.06151474,-0.02102446,-0.00154020,-0.03270333,0.07641899,0.00119386,
 -0.02995513,-0.06510931,-0.00118123,-0.28378569,-0.00789395,0.01155029
 ,0.67846414,-0.29880416,0.01167523,0.07527645,0.01756376,-0.00802017,0
 .05483567,-0.04922983,0.00067378,-0.00027614,0.02929060,-0.00185056,-0
 .06069331,-0.22448766,0.00396441,-0.03861585,0.65564566,0.00838806,-0.
 05451365,-0.00324511,-0.00134000,0.00644528,-0.00222240,0.00182812,-0.
 00155240,0.00032228,-0.00160999,0.00623047,0.00130999,0.00141845,-0.06
 235572,-0.00211577,-0.01354674,0.11537183,0.13427670,-0.00489561,-0.18
 835698,0.03041905,-0.00110357,-0.02685649,0.00081550,-0.00022170,-0.00
 128109,-0.02753375,0.00080929,-0.01962081,-0.11898597,0.00126585,-0.18
 812094,-0.03218741,0.01078064,0.73483295,-0.27414369,0.00395113,-0.121
 19670,0.00449319,-0.00018273,0.00233894,0.00128686,0.00007168,0.000688
 79,0.00018448,-0.00003179,0.00053619,-0.00213479,0.00023636,0.00367124
 ,-0.01769698,0.00024154,-0.01457983,0.28773172,0.00340831,-0.03793846,
 -0.00064772,0.00033408,0.00277894,0.00090372,-0.00015456,0.00521847,0.
 00005412,0.00004350,-0.00119690,-0.00028716,0.00083615,0.00840332,0.00
 010620,0.00031835,0.00532890,0.00069421,-0.00409305,0.02501552,-0.1214
 3543,0.00186343,-0.12661703,-0.02832280,0.00060366,-0.01057590,0.00110
 494,0.00010684,-0.00585244,0.00074444,-0.00001848,-0.00034381,0.002911
 71,-0.00034427,-0.00154059,0.01605022,-0.00043478,0.01153807,0.1292568
 6,-0.00137470,0.13124333,0.00449574,-0.00163107,-0.00148584,-0.2677613
 9,0.04367609,0.12321246,-0.01826255,0.00336338,0.01482554,-0.00250257,
 0.00066208,-0.00411718,-0.00063487,-0.00004683,-0.00089329,0.00210345,
 0.00079148,-0.00084728,0.00050248,-0.00056128,0.00028489,0.28116655,-0
 .00151855,0.00248096,0.00309621,0.04580688,-0.03504757,-0.02653583,-0.
 00334336,0.00277324,-0.00036866,0.00051124,0.00462665,-0.00085601,-0.0
 0051467,-0.00021222,0.00017946,0.00109864,0.00473105,0.00001451,-0.000
 09575,-0.00275153,-0.00010206,-0.04289067,0.03644087,0.02764457,-0.004
 82027,-0.01121414,0.12311037,-0.02569708,-0.13017211,-0.01425813,0.003
 84760,0.01197322,-0.00343286,-0.00049263,-0.00062504,-0.00074778,0.000
 05176,-0.00165330,-0.00149339,-0.00038437,-0.00509834,-0.00028107,0.00
 045369,0.00099469,-0.13127325,0.02529507,0.13462376,-0.00492356,-0.000
 05590,-0.00242298,0.00391082,-0.00056675,-0.02858789,-0.05845070,0.000
 31592,-0.00106230,0.00409839,0.00042589,0.02840156,-0.00433901,0.00037
 134,0.00160239,-0.00074132,0.00000998,0.00026997,0.00011003,0.00002608
 ,-0.00139231,0.00086203,0.00002014,0.00049458,0.05850078,-0.00006409,0
 .00518202,0.00008720,-0.00062294,0.00287676,-0.00087068,0.00192071,-0.
 03886856,-0.00265717,-0.00029483,0.00546489,-0.00067677,0.00037391,0.0
 0883907,-0.00072464,0.00016684,-0.00109139,0.00008679,0.00003441,0.000
 46005,-0.00000765,-0.00063533,-0.00270310,0.00025232,-0.00077738,0.025
 45407,-0.00275526,-0.00008987,0.00034952,0.00207883,-0.00014843,-0.010
 10755,-0.00075242,-0.00422031,-0.34166780,-0.00233527,-0.00003553,-0.0
 1034308,0.00218662,-0.00005651,0.00081318,0.00009721,0.00003509,0.0006
 2120,0.00019198,-0.00002503,-0.00055197,-0.00007962,0.00012030,0.00061
 400,0.00107492,0.00421451,0.36018181,0.00024297,-0.00003925,0.00036940
 ,-0.00242254,0.00064481,0.00380205,-0.01753548,-0.00001412,-0.01409292
 ,-0.27629198,0.00438979,-0.11985800,0.00187481,0.00006596,0.00217750,0
 .00098946,0.00009813,0.00075969,-0.00002591,-0.00000205,-0.00006926,-0
 .00077924,-0.00003889,-0.00075401,0.00095213,-0.00020249,0.00008353,0.
 29172344,0.00012112,-0.00100947,-0.00013954,-0.00030879,0.00809056,0.0
 0005269,0.00094004,0.00329777,0.00075956,0.00483627,-0.03501213,0.0015
 4097,-0.00031875,0.00413619,0.00005487,-0.00012106,0.00466658,-0.00032
 424,0.00000034,-0.00064199,-0.00000774,-0.00010614,0.00011106,-0.00033
 622,-0.00011266,-0.00485711,-0.00002079,-0.00491754,0.02429125,0.00100
 358,0.00004677,-0.00062046,0.00333674,-0.00028338,-0.00137285,0.015691
 99,-0.00004990,0.01252599,-0.11797510,0.00149288,-0.12298902,-0.029971
 55,0.00065703,-0.01037274,0.00135671,-0.00023176,-0.00542339,-0.000058
 33,0.00000597,0.00007836,0.00075970,-0.00005095,0.00045878,-0.00044144
 ,0.00012499,0.00080255,0.12753110,-0.00174705,0.12472349,0.00439677,0.
 00076337,-0.01217229,-0.00402242,-0.00137655,0.00379697,0.00428877,0.0
 0039736,-0.00426476,-0.00589180,0.00169512,0.02185305,-0.27198810,0.00
 659333,0.05499049,-0.05933400,0.00326181,0.02795256,-0.00140076,-0.000
 08841,0.00123219,0.00057292,0.00029197,-0.00011273,0.00013667,-0.00014
 438,-0.00013486,0.00076069,-0.00028456,-0.00006486,0.38603280,0.000105
 72,0.00697856,0.00024748,0.00034724,-0.00104581,-0.00025632,-0.0001473
 0,0.00429781,-0.00020207,0.00169516,0.00604993,-0.00124358,0.00954599,
 -0.04252323,-0.00546933,0.00176793,0.01083362,-0.00103329,0.00000417,-
 0.00072826,0.00003180,-0.00011198,-0.00046046,0.00004149,0.00003502,-0
 .00004123,-0.00001170,-0.00007165,-0.00280815,0.00007424,-0.00933195,0
 .02949075,-0.00201906,-0.00029736,-0.00363202,0.00409293,0.00101695,0.
 00118252,-0.01227667,-0.00071222,-0.00361501,0.05745990,-0.00314602,-0
 .03926577,0.10544376,-0.00596677,-0.14951319,-0.00860463,-0.00002292,0
 .01273306,-0.00062389,0.00009307,0.00036593,-0.00010762,-0.00015868,0.
 00060986,0.00162654,0.00009149,-0.00073202,-0.00009784,0.00014960,0.00
 239913,-0.04467970,0.02922196,0.67352124,0.00486270,0.00012536,0.02884
 870,-0.00480529,0.00055303,0.00206421,-0.00100965,-0.00006462,0.000399
 90,-0.00469306,0.00021842,-0.00222545,0.00249790,-0.00057913,-0.026993
 98,-0.05857103,0.00091330,-0.00286067,0.00095258,-0.00019846,-0.000375
 63,0.00017796,0.00001795,0.00133329,0.00010876,-0.00000789,0.00001382,
 0.00022413,-0.00004575,-0.00133747,0.00333008,-0.00019129,-0.00102852,
 0.05759098,-0.00029750,0.00296963,-0.00133526,-0.00015143,0.00759343,0
 .00023056,0.00020067,-0.00091212,-0.00001375,0.00020505,0.00474467,0.0
 0027166,0.00004644,0.00287649,0.00020437,0.00099824,-0.03232862,-0.005
 37973,-0.00002350,-0.00456588,0.00012588,0.00023627,0.00020389,0.00022
 782,0.00000384,-0.00067444,-0.00000110,0.00000296,0.00024319,0.0000492
 0,-0.00037030,-0.00321172,0.00038906,-0.00098532,0.02244773,-0.0018854
 1,0.00000808,-0.01197561,0.00302853,-0.00047481,0.00090489,-0.00029730
 ,0.00001695,0.00052884,-0.00294838,0.00004177,0.00072981,0.00586478,-0
 .00046991,-0.01390607,-0.00278660,-0.00502831,-0.33100029,0.00007140,0
 .00012457,0.00082724,-0.00025131,0.00006771,-0.00062990,-0.00000367,0.
 00000365,-0.00006539,0.00015808,-0.00004084,-0.00064796,-0.00021899,0.
 00010826,0.00308850,0.00132371,0.00562650,0.35221556,-0.00146642,-0.00
 263943,0.00279469,0.00041998,0.00251467,0.00019654,-0.00477737,-0.0044
 5850,-0.00066911,0.00020801,-0.00088816,0.00072566,-0.00067359,-0.0000
 0723,-0.00202292,0.00161658,-0.00044140,-0.00021296,0.00001249,0.00011
 738,0.00008036,0.00008260,0.00066245,-0.00005254,0.00012097,0.00025128
 ,0.00019936,0.00017679,0.00031923,-0.00002285,-0.00009246,-0.00003831,
 0.00044634,0.00008632,0.00012118,-0.00002577,0.00430568,-0.00388888,-0
 .00747763,0.01058429,0.00784920,0.00295366,-0.00479805,-0.01068748,-0.
 00638876,-0.00164945,0.00245496,-0.00037281,-0.00257393,-0.00066566,0.
 00043242,0.00057455,0.00314889,-0.00045290,-0.00083628,-0.00010104,0.0
 0047092,-0.00044370,-0.00274521,-0.01014408,0.00152798,0.00032468,0.00
 045780,0.00024021,0.00010893,0.00007471,-0.00009599,-0.00041340,0.0000
 2112,0.00026672,0.00014009,0.00010071,-0.00005762,0.00444567,0.0203392
 8,0.00085028,0.00343044,-0.00323660,0.00079197,-0.00062611,0.00070500,
 0.00018358,0.00005759,-0.00026985,-0.00098165,-0.00011831,0.00197469,-
 0.00229661,-0.00001010,-0.00345457,0.00231270,0.00083798,0.00035087,0.
 00020372,-0.00006600,0.00027986,-0.00012908,-0.00072507,0.00015957,0.0
 0015125,0.00010620,0.00014564,0.00004773,0.00005570,0.00005856,0.00038
 608,0.00004077,0.00037998,-0.00005939,-0.00028816,0.00016537,-0.001334
 45,-0.00264388,0.00266782,-0.00060813,-0.00012225,0.00003773,0.0002398
 6,-0.00001193,-0.00028069,0.00103404,0.00006539,0.00121639,-0.00621301
 ,0.00035955,0.00186439,0.00212493,0.00186387,0.04584708,0.00165545,-0.
 00001272,0.00271438,0.00012828,0.00001398,-0.00007019,-0.00002312,-0.0
 0000737,-0.00017704,-0.00034601,0.00000219,0.00013116,0.00011074,-0.00
 000175,0.00019177,-0.05678916,-0.00360876,-0.09963154,-0.00075239,0.00
 001339,-0.00202906,-0.00001958,0.00002925,-0.00012613,0.05945810,-0.00
 002327,-0.00080531,-0.00011813,0.00002167,0.00012422,0.00002061,0.0000
 6628,0.00155271,-0.00000454,0.00025938,0.00366367,0.00005341,-0.000562
 20,-0.00272400,-0.00148538,-0.00027377,-0.00131305,0.00014312,-0.00001
 177,0.00014690,0.00000177,-0.00000078,-0.00004875,0.00003286,-0.000020
 19,-0.00049882,-0.00000085,-0.00002458,-0.00058244,0.00000796,-0.00099
 340,-0.00685291,-0.02092489,0.00010431,0.00051304,0.00007400,0.0000411
 6,-0.00001445,-0.00005105,0.00141717,0.00683919,0.00040178,0.00026061,
 -0.00179232,-0.00034417,-0.00029738,0.00059311,-0.00006969,0.00009607,
 -0.00137323,0.00350006,-0.00009278,0.00258893,-0.00087499,-0.00082731,
 -0.02578650,-0.00527162,0.00039944,0.00568218,-0.00021929,-0.00003492,
 0.00015426,0.00010189,0.00002399,-0.00004106,0.00028936,-0.00003023,-0
 .00006011,-0.00005708,0.00000304,0.00037956,-0.04856314,-0.02154971,-0
 .49752221,0.00089749,-0.00010706,-0.00023498,-0.00010235,-0.00009487,0
 .00007367,0.05031176,0.02225111,0.51733870\\-0.00004855,0.00001681,-0.
 00004575,-0.00008728,0.00005496,0.00003447,0.00006628,0.00003037,0.000
 03733,-0.00003786,0.00002891,0.00014606,0.00055305,-0.00003793,-0.0003
 1859,-0.00013382,0.00001253,-0.00002972,-0.00001410,-0.00001657,-0.000
 00344,-0.00000393,0.00000145,0.00000886,0.00001460,0.00000213,0.000007
 73,0.00005258,0.00000050,-0.00000162,-0.00034025,-0.00000061,0.0001925
 3,0.00000337,-0.00002178,-0.00003240,-0.00003464,-0.00007624,0.0000297
 8,0.00001057,0.00000548,-0.00002522\\\@


 THERE'S NOTHING SO GREAT AS THE GREAT OUTDOORS.

                                       -- ZIGGY
 Job cpu time:  0 days  7 hours 20 minutes 25.3 seconds.
 File lengths (MBytes):  RWF=    162 Int=      0 D2E=      0 Chk=     13 Scr=      1
 Normal termination of Gaussian 03 at Fri Sep  1 21:03:55 2006.
