 Entering Gaussian System, Link 0=g03
 Input=./CH4.gau
 Output=./CH4.log
 Initial command:
 /opt//g03/l1.exe /scratch/Gau-13991.inp -scrdir=/scratch/
 Entering Link 1 = /opt//g03/l1.exe PID=     14008.
  
 Copyright (c) 1988,1990,1992,1993,1995,1998,2003,2004,2007, Gaussian, Inc.
                  All Rights Reserved.
  
 This is the Gaussian(R) 03 program.  It is based on the
 the Gaussian(R) 98 system (copyright 1998, Gaussian, Inc.),
 the Gaussian(R) 94 system (copyright 1995, Gaussian, Inc.),
 the Gaussian 92(TM) system (copyright 1992, Gaussian, Inc.),
 the Gaussian 90(TM) system (copyright 1990, Gaussian, Inc.),
 the Gaussian 88(TM) system (copyright 1988, Gaussian, Inc.),
 the Gaussian 86(TM) system (copyright 1986, Carnegie Mellon
 University), and the Gaussian 82(TM) system (copyright 1983,
 Carnegie Mellon University). Gaussian is a federally registered
 trademark of Gaussian, Inc.
  
 This software contains proprietary and confidential information,
 including trade secrets, belonging to Gaussian, Inc.
  
 This software is provided under written license and may be
 used, copied, transmitted, or stored only in accord with that
 written license.
  
 The following legend is applicable only to US Government
 contracts under FAR:
  
                    RESTRICTED RIGHTS LEGEND
  
 Use, reproduction and disclosure by the US Government is
 subject to restrictions as set forth in subparagraphs (a)
 and (c) of the Commercial Computer Software - Restricted
 Rights clause in FAR 52.227-19.
  
 Gaussian, Inc.
 340 Quinnipiac St., Bldg. 40, Wallingford CT 06492
  
  
 ---------------------------------------------------------------
 Warning -- This program may not be used in any manner that
 competes with the business of Gaussian, Inc. or will provide
 assistance to any competitor of Gaussian, Inc.  The licensee
 of this program is prohibited from giving any competitor of
 Gaussian, Inc. access to this program.  By using this program,
 the user acknowledges that Gaussian, Inc. is engaged in the
 business of creating and licensing software in the field of
 computational chemistry and represents and warrants to the
 licensee that it is not a competitor of Gaussian, Inc. and that
 it will not use this program in any manner prohibited above.
 ---------------------------------------------------------------
  

 Cite this work as:
 Gaussian 03, Revision E.01,
 M. J. Frisch, G. W. Trucks, H. B. Schlegel, G. E. Scuseria, 
 M. A. Robb, J. R. Cheeseman, J. A. Montgomery, Jr., T. Vreven, 
 K. N. Kudin, J. C. Burant, J. M. Millam, S. S. Iyengar, J. Tomasi, 
 V. Barone, B. Mennucci, M. Cossi, G. Scalmani, N. Rega, 
 G. A. Petersson, H. Nakatsuji, M. Hada, M. Ehara, K. Toyota, 
 R. Fukuda, J. Hasegawa, M. Ishida, T. Nakajima, Y. Honda, O. Kitao, 
 H. Nakai, M. Klene, X. Li, J. E. Knox, H. P. Hratchian, J. B. Cross, 
 V. Bakken, C. Adamo, J. Jaramillo, R. Gomperts, R. E. Stratmann, 
 O. Yazyev, A. J. Austin, R. Cammi, C. Pomelli, J. W. Ochterski, 
 P. Y. Ayala, K. Morokuma, G. A. Voth, P. Salvador, J. J. Dannenberg, 
 V. G. Zakrzewski, S. Dapprich, A. D. Daniels, M. C. Strain, 
 O. Farkas, D. K. Malick, A. D. Rabuck, K. Raghavachari, 
 J. B. Foresman, J. V. Ortiz, Q. Cui, A. G. Baboul, S. Clifford, 
 J. Cioslowski, B. B. Stefanov, G. Liu, A. Liashenko, P. Piskorz, 
 I. Komaromi, R. L. Martin, D. J. Fox, T. Keith, M. A. Al-Laham, 
 C. Y. Peng, A. Nanayakkara, M. Challacombe, P. M. W. Gill, 
 B. Johnson, W. Chen, M. W. Wong, C. Gonzalez, and J. A. Pople, 
 Gaussian, Inc., Wallingford CT, 2004.
 
 ******************************************
 Gaussian 03:  AM64L-G03RevE.01 11-Sep-2007
                30-Mar-2009 
 ******************************************
 %NProcShared=2
 Will use up to    2 processors via shared memory.
 ----------------------------------------------------------------------
 #p uB971/6-311+G(d,p) opt=(Tight, NewEstmFC, MaxCyc = 200) freq #GFInp
 ut Population=Regular #Integral(Grid=UltraFine) Guess=Mix NoSymmetry
 ----------------------------------------------------------------------
 1/6=200,7=10,10=7,14=-1,18=20,26=3,38=1/1,3;
 2/9=110,15=1,17=6,18=5,40=1/2;
 3/5=4,6=6,7=111,11=2,16=1,24=10,25=1,30=1,74=-20,75=5/1,2,3;
 4/7=2,9=2,13=1/1;
 5/5=2,38=5/2;
 6/28=1/1;
 7/29=1,30=1/1,2,3,16;
 1/6=200,10=7,14=-1,18=20/3(3);
 2/9=110,15=1/2;
 6/19=2,28=1/1;
 99//99;
 2/9=110,15=1/2;
 3/5=4,6=6,7=111,11=2,16=1,25=1,30=1,74=-20,75=5/1,2,3;
 4/5=5,7=2,9=2,16=3/1;
 5/5=2,38=5/2;
 7/30=1/1,2,3,16;
 1/6=200,14=-1,18=20/3(-5);
 2/9=110,15=1/2;
 6/19=2,28=1/1;
 99/9=1/99;
 Leave Link    1 at Mon Mar 30 15:42:29 2009, MaxMem=          0 cpu:       0.2
 (Enter /opt//g03/l101.exe)
 ---------------------------
 #NewComb uB971/6-311+G(d,p)
 ---------------------------
 Symbolic Z-matrix:
 Charge =  0 Multiplicity = 1
 C                     1.02054  -0.02666   5.03634 
 H                     1.15867   0.89102   5.60982 
 H                     1.81427  -0.11392   4.29305 
 H                     1.05637  -0.88472   5.70905 
 H                     0.05285   0.00098   4.53344 
 
                    Isotopes and Nuclear Properties:
 (Nuclear quadrupole moments (NQMom) in fm**2, nuclear magnetic moments (NMagM)
  in nuclear magnetons)

  Atom         1           2           3           4           5
 IAtWgt=          12           1           1           1           1
 AtmWgt=  12.0000000   1.0078250   1.0078250   1.0078250   1.0078250
 NucSpn=           0           1           1           1           1
 AtZEff=   0.0000000   0.0000000   0.0000000   0.0000000   0.0000000
 NQMom=    0.0000000   0.0000000   0.0000000   0.0000000   0.0000000
 NMagM=    0.0000000   2.7928460   2.7928460   2.7928460   2.7928460
 Leave Link  101 at Mon Mar 30 15:42:29 2009, MaxMem=    6291456 cpu:       0.1
 (Enter /opt//g03/l103.exe)

 GradGradGradGradGradGradGradGradGradGradGradGradGradGradGradGradGradGrad
 Berny optimization.
 Initialization pass.
                           ----------------------------
                           !    Initial Parameters    !
                           ! (Angstroms and Degrees)  !
 --------------------------                            --------------------------
 ! Name  Definition              Value          Derivative Info.                !
 --------------------------------------------------------------------------------
 ! R1    R(1,2)                  1.0909         estimate D2E/DX2                !
 ! R2    R(1,3)                  1.0909         estimate D2E/DX2                !
 ! R3    R(1,4)                  1.0909         estimate D2E/DX2                !
 ! R4    R(1,5)                  1.0909         estimate D2E/DX2                !
 ! A1    A(2,1,3)              109.4713         estimate D2E/DX2                !
 ! A2    A(2,1,4)              109.4708         estimate D2E/DX2                !
 ! A3    A(2,1,5)              109.4716         estimate D2E/DX2                !
 ! A4    A(3,1,4)              109.4715         estimate D2E/DX2                !
 ! A5    A(3,1,5)              109.471          estimate D2E/DX2                !
 ! A6    A(4,1,5)              109.4711         estimate D2E/DX2                !
 --------------------------------------------------------------------------------
 Trust Radius=3.00D-01 FncErr=1.00D-07 GrdErr=1.00D-06
 Number of steps in this run= 100 maximum allowed number of steps= 100.
 GradGradGradGradGradGradGradGradGradGradGradGradGradGradGradGradGradGrad

 Leave Link  103 at Mon Mar 30 15:42:29 2009, MaxMem=    6291456 cpu:       0.0
 (Enter /opt//g03/l202.exe)
                          Input orientation:                          
 ---------------------------------------------------------------------
 Center     Atomic     Atomic              Coordinates (Angstroms)
 Number     Number      Type              X           Y           Z
 ---------------------------------------------------------------------
    1          6             0        1.020540   -0.026660    5.036340
    2          1             0        1.158670    0.891020    5.609820
    3          1             0        1.814270   -0.113920    4.293050
    4          1             0        1.056370   -0.884720    5.709050
    5          1             0        0.052850    0.000980    4.533440
 ---------------------------------------------------------------------
                    Distance matrix (angstroms):
                    1          2          3          4          5
     1  C    0.000000
     2  H    1.090915   0.000000
     3  H    1.090918   1.781460   0.000000
     4  H    1.090912   1.781450   1.781460   0.000000
     5  H    1.090915   1.781461   1.781457   1.781453   0.000000
 Symmetry turned off by external request.
 Stoichiometry    CH4
 Framework group  C1[X(CH4)]
 Deg. of freedom     9
 Full point group                 C1
 Rotational constants (GHZ):    158.0094955    158.0090210    158.0080140
 Leave Link  202 at Mon Mar 30 15:42:30 2009, MaxMem=    6291456 cpu:       0.1
 (Enter /opt//g03/l301.exe)
 Standard basis: 6-311+G(d,p) (5D, 7F)
 AO basis set in the form of general basis input:
      1 0
 S   6 1.00       0.000000000000
      0.4563240000D+04  0.1966650249D-02
      0.6820240000D+03  0.1523060193D-01
      0.1549730000D+03  0.7612690966D-01
      0.4445530000D+02  0.2608010331D+00
      0.1302900000D+02  0.6164620782D+00
      0.1827730000D+01  0.2210060280D+00
 SP   3 1.00       0.000000000000
      0.2096420000D+02  0.1146600807D+00  0.4024869267D-01
      0.4803310000D+01  0.9199996477D+00  0.2375939567D+00
      0.1459330000D+01 -0.3030682134D-02  0.8158538515D+00
 SP   1 1.00       0.000000000000
      0.4834560000D+00  0.1000000000D+01  0.1000000000D+01
 SP   1 1.00       0.000000000000
      0.1455850000D+00  0.1000000000D+01  0.1000000000D+01
 SP   1 1.00       0.000000000000
      0.4380000000D-01  0.1000000000D+01  0.1000000000D+01
 D   1 1.00       0.000000000000
      0.6260000000D+00  0.1000000000D+01
 ****
      2 0
 S   3 1.00       0.000000000000
      0.3386500000D+02  0.2549381454D-01
      0.5094790000D+01  0.1903731086D+00
      0.1158790000D+01  0.8521614860D+00
 S   1 1.00       0.000000000000
      0.3258400000D+00  0.1000000000D+01
 S   1 1.00       0.000000000000
      0.1027410000D+00  0.1000000000D+01
 P   1 1.00       0.000000000000
      0.7500000000D+00  0.1000000000D+01
 ****
      3 0
 S   3 1.00       0.000000000000
      0.3386500000D+02  0.2549381454D-01
      0.5094790000D+01  0.1903731086D+00
      0.1158790000D+01  0.8521614860D+00
 S   1 1.00       0.000000000000
      0.3258400000D+00  0.1000000000D+01
 S   1 1.00       0.000000000000
      0.1027410000D+00  0.1000000000D+01
 P   1 1.00       0.000000000000
      0.7500000000D+00  0.1000000000D+01
 ****
      4 0
 S   3 1.00       0.000000000000
      0.3386500000D+02  0.2549381454D-01
      0.5094790000D+01  0.1903731086D+00
      0.1158790000D+01  0.8521614860D+00
 S   1 1.00       0.000000000000
      0.3258400000D+00  0.1000000000D+01
 S   1 1.00       0.000000000000
      0.1027410000D+00  0.1000000000D+01
 P   1 1.00       0.000000000000
      0.7500000000D+00  0.1000000000D+01
 ****
      5 0
 S   3 1.00       0.000000000000
      0.3386500000D+02  0.2549381454D-01
      0.5094790000D+01  0.1903731086D+00
      0.1158790000D+01  0.8521614860D+00
 S   1 1.00       0.000000000000
      0.3258400000D+00  0.1000000000D+01
 S   1 1.00       0.000000000000
      0.1027410000D+00  0.1000000000D+01
 P   1 1.00       0.000000000000
      0.7500000000D+00  0.1000000000D+01
 ****

 Integral buffers will be    131072 words long.
 Raffenetti 2 integral format.
 Two-electron integral symmetry is turned off.
    46 basis functions,    68 primitive gaussians,    47 cartesian basis functions
     5 alpha electrons        5 beta electrons
       nuclear repulsion energy        13.4241187687 Hartrees.
 IExCor=1614 DFT=T Ex=B97-1+HF Corr=B97-1 ExCW=0 ScaHFX=  0.210000
 ScaDFX=  1.000000  1.000000  1.000000  1.000000
 IRadAn=      5 IRanWt=     -1 IRanGd=            0 ICorTp=0
 NAtoms=    5 NActive=    5 NUniq=    5 SFac= 7.50D-01 NAtFMM=   80 NAOKFM=F Big=F
 Leave Link  301 at Mon Mar 30 15:42:30 2009, MaxMem=    6291456 cpu:       0.0
 (Enter /opt//g03/l302.exe)
 NPDir=0 NMtPBC=     1 NCelOv=     1 NCel=       1 NClECP=     1 NCelD=      1
         NCelK=      1 NCelE2=     1 NClLst=     1 CellRange=     0.0.
 One-electron integrals computed using PRISM.
 NBasis=    46 RedAO= T  NBF=    46
 NBsUse=    46 1.00D-06 NBFU=    46
 Precomputing XC quadrature grid using
 IXCGrd= 2 IRadAn=           5 IRanWt=          -1 IRanGd=           0.
 NRdTot=     418 NPtTot=      112448 NUsed=      115395 NTot=      115427
 NSgBfM=    47    47    47    47.
 Leave Link  302 at Mon Mar 30 15:42:30 2009, MaxMem=    6291456 cpu:       0.3
 (Enter /opt//g03/l303.exe)
 DipDrv:  MaxL=1.
 Leave Link  303 at Mon Mar 30 15:42:30 2009, MaxMem=    6291456 cpu:       0.0
 (Enter /opt//g03/l401.exe)
 SCF N**3 symmetry information disabled.
 Harris functional with IExCor= 1614 diagonalized for initial guess.
 ExpMin= 4.38D-02 ExpMax= 4.56D+03 ExpMxC= 6.82D+02 IAcc=3 IRadAn=         5 AccDes= 0.00D+00
 HarFok:  IExCor=1614 AccDes= 0.00D+00 IRadAn=         5 IDoV=1
 ScaDFX=  1.000000  1.000000  1.000000  1.000000
 Harris En= -39.1962205019986    
 <S**2> of initial guess= 1.0000
 Leave Link  401 at Mon Mar 30 15:42:31 2009, MaxMem=    6291456 cpu:       1.1
 (Enter /opt//g03/l502.exe)
 UHF open shell SCF:
 Requested convergence on RMS density matrix=1.00D-08 within 128 cycles.
 Requested convergence on MAX density matrix=1.00D-06.
 Requested convergence on             energy=1.00D-06.
 No special actions if energy rises.
 Using DIIS extrapolation, IDIIS=  1040.
 Two-electron integral symmetry not used.
       115394 words used for storage of precomputed grid.
 Keep R1 and R2 integrals in memory in canonical form, NReq=     3100301.
 IEnd=    140737 IEndB=    140737 NGot=   6291456 MDV=   4896090
 LenX=   4896090
 Symmetry not used in FoFDir.
 MinBra= 0 MaxBra= 2 Meth= 1.
 IRaf=       0 NMat=   1 IRICut=       1 DoRegI=T DoRafI=F ISym2E= 0 JSym2E=0.

 Cycle   1  Pass 1  IDiag  1:
 E= -40.1013503559180    
 DIIS: error= 9.04D-02 at cycle   1 NSaved=   1.
 NSaved= 1 IEnMin= 1 EnMin= -40.1013503559180     IErMin= 1 ErrMin= 9.04D-02
 ErrMax= 9.04D-02 EMaxC= 1.00D-01 BMatC= 4.55D-01 BMatP= 4.55D-01
 IDIUse=3 WtCom= 9.57D-02 WtEn= 9.04D-01
 Coeff-Com:  0.100D+01
 Coeff-En:   0.100D+01
 Coeff:      0.100D+01
 Gap=     0.053 Goal=   None    Shift=    0.000
 Gap=     0.052 Goal=   None    Shift=    0.000
 GapD=    0.052 DampG=0.500 DampE=0.500 DampFc=0.2500 IDamp=-1.
 Damping current iteration by 2.50D-01
 RMSDP=4.51D-02 MaxDP=1.62D+00              OVMax= 6.14D-01

 Cycle   2  Pass 1  IDiag  1:
 E= -40.2026596279920     Delta-E=       -0.101309272074 Rises=F Damp=T
 DIIS: error= 6.67D-02 at cycle   2 NSaved=   2.
 NSaved= 2 IEnMin= 2 EnMin= -40.2026596279920     IErMin= 2 ErrMin= 6.67D-02
 ErrMax= 6.67D-02 EMaxC= 1.00D-01 BMatC= 2.39D-01 BMatP= 4.55D-01
 IDIUse=3 WtCom= 3.33D-01 WtEn= 6.67D-01
 Coeff-Com: -0.210D+01 0.310D+01
 Coeff-En:   0.000D+00 0.100D+01
 Coeff:     -0.699D+00 0.170D+01
 Gap=     0.408 Goal=   None    Shift=    0.000
 Gap=     0.409 Goal=   None    Shift=    0.000
 RMSDP=3.41D-02 MaxDP=1.22D+00 DE=-1.01D-01 OVMax= 4.62D-02

 Cycle   3  Pass 1  IDiag  1:
 E= -40.5075680235506     Delta-E=       -0.304908395559 Rises=F Damp=F
 DIIS: error= 5.89D-03 at cycle   3 NSaved=   3.
 NSaved= 3 IEnMin= 3 EnMin= -40.5075680235506     IErMin= 3 ErrMin= 5.89D-03
 ErrMax= 5.89D-03 EMaxC= 1.00D-01 BMatC= 7.29D-03 BMatP= 2.39D-01
 IDIUse=3 WtCom= 9.41D-01 WtEn= 5.89D-02
 Coeff-Com:  0.192D+00-0.260D+00 0.107D+01
 Coeff-En:   0.000D+00 0.000D+00 0.100D+01
 Coeff:      0.181D+00-0.244D+00 0.106D+01
 Gap=     0.409 Goal=   None    Shift=    0.000
 Gap=     0.409 Goal=   None    Shift=    0.000
 RMSDP=1.43D-03 MaxDP=1.37D-02 DE=-3.05D-01 OVMax= 3.75D-02

 Cycle   4  Pass 1  IDiag  1:
 E= -40.5108832142420     Delta-E=       -0.003315190691 Rises=F Damp=F
 DIIS: error= 2.39D-03 at cycle   4 NSaved=   4.
 NSaved= 4 IEnMin= 4 EnMin= -40.5108832142420     IErMin= 4 ErrMin= 2.39D-03
 ErrMax= 2.39D-03 EMaxC= 1.00D-01 BMatC= 7.41D-04 BMatP= 7.29D-03
 IDIUse=3 WtCom= 9.76D-01 WtEn= 2.39D-02
 Coeff-Com: -0.184D+00 0.251D+00 0.187D-01 0.914D+00
 Coeff-En:   0.000D+00 0.000D+00 0.000D+00 0.100D+01
 Coeff:     -0.179D+00 0.245D+00 0.182D-01 0.916D+00
 Gap=     0.415 Goal=   None    Shift=    0.000
 Gap=     0.415 Goal=   None    Shift=    0.000
 RMSDP=2.79D-04 MaxDP=2.65D-03 DE=-3.32D-03 OVMax= 7.42D-03

 Cycle   5  Pass 1  IDiag  1:
 E= -40.5111475880622     Delta-E=       -0.000264373820 Rises=F Damp=F
 DIIS: error= 5.09D-04 at cycle   5 NSaved=   5.
 NSaved= 5 IEnMin= 5 EnMin= -40.5111475880622     IErMin= 5 ErrMin= 5.09D-04
 ErrMax= 5.09D-04 EMaxC= 1.00D-01 BMatC= 4.96D-05 BMatP= 7.41D-04
 IDIUse=3 WtCom= 9.95D-01 WtEn= 5.09D-03
 Coeff-Com:  0.227D-01-0.321D-01-0.326D-01 0.299D-01 0.101D+01
 Coeff-En:   0.000D+00 0.000D+00 0.000D+00 0.000D+00 0.100D+01
 Coeff:      0.226D-01-0.320D-01-0.324D-01 0.297D-01 0.101D+01
 Gap=     0.415 Goal=   None    Shift=    0.000
 Gap=     0.415 Goal=   None    Shift=    0.000
 RMSDP=9.55D-05 MaxDP=1.28D-03 DE=-2.64D-04 OVMax= 2.62D-03

 Cycle   6  Pass 1  IDiag  1:
 E= -40.5111714325959     Delta-E=       -0.000023844534 Rises=F Damp=F
 DIIS: error= 1.44D-04 at cycle   6 NSaved=   6.
 NSaved= 6 IEnMin= 6 EnMin= -40.5111714325959     IErMin= 6 ErrMin= 1.44D-04
 ErrMax= 1.44D-04 EMaxC= 1.00D-01 BMatC= 2.89D-06 BMatP= 4.96D-05
 IDIUse=3 WtCom= 9.99D-01 WtEn= 1.44D-03
 Coeff-Com:  0.179D-01-0.249D-01 0.167D-03-0.651D-01 0.649D-01 0.101D+01
 Coeff-En:   0.000D+00 0.000D+00 0.000D+00 0.000D+00 0.000D+00 0.100D+01
 Coeff:      0.178D-01-0.249D-01 0.167D-03-0.651D-01 0.648D-01 0.101D+01
 Gap=     0.415 Goal=   None    Shift=    0.000
 Gap=     0.415 Goal=   None    Shift=    0.000
 RMSDP=2.42D-05 MaxDP=3.67D-04 DE=-2.38D-05 OVMax= 7.88D-04

 Cycle   7  Pass 1  IDiag  1:
 E= -40.5111726808115     Delta-E=       -0.000001248216 Rises=F Damp=F
 DIIS: error= 5.52D-05 at cycle   7 NSaved=   7.
 NSaved= 7 IEnMin= 7 EnMin= -40.5111726808115     IErMin= 7 ErrMin= 5.52D-05
 ErrMax= 5.52D-05 EMaxC= 1.00D-01 BMatC= 3.43D-07 BMatP= 2.89D-06
 IDIUse=1 WtCom= 1.00D+00 WtEn= 0.00D+00
 Coeff-Com: -0.607D-03 0.885D-03 0.664D-03-0.155D-01-0.278D-01 0.219D+00
 Coeff-Com:  0.824D+00
 Coeff:     -0.607D-03 0.885D-03 0.664D-03-0.155D-01-0.278D-01 0.219D+00
 Coeff:      0.824D+00
 Gap=     0.415 Goal=   None    Shift=    0.000
 Gap=     0.415 Goal=   None    Shift=    0.000
 RMSDP=5.96D-06 MaxDP=6.33D-05 DE=-1.25D-06 OVMax= 1.38D-04

 Cycle   8  Pass 1  IDiag  1:
 E= -40.5111727851779     Delta-E=       -0.000000104366 Rises=F Damp=F
 DIIS: error= 5.09D-06 at cycle   8 NSaved=   8.
 NSaved= 8 IEnMin= 8 EnMin= -40.5111727851779     IErMin= 8 ErrMin= 5.09D-06
 ErrMax= 5.09D-06 EMaxC= 1.00D-01 BMatC= 3.61D-09 BMatP= 3.43D-07
 IDIUse=1 WtCom= 1.00D+00 WtEn= 0.00D+00
 Coeff-Com: -0.149D-03 0.234D-03 0.781D-04 0.314D-02 0.496D-03-0.514D-01
 Coeff-Com: -0.700D-01 0.112D+01
 Coeff:     -0.149D-03 0.234D-03 0.781D-04 0.314D-02 0.496D-03-0.514D-01
 Coeff:     -0.700D-01 0.112D+01
 Gap=     0.415 Goal=   None    Shift=    0.000
 Gap=     0.415 Goal=   None    Shift=    0.000
 RMSDP=9.56D-07 MaxDP=1.03D-05 DE=-1.04D-07 OVMax= 2.43D-05

 Cycle   9  Pass 1  IDiag  1:
 E= -40.5111727870692     Delta-E=       -0.000000001891 Rises=F Damp=F
 DIIS: error= 7.87D-07 at cycle   9 NSaved=   9.
 NSaved= 9 IEnMin= 9 EnMin= -40.5111727870692     IErMin= 9 ErrMin= 7.87D-07
 ErrMax= 7.87D-07 EMaxC= 1.00D-01 BMatC= 8.82D-11 BMatP= 3.61D-09
 IDIUse=1 WtCom= 1.00D+00 WtEn= 0.00D+00
 Coeff-Com:  0.129D-04-0.248D-04-0.564D-04 0.389D-04 0.330D-04 0.194D-02
 Coeff-Com: -0.175D-02-0.147D+00 0.115D+01
 Coeff:      0.129D-04-0.248D-04-0.564D-04 0.389D-04 0.330D-04 0.194D-02
 Coeff:     -0.175D-02-0.147D+00 0.115D+01
 Gap=     0.415 Goal=   None    Shift=    0.000
 Gap=     0.415 Goal=   None    Shift=    0.000
 RMSDP=1.55D-07 MaxDP=1.92D-06 DE=-1.89D-09 OVMax= 3.65D-06

 Cycle  10  Pass 1  IDiag  1:
 E= -40.5111727871138     Delta-E=       -0.000000000045 Rises=F Damp=F
 DIIS: error= 1.61D-07 at cycle  10 NSaved=  10.
 NSaved=10 IEnMin=10 EnMin= -40.5111727871138     IErMin=10 ErrMin= 1.61D-07
 ErrMax= 1.61D-07 EMaxC= 1.00D-01 BMatC= 2.48D-12 BMatP= 8.82D-11
 IDIUse=1 WtCom= 1.00D+00 WtEn= 0.00D+00
 Coeff-Com:  0.103D-05-0.134D-05 0.723D-05-0.691D-04 0.248D-04 0.497D-03
 Coeff-Com:  0.216D-03-0.239D-02-0.472D-01 0.105D+01
 Coeff:      0.103D-05-0.134D-05 0.723D-05-0.691D-04 0.248D-04 0.497D-03
 Coeff:      0.216D-03-0.239D-02-0.472D-01 0.105D+01
 Gap=     0.415 Goal=   None    Shift=    0.000
 Gap=     0.415 Goal=   None    Shift=    0.000
 RMSDP=1.62D-08 MaxDP=1.36D-07 DE=-4.46D-11 OVMax= 3.74D-07

 Cycle  11  Pass 1  IDiag  1:
 E= -40.5111727871147     Delta-E=       -0.000000000001 Rises=F Damp=F
 DIIS: error= 1.58D-08 at cycle  11 NSaved=  11.
 NSaved=11 IEnMin=11 EnMin= -40.5111727871147     IErMin=11 ErrMin= 1.58D-08
 ErrMax= 1.58D-08 EMaxC= 1.00D-01 BMatC= 1.40D-14 BMatP= 2.48D-12
 IDIUse=1 WtCom= 1.00D+00 WtEn= 0.00D+00
 Coeff-Com: -0.229D-06 0.459D-06 0.142D-05-0.292D-05-0.927D-06-0.123D-04
 Coeff-Com:  0.521D-04 0.237D-02-0.232D-01 0.596D-01 0.961D+00
 Coeff:     -0.229D-06 0.459D-06 0.142D-05-0.292D-05-0.927D-06-0.123D-04
 Coeff:      0.521D-04 0.237D-02-0.232D-01 0.596D-01 0.961D+00
 Gap=     0.415 Goal=   None    Shift=    0.000
 Gap=     0.415 Goal=   None    Shift=    0.000
 RMSDP=1.45D-09 MaxDP=1.55D-08 DE=-8.60D-13 OVMax= 4.21D-08

 SCF Done:  E(UB97-1+HF-B97-1) =  -40.5111727871     A.U. after   11 cycles
             Convg  =    0.1451D-08             -V/T =  2.0051
             S**2   =   0.0000
 KE= 4.030419818920D+01 PE=-1.201248004869D+02 EE= 2.588531074185D+01
 Annihilation of the first spin contaminant:
 S**2 before annihilation     0.0000,   after     0.0000
 Leave Link  502 at Mon Mar 30 15:42:40 2009, MaxMem=    6291456 cpu:      16.6
 (Enter /opt//g03/l601.exe)
 Copying SCF densities to generalized density rwf, ISCF=1 IROHF=0.

 **********************************************************************

            Population analysis using the SCF density.

 **********************************************************************

 Alpha  occ. eigenvalues --  -10.16130  -0.69831  -0.39331  -0.39331  -0.39330
 Alpha virt. eigenvalues --    0.02127   0.06927   0.06927   0.06927   0.15565
 Alpha virt. eigenvalues --    0.15565   0.15565   0.22093   0.40999   0.40999
 Alpha virt. eigenvalues --    0.40999   0.60621   0.60621   0.60621   0.61228
 Alpha virt. eigenvalues --    0.83413   0.96530   0.96530   1.45790   1.45790
 Alpha virt. eigenvalues --    1.45790   1.53892   1.53892   1.53892   1.90898
 Alpha virt. eigenvalues --    1.90898   1.90898   2.29162   2.31767   2.31768
 Alpha virt. eigenvalues --    2.48584   2.48584   2.48585   2.55632   2.55632
 Alpha virt. eigenvalues --    2.55633   2.88292   3.80550   3.80551   3.80552
 Alpha virt. eigenvalues --   24.06687
  Beta  occ. eigenvalues --  -10.16130  -0.69831  -0.39331  -0.39331  -0.39330
  Beta virt. eigenvalues --    0.02127   0.06927   0.06927   0.06927   0.15565
  Beta virt. eigenvalues --    0.15565   0.15565   0.22093   0.40999   0.40999
  Beta virt. eigenvalues --    0.40999   0.60621   0.60621   0.60621   0.61228
  Beta virt. eigenvalues --    0.83413   0.96530   0.96530   1.45790   1.45790
  Beta virt. eigenvalues --    1.45790   1.53892   1.53892   1.53892   1.90898
  Beta virt. eigenvalues --    1.90898   1.90898   2.29162   2.31767   2.31768
  Beta virt. eigenvalues --    2.48584   2.48584   2.48585   2.55632   2.55632
  Beta virt. eigenvalues --    2.55633   2.88292   3.80550   3.80551   3.80552
  Beta virt. eigenvalues --   24.06687
     Alpha Molecular Orbital Coefficients
                           1         2         3         4         5
                           O         O         O         O         O
     EIGENVALUES --   -10.16130  -0.69831  -0.39331  -0.39331  -0.39330
   1 1   C  1S          0.56407  -0.10860   0.00000   0.00000   0.00000
   2        2S          0.46240  -0.16920   0.00000   0.00000   0.00000
   3        2PX         0.00000   0.00000   0.03332   0.13844   0.14316
   4        2PY         0.00000   0.00000  -0.00251   0.14543  -0.14005
   5        2PZ         0.00000   0.00000   0.19913  -0.02133  -0.02572
   6        3S          0.01794   0.43754   0.00000   0.00000   0.00000
   7        3PX         0.00000   0.00000   0.04855   0.20170   0.20857
   8        3PY         0.00000   0.00000  -0.00365   0.21188  -0.20405
   9        3PZ         0.00000   0.00000   0.29012  -0.03108  -0.03747
  10        4S         -0.00626   0.28868   0.00000   0.00000   0.00000
  11        4PX         0.00000   0.00000   0.03318   0.13786   0.14256
  12        4PY         0.00000   0.00000  -0.00250   0.14482  -0.13947
  13        4PZ         0.00000   0.00000   0.19830  -0.02125  -0.02561
  14        5S         -0.00354   0.02366   0.00000   0.00000   0.00000
  15        5PX         0.00000   0.00000   0.00218   0.00908   0.00939
  16        5PY         0.00000   0.00000  -0.00016   0.00954  -0.00918
  17        5PZ         0.00000   0.00000   0.01306  -0.00140  -0.00169
  18        6D 0        0.00000   0.00000  -0.00001   0.00177   0.00553
  19        6D+1        0.00000   0.00000   0.00226  -0.01342  -0.01789
  20        6D-1        0.00000   0.00000  -0.00275   0.01842  -0.01334
  21        6D+2        0.00000   0.00000  -0.02277  -0.00334  -0.00050
  22        6D-2        0.00000   0.00000   0.00258   0.00198  -0.00294
  23 2   H  1S          0.00029   0.08532   0.09570   0.11528  -0.10145
  24        2S         -0.00309   0.10262   0.13585   0.16366  -0.14402
  25        3S          0.00304  -0.00186   0.05892   0.07099  -0.06247
  26        4PX         0.00023  -0.00203   0.00034   0.00683   0.01131
  27        4PY         0.00152  -0.01350  -0.01238  -0.00521   0.00379
  28        4PZ         0.00095  -0.00844   0.00538  -0.01059   0.00641
  29 3   H  1S          0.00029   0.08532  -0.09968   0.09287   0.11908
  30        2S         -0.00309   0.10262  -0.14150   0.13183   0.16905
  31        3S          0.00304  -0.00186  -0.06138   0.05718   0.07332
  32        4PX         0.00131  -0.01168   0.01318  -0.00120  -0.00379
  33        4PY        -0.00014   0.00128  -0.00137   0.01063  -0.00771
  34        4PZ        -0.00123   0.01094   0.00271   0.00820   0.01063
  35 4   H  1S          0.00029   0.08532   0.11279  -0.11022   0.08872
  36        2S         -0.00309   0.10262   0.16011  -0.15647   0.12594
  37        3S          0.00304  -0.00186   0.06945  -0.06787   0.05463
  38        4PX         0.00006  -0.00053   0.00162   0.00960   0.00891
  39        4PY        -0.00142   0.01263   0.01329  -0.00365   0.00143
  40        4PZ         0.00111  -0.00990   0.00246   0.00892  -0.00998
  41 5   H  1S          0.00029   0.08532  -0.10881  -0.09793  -0.10635
  42        2S         -0.00309   0.10262  -0.15446  -0.13902  -0.15098
  43        3S          0.00304  -0.00186  -0.06700  -0.06030  -0.06549
  44        4PX        -0.00160   0.01424  -0.01246  -0.00413  -0.00496
  45        4PY         0.00005  -0.00041   0.00025   0.00988  -0.00874
  46        4PZ        -0.00083   0.00740   0.00541  -0.00824  -0.00912
                           6         7         8         9        10
                           V         V         V         V         V
     EIGENVALUES --     0.02127   0.06927   0.06927   0.06927   0.15565
   1 1   C  1S          0.04397   0.00000   0.00000   0.00000   0.00000
   2        2S          0.07298   0.00000   0.00000   0.00000   0.00000
   3        2PX         0.00000  -0.00650  -0.07062   0.00036  -0.12899
   4        2PY         0.00000   0.00890  -0.00117  -0.07034   0.07242
   5        2PZ         0.00000  -0.07005   0.00640  -0.00897   0.03999
   6        3S         -0.22907   0.00000   0.00000   0.00000   0.00000
   7        3PX         0.00000  -0.01162  -0.12628   0.00064  -0.11794
   8        3PY         0.00000   0.01591  -0.00210  -0.12579   0.06621
   9        3PZ         0.00000  -0.12527   0.01145  -0.01604   0.03657
  10        4S         -0.45602   0.00001   0.00000   0.00000  -0.00001
  11        4PX         0.00000  -0.01437  -0.15615   0.00079  -1.15632
  12        4PY         0.00000   0.01967  -0.00260  -0.15555   0.64913
  13        4PZ         0.00000  -0.15490   0.01415  -0.01983   0.35849
  14        5S          2.04947  -0.00001   0.00000   0.00000  -0.00001
  15        5PX         0.00000   0.12678   1.37774  -0.00696  -0.58047
  16        5PY         0.00000  -0.17360   0.02291   1.37245   0.32586
  17        5PZ         0.00001   1.36677  -0.12488   0.17496   0.17997
  18        6D 0        0.00000   0.00010  -0.00553   0.00288   0.01039
  19        6D+1        0.00000  -0.00380   0.02352  -0.00381  -0.03773
  20        6D-1        0.00000   0.00591  -0.00359  -0.02359  -0.01370
  21        6D+2        0.00000   0.02375   0.00473   0.00485   0.00217
  22        6D-2        0.00000  -0.00238   0.00052  -0.00402  -0.00465
  23 2   H  1S         -0.00704  -0.02054  -0.00447  -0.04348  -0.03145
  24        2S          0.08415   0.01366   0.00297   0.02892  -0.09957
  25        3S         -0.33132  -0.25779  -0.05610  -0.54562  -1.10675
  26        4PX         0.00152   0.00046   0.00629  -0.00030  -0.01550
  27        4PY         0.01013  -0.00163  -0.00008   0.00452  -0.00936
  28        4PZ         0.00633   0.00575  -0.00069  -0.00031  -0.00638
  29 3   H  1S         -0.00703   0.02880  -0.03790   0.00817   0.06083
  30        2S          0.08415  -0.01916   0.02521  -0.00543   0.19258
  31        3S         -0.33131   0.36143  -0.47557   0.10252   2.14069
  32        4PX         0.00876   0.00160   0.00498   0.00026   0.01487
  33        4PY        -0.00096  -0.00091   0.00025   0.00626   0.00423
  34        4PZ        -0.00820   0.00532   0.00068   0.00053  -0.02206
  35 4   H  1S         -0.00704  -0.03433   0.00174   0.03392   0.01751
  36        2S          0.08415   0.02283  -0.00116  -0.02256   0.05545
  37        3S         -0.33133  -0.43082   0.02180   0.42571   0.61633
  38        4PX         0.00040   0.00053   0.00632   0.00002  -0.01263
  39        4PY        -0.00947   0.00051   0.00004   0.00500  -0.00138
  40        4PZ         0.00742   0.00524  -0.00052   0.00182   0.01083
  41 5   H  1S         -0.00703   0.02607   0.04063   0.00139  -0.04689
  42        2S          0.08415  -0.01734  -0.02702  -0.00092  -0.14846
  43        3S         -0.33132   0.32718   0.50986   0.01739  -1.65024
  44        4PX        -0.01068  -0.00054   0.00457  -0.00009   0.01319
  45        4PY         0.00030  -0.00076   0.00015   0.00630   0.00655
  46        4PZ        -0.00555   0.00569  -0.00148   0.00077   0.01764
     Beta Molecular Orbital Coefficients.
                           1         2         3         4         5
                           O         O         O         O         O
     EIGENVALUES --   -10.16130  -0.69831  -0.39331  -0.39331  -0.39330
   1 1   C  1S          0.56407  -0.10860   0.00000   0.00000   0.00000
   2        2S          0.46240  -0.16920   0.00000   0.00000   0.00000
   3        2PX         0.00000   0.00000   0.03267   0.13864   0.14311
   4        2PY         0.00000   0.00000  -0.00304   0.14535  -0.14012
   5        2PZ         0.00000   0.00000   0.19923  -0.02052  -0.02561
   6        3S          0.01794   0.43754   0.00000   0.00000   0.00000
   7        3PX         0.00000   0.00000   0.04760   0.20200   0.20850
   8        3PY         0.00000   0.00000  -0.00443   0.21176  -0.20415
   9        3PZ         0.00000   0.00000   0.29026  -0.02990  -0.03731
  10        4S         -0.00626   0.28868   0.00000   0.00000   0.00000
  11        4PX         0.00000   0.00000   0.03254   0.13807   0.14251
  12        4PY         0.00000   0.00000  -0.00303   0.14474  -0.13954
  13        4PZ         0.00000   0.00000   0.19840  -0.02044  -0.02550
  14        5S         -0.00354   0.02366   0.00000   0.00000   0.00000
  15        5PX         0.00000   0.00000   0.00214   0.00909   0.00938
  16        5PY         0.00000   0.00000  -0.00020   0.00953  -0.00919
  17        5PZ         0.00000   0.00000   0.01306  -0.00135  -0.00168
  18        6D 0        0.00000   0.00000  -0.00002   0.00177   0.00553
  19        6D+1        0.00000   0.00000   0.00232  -0.01342  -0.01788
  20        6D-1        0.00000   0.00000  -0.00282   0.01840  -0.01336
  21        6D+2        0.00000   0.00000  -0.02275  -0.00343  -0.00051
  22        6D-2        0.00000   0.00000   0.00258   0.00199  -0.00294
  23 2   H  1S          0.00029   0.08532   0.09527   0.11563  -0.10145
  24        2S         -0.00309   0.10262   0.13525   0.16415  -0.14403
  25        3S          0.00304  -0.00186   0.05866   0.07120  -0.06247
  26        4PX         0.00023  -0.00203   0.00031   0.00684   0.01130
  27        4PY         0.00152  -0.01350  -0.01236  -0.00526   0.00379
  28        4PZ         0.00095  -0.00844   0.00542  -0.01056   0.00642
  29 3   H  1S          0.00029   0.08532  -0.10012   0.09251   0.11898
  30        2S         -0.00309   0.10262  -0.14214   0.13133   0.16891
  31        3S          0.00304  -0.00186  -0.06165   0.05696   0.07326
  32        4PX         0.00131  -0.01168   0.01319  -0.00115  -0.00378
  33        4PY        -0.00014   0.00128  -0.00141   0.01062  -0.00771
  34        4PZ        -0.00123   0.01094   0.00267   0.00822   0.01063
  35 4   H  1S          0.00029   0.08532   0.11320  -0.10971   0.08883
  36        2S         -0.00309   0.10262   0.16070  -0.15574   0.12610
  37        3S          0.00304  -0.00186   0.06970  -0.06755   0.05470
  38        4PX         0.00006  -0.00053   0.00157   0.00961   0.00891
  39        4PY        -0.00142   0.01263   0.01331  -0.00359   0.00144
  40        4PZ         0.00111  -0.00990   0.00243   0.00892  -0.00998
  41 5   H  1S          0.00029   0.08532  -0.10834  -0.09843  -0.10636
  42        2S         -0.00309   0.10262  -0.15381  -0.13974  -0.15099
  43        3S          0.00304  -0.00186  -0.06671  -0.06061  -0.06549
  44        4PX        -0.00160   0.01424  -0.01244  -0.00418  -0.00496
  45        4PY         0.00005  -0.00041   0.00022   0.00988  -0.00875
  46        4PZ        -0.00083   0.00740   0.00544  -0.00823  -0.00911
                           6         7         8         9        10
                           V         V         V         V         V
     EIGENVALUES --     0.02127   0.06927   0.06927   0.06927   0.15565
   1 1   C  1S          0.04397   0.00000   0.00000   0.00000   0.00000
   2        2S          0.07298   0.00000   0.00000   0.00000   0.00000
   3        2PX         0.00000  -0.00754  -0.07051   0.00045  -0.12899
   4        2PY         0.00000   0.00877  -0.00139  -0.07036   0.07239
   5        2PZ         0.00000  -0.06997   0.00742  -0.00887   0.04004
   6        3S         -0.22907   0.00000   0.00000   0.00000   0.00000
   7        3PX         0.00000  -0.01347  -0.12609   0.00080  -0.11794
   8        3PY         0.00000   0.01569  -0.00248  -0.12581   0.06619
   9        3PZ         0.00000  -0.12512   0.01327  -0.01586   0.03661
  10        4S         -0.45602   0.00001   0.00000   0.00000  -0.00001
  11        4PX         0.00000  -0.01666  -0.15592   0.00099  -1.15631
  12        4PY         0.00000   0.01940  -0.00306  -0.15557   0.64892
  13        4PZ         0.00000  -0.15471   0.01641  -0.01962   0.35890
  14        5S          2.04947  -0.00001   0.00000   0.00000  -0.00001
  15        5PX         0.00000   0.14701   1.37571  -0.00875  -0.58047
  16        5PY         0.00000  -0.17117   0.02702   1.37268   0.32575
  17        5PZ         0.00001   1.36505  -0.14477   0.17307   0.18017
  18        6D 0        0.00000   0.00003  -0.00552   0.00289   0.01039
  19        6D+1        0.00000  -0.00346   0.02356  -0.00383  -0.03773
  20        6D-1        0.00000   0.00582  -0.00370  -0.02360  -0.01369
  21        6D+2        0.00000   0.02382   0.00439   0.00480   0.00218
  22        6D-2        0.00000  -0.00238   0.00055  -0.00402  -0.00465
  23 2   H  1S         -0.00704  -0.02067  -0.00422  -0.04344  -0.03145
  24        2S          0.08415   0.01375   0.00281   0.02889  -0.09957
  25        3S         -0.33132  -0.25941  -0.05292  -0.54517  -1.10682
  26        4PX         0.00152   0.00055   0.00628  -0.00031  -0.01550
  27        4PY         0.01013  -0.00163  -0.00005   0.00453  -0.00936
  28        4PZ         0.00633   0.00573  -0.00077  -0.00031  -0.00638
  29 3   H  1S         -0.00703   0.02825  -0.03831   0.00817   0.06084
  30        2S          0.08415  -0.01879   0.02548  -0.00543   0.19262
  31        3S         -0.33131   0.35455  -0.48071   0.10254   2.14117
  32        4PX         0.00876   0.00167   0.00496   0.00025   0.01487
  33        4PY        -0.00096  -0.00089   0.00027   0.00626   0.00423
  34        4PZ        -0.00820   0.00533   0.00060   0.00052  -0.02206
  35 4   H  1S         -0.00704  -0.03425   0.00228   0.03397   0.01749
  36        2S          0.08415   0.02278  -0.00152  -0.02259   0.05537
  37        3S         -0.33133  -0.42981   0.02862   0.42632   0.61555
  38        4PX         0.00040   0.00062   0.00631   0.00001  -0.01263
  39        4PY        -0.00947   0.00052   0.00004   0.00500  -0.00137
  40        4PZ         0.00742   0.00524  -0.00060   0.00181   0.01082
  41 5   H  1S         -0.00703   0.02667   0.04024   0.00130  -0.04688
  42        2S          0.08415  -0.01774  -0.02677  -0.00087  -0.14842
  43        3S         -0.33132   0.33467   0.50501   0.01631  -1.64987
  44        4PX        -0.01068  -0.00047   0.00458  -0.00010   0.01319
  45        4PY         0.00030  -0.00075   0.00017   0.00630   0.00654
  46        4PZ        -0.00555   0.00567  -0.00156   0.00076   0.01764
     ALPHA DENSITY MATRIX.
                           1         2         3         4         5
   1 1   C  1S          0.32997
   2        2S          0.27921   0.24245
   3        2PX         0.00000   0.00000   0.04077
   4        2PY         0.00000   0.00000   0.00000   0.04077
   5        2PZ         0.00000   0.00000   0.00000   0.00000   0.04077
   6        3S         -0.03740  -0.06574   0.00000   0.00000   0.00000
   7        3PX         0.00000   0.00000   0.05940   0.00000   0.00000
   8        3PY         0.00000   0.00000   0.00000   0.05940   0.00000
   9        3PZ         0.00000   0.00000   0.00000   0.00000   0.05940
  10        4S         -0.03488  -0.05174   0.00000   0.00000   0.00000
  11        4PX         0.00000   0.00000   0.04060   0.00000   0.00000
  12        4PY         0.00000   0.00000   0.00000   0.04060   0.00000
  13        4PZ         0.00000   0.00000   0.00000   0.00000   0.04060
  14        5S         -0.00457  -0.00564   0.00000   0.00000   0.00000
  15        5PX         0.00000   0.00000   0.00267   0.00000   0.00000
  16        5PY         0.00000   0.00000   0.00000   0.00267   0.00000
  17        5PZ         0.00000   0.00000   0.00000   0.00000   0.00267
  18        6D 0        0.00000   0.00000   0.00104  -0.00052  -0.00018
  19        6D+1        0.00000   0.00000  -0.00434   0.00055   0.00120
  20        6D-1        0.00000   0.00000   0.00055   0.00455  -0.00060
  21        6D+2        0.00000   0.00000  -0.00129  -0.00036  -0.00445
  22        6D-2        0.00000   0.00000  -0.00006   0.00069   0.00055
  23 2   H  1S         -0.00910  -0.01430   0.00463   0.03073   0.01921
  24        2S         -0.01289  -0.01879   0.00657   0.04363   0.02726
  25        3S          0.00192   0.00172   0.00285   0.01892   0.01183
  26        4PX         0.00035   0.00045   0.00258  -0.00059  -0.00037
  27        4PY         0.00232   0.00299  -0.00059  -0.00126  -0.00245
  28        4PZ         0.00145   0.00187  -0.00037  -0.00245   0.00113
  29 3   H  1S         -0.00910  -0.01430   0.02658  -0.00292  -0.02489
  30        2S         -0.01289  -0.01879   0.03774  -0.00415  -0.03534
  31        3S          0.00192   0.00172   0.01637  -0.00180  -0.01533
  32        4PX         0.00201   0.00258  -0.00027   0.00032   0.00275
  33        4PY        -0.00022  -0.00028   0.00032   0.00263  -0.00030
  34        4PZ        -0.00188  -0.00242   0.00275  -0.00030   0.00009
  35 4   H  1S         -0.00910  -0.01430   0.00120  -0.02874   0.02253
  36        2S         -0.01289  -0.01879   0.00170  -0.04080   0.03198
  37        3S          0.00192   0.00172   0.00074  -0.01769   0.01387
  38        4PX         0.00009   0.00012   0.00266   0.00014  -0.00011
  39        4PY        -0.00217  -0.00279   0.00014  -0.00076   0.00269
  40        4PZ         0.00170   0.00219  -0.00011   0.00269   0.00056
  41 5   H  1S         -0.00910  -0.01430  -0.03241   0.00093  -0.01684
  42        2S         -0.01289  -0.01879  -0.04601   0.00131  -0.02391
  43        3S          0.00192   0.00172  -0.01996   0.00057  -0.01037
  44        4PX        -0.00245  -0.00315  -0.00170   0.00012  -0.00227
  45        4PY         0.00007   0.00009   0.00012   0.00266   0.00006
  46        4PZ        -0.00127  -0.00164  -0.00227   0.00006   0.00149
                           6         7         8         9        10
   6        3S          0.19176
   7        3PX         0.00000   0.08654
   8        3PY         0.00000   0.00000   0.08654
   9        3PZ         0.00000   0.00000   0.00000   0.08654
  10        4S          0.12620   0.00000   0.00000   0.00000   0.08337
  11        4PX         0.00000   0.05915   0.00000   0.00000   0.00000
  12        4PY         0.00000   0.00000   0.05915   0.00000   0.00000
  13        4PZ         0.00000   0.00000   0.00000   0.05915   0.00000
  14        5S          0.01029   0.00000   0.00000   0.00000   0.00685
  15        5PX         0.00000   0.00389   0.00000   0.00000   0.00000
  16        5PY         0.00000   0.00000   0.00389   0.00000   0.00000
  17        5PZ         0.00000   0.00000   0.00000   0.00389   0.00000
  18        6D 0        0.00000   0.00151  -0.00075  -0.00026   0.00000
  19        6D+1        0.00000  -0.00633   0.00080   0.00174   0.00000
  20        6D-1        0.00000   0.00080   0.00664  -0.00087   0.00000
  21        6D+2        0.00000  -0.00188  -0.00052  -0.00648   0.00000
  22        6D-2        0.00000  -0.00009   0.00101   0.00080   0.00000
  23 2   H  1S          0.03734   0.00674   0.04478   0.02798   0.02463
  24        2S          0.04485   0.00957   0.06357   0.03972   0.02964
  25        3S         -0.00076   0.00415   0.02757   0.01723  -0.00056
  26        4PX        -0.00089   0.00375  -0.00086  -0.00054  -0.00059
  27        4PY        -0.00588  -0.00086  -0.00183  -0.00357  -0.00391
  28        4PZ        -0.00368  -0.00054  -0.00357   0.00165  -0.00244
  29 3   H  1S          0.03734   0.03873  -0.00426  -0.03627   0.02463
  30        2S          0.04484   0.05498  -0.00604  -0.05149   0.02964
  31        3S         -0.00076   0.02385  -0.00262  -0.02233  -0.00056
  32        4PX        -0.00509  -0.00039   0.00047   0.00400  -0.00338
  33        4PY         0.00056   0.00047   0.00383  -0.00044   0.00037
  34        4PZ         0.00476   0.00400  -0.00044   0.00013   0.00316
  35 4   H  1S          0.03734   0.00175  -0.04187   0.03282   0.02463
  36        2S          0.04485   0.00248  -0.05944   0.04660   0.02964
  37        3S         -0.00076   0.00108  -0.02578   0.02021  -0.00056
  38        4PX        -0.00023   0.00387   0.00021  -0.00016  -0.00015
  39        4PY         0.00550   0.00021  -0.00111   0.00392   0.00365
  40        4PZ        -0.00431  -0.00016   0.00392   0.00081  -0.00286
  41 5   H  1S          0.03734  -0.04722   0.00135  -0.02454   0.02463
  42        2S          0.04484  -0.06703   0.00191  -0.03483   0.02964
  43        3S         -0.00076  -0.02907   0.00083  -0.01511  -0.00056
  44        4PX         0.00620  -0.00247   0.00018  -0.00330   0.00412
  45        4PY        -0.00018   0.00018   0.00388   0.00009  -0.00012
  46        4PZ         0.00322  -0.00330   0.00009   0.00217   0.00214
                          11        12        13        14        15
  11        4PX         0.04043
  12        4PY         0.00000   0.04043
  13        4PZ         0.00000   0.00000   0.04043
  14        5S          0.00000   0.00000   0.00000   0.00057
  15        5PX         0.00266   0.00000   0.00000   0.00000   0.00018
  16        5PY         0.00000   0.00266   0.00000   0.00000   0.00000
  17        5PZ         0.00000   0.00000   0.00266   0.00000   0.00000
  18        6D 0        0.00103  -0.00052  -0.00018   0.00000   0.00007
  19        6D+1       -0.00433   0.00055   0.00119   0.00000  -0.00028
  20        6D-1        0.00055   0.00454  -0.00060   0.00000   0.00004
  21        6D+2       -0.00129  -0.00036  -0.00443   0.00000  -0.00008
  22        6D-2       -0.00006   0.00069   0.00055   0.00000   0.00000
  23 2   H  1S          0.00461   0.03060   0.01913   0.00202   0.00030
  24        2S          0.00654   0.04345   0.02715   0.00244   0.00043
  25        3S          0.00284   0.01885   0.01178  -0.00005   0.00019
  26        4PX         0.00257  -0.00059  -0.00037  -0.00005   0.00017
  27        4PY        -0.00059  -0.00125  -0.00244  -0.00032  -0.00004
  28        4PZ        -0.00037  -0.00244   0.00113  -0.00020  -0.00002
  29 3   H  1S          0.02647  -0.00291  -0.02479   0.00202   0.00174
  30        2S          0.03758  -0.00413  -0.03519   0.00244   0.00247
  31        3S          0.01630  -0.00179  -0.01526  -0.00005   0.00107
  32        4PX        -0.00027   0.00032   0.00274  -0.00028  -0.00002
  33        4PY         0.00032   0.00262  -0.00030   0.00003   0.00002
  34        4PZ         0.00274  -0.00030   0.00009   0.00026   0.00018
  35 4   H  1S          0.00120  -0.02862   0.02243   0.00202   0.00008
  36        2S          0.00170  -0.04062   0.03185   0.00244   0.00011
  37        3S          0.00074  -0.01762   0.01381  -0.00005   0.00005
  38        4PX         0.00265   0.00014  -0.00011  -0.00001   0.00017
  39        4PY         0.00014  -0.00076   0.00268   0.00030   0.00001
  40        4PZ        -0.00011   0.00268   0.00055  -0.00024  -0.00001
  41 5   H  1S         -0.03227   0.00092  -0.01677   0.00202  -0.00212
  42        2S         -0.04582   0.00131  -0.02381   0.00244  -0.00302
  43        3S         -0.01987   0.00057  -0.01033  -0.00005  -0.00131
  44        4PX        -0.00169   0.00012  -0.00226   0.00034  -0.00011
  45        4PY         0.00012   0.00265   0.00006  -0.00001   0.00001
  46        4PZ        -0.00226   0.00006   0.00148   0.00018  -0.00015
                          16        17        18        19        20
  16        5PY         0.00018
  17        5PZ         0.00000   0.00018
  18        6D 0       -0.00003  -0.00001   0.00003
  19        6D+1        0.00004   0.00008  -0.00012   0.00051
  20        6D-1        0.00030  -0.00004  -0.00004  -0.00001   0.00052
  21        6D+2       -0.00002  -0.00029  -0.00001   0.00000   0.00001
  22        6D-2        0.00005   0.00004  -0.00001   0.00003   0.00007
  23 2   H  1S          0.00202   0.00126  -0.00036   0.00048   0.00321
  24        2S          0.00286   0.00179  -0.00051   0.00069   0.00456
  25        3S          0.00124   0.00078  -0.00022   0.00030   0.00198
  26        4PX        -0.00004  -0.00002   0.00007  -0.00029  -0.00003
  27        4PY        -0.00008  -0.00016   0.00001  -0.00003  -0.00011
  28        4PZ        -0.00016   0.00007   0.00002   0.00004  -0.00030
  29 3   H  1S         -0.00019  -0.00163   0.00082  -0.00360   0.00040
  30        2S         -0.00027  -0.00232   0.00117  -0.00511   0.00056
  31        3S         -0.00012  -0.00101   0.00051  -0.00222   0.00024
  32        4PX         0.00002   0.00018  -0.00002   0.00011  -0.00001
  33        4PY         0.00017  -0.00002  -0.00002  -0.00001   0.00030
  34        4PZ        -0.00002   0.00001   0.00007  -0.00029   0.00000
  35 4   H  1S         -0.00188   0.00148   0.00030   0.00015  -0.00352
  36        2S         -0.00267   0.00210   0.00042   0.00021  -0.00500
  37        3S         -0.00116   0.00091   0.00018   0.00009  -0.00217
  38        4PX         0.00001  -0.00001   0.00007  -0.00028   0.00005
  39        4PY        -0.00005   0.00018   0.00000   0.00005  -0.00012
  40        4PZ         0.00018   0.00004  -0.00004   0.00006   0.00029
  41 5   H  1S          0.00006  -0.00110  -0.00076   0.00297  -0.00008
  42        2S          0.00009  -0.00157  -0.00108   0.00422  -0.00012
  43        3S          0.00004  -0.00068  -0.00047   0.00183  -0.00005
  44        4PX         0.00001  -0.00015  -0.00003   0.00012   0.00002
  45        4PY         0.00017   0.00000  -0.00003   0.00002   0.00030
  46        4PZ         0.00000   0.00010  -0.00007   0.00029  -0.00005
                          21        22        23        24        25
  21        6D+2        0.00053
  22        6D-2       -0.00006   0.00002
  23 2   H  1S         -0.00251   0.00077   0.04002
  24        2S         -0.00357   0.00110   0.05523   0.07652
  25        3S         -0.00155   0.00048   0.02000   0.02842   0.01243
  26        4PX        -0.00004  -0.00002  -0.00050  -0.00067  -0.00020
  27        4PY         0.00030  -0.00005  -0.00332  -0.00447  -0.00131
  28        4PZ        -0.00009  -0.00003  -0.00208  -0.00279  -0.00082
  29 3   H  1S          0.00190  -0.00042  -0.00363  -0.00674  -0.00688
  30        2S          0.00270  -0.00060  -0.00674  -0.01145  -0.00974
  31        3S          0.00117  -0.00026  -0.00688  -0.00974  -0.00413
  32        4PX        -0.00029   0.00004   0.00051   0.00094   0.00095
  33        4PY         0.00000   0.00004   0.00199   0.00280   0.00115
  34        4PZ        -0.00009  -0.00001   0.00106   0.00131   0.00005
  35 4   H  1S         -0.00224  -0.00019  -0.00363  -0.00674  -0.00688
  36        2S         -0.00319  -0.00027  -0.00674  -0.01145  -0.00974
  37        3S         -0.00138  -0.00012  -0.00688  -0.00974  -0.00413
  38        4PX        -0.00007   0.00000   0.00031   0.00045   0.00022
  39        4PY        -0.00029   0.00002   0.00178   0.00230   0.00041
  40        4PZ        -0.00008   0.00005   0.00143   0.00221   0.00142
  41 5   H  1S          0.00286  -0.00016  -0.00363  -0.00674  -0.00688
  42        2S          0.00406  -0.00023  -0.00674  -0.01145  -0.00974
  43        3S          0.00176  -0.00010  -0.00688  -0.00974  -0.00412
  44        4PX         0.00030  -0.00003   0.00005  -0.00019  -0.00075
  45        4PY        -0.00003   0.00005   0.00202   0.00287   0.00126
  46        4PZ        -0.00009   0.00002   0.00112   0.00146   0.00029
                          26        27        28        29        30
  26        4PX         0.00018
  27        4PY         0.00003   0.00038
  28        4PZ         0.00002   0.00013   0.00025
  29 3   H  1S          0.00177   0.00005  -0.00148   0.04002
  30        2S          0.00255   0.00032  -0.00194   0.05523   0.07652
  31        3S          0.00120   0.00077  -0.00045   0.02000   0.02842
  32        4PX        -0.00002  -0.00001   0.00016  -0.00287  -0.00387
  33        4PY        -0.00002  -0.00009  -0.00018   0.00032   0.00043
  34        4PZ         0.00015  -0.00019  -0.00010   0.00269   0.00362
  35 4   H  1S          0.00011  -0.00164   0.00162  -0.00363  -0.00674
  36        2S          0.00020  -0.00208   0.00246  -0.00674  -0.01145
  37        3S          0.00018  -0.00027   0.00146  -0.00688  -0.00974
  38        4PX         0.00017  -0.00003  -0.00003   0.00175   0.00249
  39        4PY        -0.00003  -0.00031   0.00001  -0.00042  -0.00082
  40        4PZ        -0.00003   0.00002  -0.00006  -0.00145  -0.00188
  41 5   H  1S         -0.00208   0.00030  -0.00095  -0.00363  -0.00674
  42        2S         -0.00292   0.00067  -0.00120  -0.00674  -0.01145
  43        3S         -0.00117   0.00092  -0.00012  -0.00688  -0.00974
  44        4PX        -0.00012  -0.00004  -0.00018   0.00148   0.00185
  45        4PY        -0.00003  -0.00008  -0.00016  -0.00018  -0.00025
  46        4PZ        -0.00017  -0.00016  -0.00001  -0.00176  -0.00263
                          31        32        33        34        35
  31        3S          0.01243
  32        4PX        -0.00113   0.00033
  33        4PY         0.00012  -0.00002   0.00018
  34        4PZ         0.00106  -0.00014   0.00002   0.00031
  35 4   H  1S         -0.00688   0.00029  -0.00190   0.00128   0.04002
  36        2S         -0.00974   0.00062  -0.00272   0.00162   0.05523
  37        3S         -0.00412   0.00082  -0.00124   0.00019   0.02000
  38        4PX         0.00110  -0.00002   0.00003   0.00017  -0.00013
  39        4PY        -0.00095   0.00002  -0.00005   0.00016   0.00311
  40        4PZ        -0.00035   0.00018   0.00016  -0.00014  -0.00243
  41 5   H  1S         -0.00688  -0.00191   0.00004  -0.00130  -0.00363
  42        2S         -0.00974  -0.00250   0.00003  -0.00204  -0.00674
  43        3S         -0.00413  -0.00054  -0.00005  -0.00140  -0.00688
  44        4PX         0.00013  -0.00031   0.00003   0.00004  -0.00018
  45        4PY        -0.00009   0.00003   0.00017  -0.00002  -0.00187
  46        4PZ        -0.00149   0.00003  -0.00002  -0.00007   0.00134
                          36        37        38        39        40
  36        2S          0.07652
  37        3S          0.02842   0.01243
  38        4PX        -0.00017  -0.00005   0.00017
  39        4PY         0.00418   0.00122  -0.00001   0.00035
  40        4PZ        -0.00328  -0.00096   0.00001  -0.00014   0.00028
  41 5   H  1S         -0.00674  -0.00688  -0.00211  -0.00016  -0.00092
  42        2S         -0.01145  -0.00974  -0.00298  -0.00046  -0.00113
  43        3S         -0.00974  -0.00413  -0.00127  -0.00079  -0.00003
  44        4PX        -0.00051  -0.00089  -0.00011   0.00002  -0.00016
  45        4PY        -0.00265  -0.00113   0.00002  -0.00005   0.00018
  46        4PZ         0.00177   0.00042  -0.00016   0.00018  -0.00004
                          41        42        43        44        45
  41 5   H  1S          0.04002
  42        2S          0.05523   0.07652
  43        3S          0.02000   0.02842   0.01243
  44        4PX         0.00350   0.00471   0.00138   0.00040
  45        4PY        -0.00010  -0.00013  -0.00004  -0.00001   0.00017
  46        4PZ         0.00182   0.00245   0.00072   0.00012   0.00000
                          46
  46        4PZ         0.00024
     BETA DENSITY MATRIX.
                           1         2         3         4         5
   1 1   C  1S          0.32997
   2        2S          0.27921   0.24245
   3        2PX         0.00000   0.00000   0.04077
   4        2PY         0.00000   0.00000   0.00000   0.04077
   5        2PZ         0.00000   0.00000   0.00000   0.00000   0.04077
   6        3S         -0.03740  -0.06574   0.00000   0.00000   0.00000
   7        3PX         0.00000   0.00000   0.05940   0.00000   0.00000
   8        3PY         0.00000   0.00000   0.00000   0.05940   0.00000
   9        3PZ         0.00000   0.00000   0.00000   0.00000   0.05940
  10        4S         -0.03488  -0.05174   0.00000   0.00000   0.00000
  11        4PX         0.00000   0.00000   0.04060   0.00000   0.00000
  12        4PY         0.00000   0.00000   0.00000   0.04060   0.00000
  13        4PZ         0.00000   0.00000   0.00000   0.00000   0.04060
  14        5S         -0.00457  -0.00564   0.00000   0.00000   0.00000
  15        5PX         0.00000   0.00000   0.00267   0.00000   0.00000
  16        5PY         0.00000   0.00000   0.00000   0.00267   0.00000
  17        5PZ         0.00000   0.00000   0.00000   0.00000   0.00267
  18        6D 0        0.00000   0.00000   0.00104  -0.00052  -0.00018
  19        6D+1        0.00000   0.00000  -0.00434   0.00055   0.00120
  20        6D-1        0.00000   0.00000   0.00055   0.00455  -0.00060
  21        6D+2        0.00000   0.00000  -0.00129  -0.00036  -0.00445
  22        6D-2        0.00000   0.00000  -0.00006   0.00069   0.00055
  23 2   H  1S         -0.00910  -0.01430   0.00463   0.03073   0.01921
  24        2S         -0.01289  -0.01879   0.00657   0.04363   0.02726
  25        3S          0.00192   0.00172   0.00285   0.01892   0.01183
  26        4PX         0.00035   0.00045   0.00258  -0.00059  -0.00037
  27        4PY         0.00232   0.00299  -0.00059  -0.00126  -0.00245
  28        4PZ         0.00145   0.00187  -0.00037  -0.00245   0.00113
  29 3   H  1S         -0.00910  -0.01430   0.02658  -0.00292  -0.02489
  30        2S         -0.01289  -0.01879   0.03774  -0.00415  -0.03534
  31        3S          0.00192   0.00172   0.01637  -0.00180  -0.01533
  32        4PX         0.00201   0.00258  -0.00027   0.00032   0.00275
  33        4PY        -0.00022  -0.00028   0.00032   0.00263  -0.00030
  34        4PZ        -0.00188  -0.00242   0.00275  -0.00030   0.00009
  35 4   H  1S         -0.00910  -0.01430   0.00120  -0.02874   0.02253
  36        2S         -0.01289  -0.01879   0.00170  -0.04080   0.03198
  37        3S          0.00192   0.00172   0.00074  -0.01769   0.01387
  38        4PX         0.00009   0.00012   0.00266   0.00014  -0.00011
  39        4PY        -0.00217  -0.00279   0.00014  -0.00076   0.00269
  40        4PZ         0.00170   0.00219  -0.00011   0.00269   0.00056
  41 5   H  1S         -0.00910  -0.01430  -0.03241   0.00093  -0.01684
  42        2S         -0.01289  -0.01879  -0.04601   0.00131  -0.02391
  43        3S          0.00192   0.00172  -0.01996   0.00057  -0.01037
  44        4PX        -0.00245  -0.00315  -0.00170   0.00012  -0.00227
  45        4PY         0.00007   0.00009   0.00012   0.00266   0.00006
  46        4PZ        -0.00127  -0.00164  -0.00227   0.00006   0.00149
                           6         7         8         9        10
   6        3S          0.19176
   7        3PX         0.00000   0.08654
   8        3PY         0.00000   0.00000   0.08654
   9        3PZ         0.00000   0.00000   0.00000   0.08654
  10        4S          0.12620   0.00000   0.00000   0.00000   0.08337
  11        4PX         0.00000   0.05915   0.00000   0.00000   0.00000
  12        4PY         0.00000   0.00000   0.05915   0.00000   0.00000
  13        4PZ         0.00000   0.00000   0.00000   0.05915   0.00000
  14        5S          0.01029   0.00000   0.00000   0.00000   0.00685
  15        5PX         0.00000   0.00389   0.00000   0.00000   0.00000
  16        5PY         0.00000   0.00000   0.00389   0.00000   0.00000
  17        5PZ         0.00000   0.00000   0.00000   0.00389   0.00000
  18        6D 0        0.00000   0.00151  -0.00075  -0.00026   0.00000
  19        6D+1        0.00000  -0.00633   0.00080   0.00174   0.00000
  20        6D-1        0.00000   0.00080   0.00664  -0.00087   0.00000
  21        6D+2        0.00000  -0.00188  -0.00052  -0.00648   0.00000
  22        6D-2        0.00000  -0.00009   0.00101   0.00080   0.00000
  23 2   H  1S          0.03734   0.00674   0.04478   0.02798   0.02463
  24        2S          0.04485   0.00957   0.06357   0.03972   0.02964
  25        3S         -0.00076   0.00415   0.02757   0.01723  -0.00056
  26        4PX        -0.00089   0.00375  -0.00086  -0.00054  -0.00059
  27        4PY        -0.00588  -0.00086  -0.00183  -0.00357  -0.00391
  28        4PZ        -0.00368  -0.00054  -0.00357   0.00165  -0.00244
  29 3   H  1S          0.03734   0.03873  -0.00426  -0.03627   0.02463
  30        2S          0.04484   0.05498  -0.00604  -0.05149   0.02964
  31        3S         -0.00076   0.02385  -0.00262  -0.02233  -0.00056
  32        4PX        -0.00509  -0.00039   0.00047   0.00400  -0.00338
  33        4PY         0.00056   0.00047   0.00383  -0.00044   0.00037
  34        4PZ         0.00476   0.00400  -0.00044   0.00013   0.00316
  35 4   H  1S          0.03734   0.00175  -0.04187   0.03282   0.02463
  36        2S          0.04485   0.00248  -0.05944   0.04660   0.02964
  37        3S         -0.00076   0.00108  -0.02578   0.02021  -0.00056
  38        4PX        -0.00023   0.00387   0.00021  -0.00016  -0.00015
  39        4PY         0.00550   0.00021  -0.00111   0.00392   0.00365
  40        4PZ        -0.00431  -0.00016   0.00392   0.00081  -0.00286
  41 5   H  1S          0.03734  -0.04722   0.00135  -0.02454   0.02463
  42        2S          0.04484  -0.06703   0.00191  -0.03483   0.02964
  43        3S         -0.00076  -0.02907   0.00083  -0.01511  -0.00056
  44        4PX         0.00620  -0.00247   0.00018  -0.00330   0.00412
  45        4PY        -0.00018   0.00018   0.00388   0.00009  -0.00012
  46        4PZ         0.00322  -0.00330   0.00009   0.00217   0.00214
                          11        12        13        14        15
  11        4PX         0.04043
  12        4PY         0.00000   0.04043
  13        4PZ         0.00000   0.00000   0.04043
  14        5S          0.00000   0.00000   0.00000   0.00057
  15        5PX         0.00266   0.00000   0.00000   0.00000   0.00018
  16        5PY         0.00000   0.00266   0.00000   0.00000   0.00000
  17        5PZ         0.00000   0.00000   0.00266   0.00000   0.00000
  18        6D 0        0.00103  -0.00052  -0.00018   0.00000   0.00007
  19        6D+1       -0.00433   0.00055   0.00119   0.00000  -0.00028
  20        6D-1        0.00055   0.00454  -0.00060   0.00000   0.00004
  21        6D+2       -0.00129  -0.00036  -0.00443   0.00000  -0.00008
  22        6D-2       -0.00006   0.00069   0.00055   0.00000   0.00000
  23 2   H  1S          0.00461   0.03060   0.01913   0.00202   0.00030
  24        2S          0.00654   0.04345   0.02715   0.00244   0.00043
  25        3S          0.00284   0.01885   0.01178  -0.00005   0.00019
  26        4PX         0.00257  -0.00059  -0.00037  -0.00005   0.00017
  27        4PY        -0.00059  -0.00125  -0.00244  -0.00032  -0.00004
  28        4PZ        -0.00037  -0.00244   0.00113  -0.00020  -0.00002
  29 3   H  1S          0.02647  -0.00291  -0.02479   0.00202   0.00174
  30        2S          0.03758  -0.00413  -0.03519   0.00244   0.00247
  31        3S          0.01630  -0.00179  -0.01526  -0.00005   0.00107
  32        4PX        -0.00027   0.00032   0.00274  -0.00028  -0.00002
  33        4PY         0.00032   0.00262  -0.00030   0.00003   0.00002
  34        4PZ         0.00274  -0.00030   0.00009   0.00026   0.00018
  35 4   H  1S          0.00120  -0.02862   0.02243   0.00202   0.00008
  36        2S          0.00170  -0.04062   0.03185   0.00244   0.00011
  37        3S          0.00074  -0.01762   0.01381  -0.00005   0.00005
  38        4PX         0.00265   0.00014  -0.00011  -0.00001   0.00017
  39        4PY         0.00014  -0.00076   0.00268   0.00030   0.00001
  40        4PZ        -0.00011   0.00268   0.00055  -0.00024  -0.00001
  41 5   H  1S         -0.03227   0.00092  -0.01677   0.00202  -0.00212
  42        2S         -0.04582   0.00131  -0.02381   0.00244  -0.00302
  43        3S         -0.01987   0.00057  -0.01033  -0.00005  -0.00131
  44        4PX        -0.00169   0.00012  -0.00226   0.00034  -0.00011
  45        4PY         0.00012   0.00265   0.00006  -0.00001   0.00001
  46        4PZ        -0.00226   0.00006   0.00148   0.00018  -0.00015
                          16        17        18        19        20
  16        5PY         0.00018
  17        5PZ         0.00000   0.00018
  18        6D 0       -0.00003  -0.00001   0.00003
  19        6D+1        0.00004   0.00008  -0.00012   0.00051
  20        6D-1        0.00030  -0.00004  -0.00004  -0.00001   0.00052
  21        6D+2       -0.00002  -0.00029  -0.00001   0.00000   0.00001
  22        6D-2        0.00005   0.00004  -0.00001   0.00003   0.00007
  23 2   H  1S          0.00202   0.00126  -0.00036   0.00048   0.00321
  24        2S          0.00286   0.00179  -0.00051   0.00069   0.00456
  25        3S          0.00124   0.00078  -0.00022   0.00030   0.00198
  26        4PX        -0.00004  -0.00002   0.00007  -0.00029  -0.00003
  27        4PY        -0.00008  -0.00016   0.00001  -0.00003  -0.00011
  28        4PZ        -0.00016   0.00007   0.00002   0.00004  -0.00030
  29 3   H  1S         -0.00019  -0.00163   0.00082  -0.00360   0.00040
  30        2S         -0.00027  -0.00232   0.00117  -0.00511   0.00056
  31        3S         -0.00012  -0.00101   0.00051  -0.00222   0.00024
  32        4PX         0.00002   0.00018  -0.00002   0.00011  -0.00001
  33        4PY         0.00017  -0.00002  -0.00002  -0.00001   0.00030
  34        4PZ        -0.00002   0.00001   0.00007  -0.00029   0.00000
  35 4   H  1S         -0.00188   0.00148   0.00030   0.00015  -0.00352
  36        2S         -0.00267   0.00210   0.00042   0.00021  -0.00500
  37        3S         -0.00116   0.00091   0.00018   0.00009  -0.00217
  38        4PX         0.00001  -0.00001   0.00007  -0.00028   0.00005
  39        4PY        -0.00005   0.00018   0.00000   0.00005  -0.00012
  40        4PZ         0.00018   0.00004  -0.00004   0.00006   0.00029
  41 5   H  1S          0.00006  -0.00110  -0.00076   0.00297  -0.00008
  42        2S          0.00009  -0.00157  -0.00108   0.00422  -0.00012
  43        3S          0.00004  -0.00068  -0.00047   0.00183  -0.00005
  44        4PX         0.00001  -0.00015  -0.00003   0.00012   0.00002
  45        4PY         0.00017   0.00000  -0.00003   0.00002   0.00030
  46        4PZ         0.00000   0.00010  -0.00007   0.00029  -0.00005
                          21        22        23        24        25
  21        6D+2        0.00053
  22        6D-2       -0.00006   0.00002
  23 2   H  1S         -0.00251   0.00077   0.04002
  24        2S         -0.00357   0.00110   0.05523   0.07652
  25        3S         -0.00155   0.00048   0.02000   0.02842   0.01243
  26        4PX        -0.00004  -0.00002  -0.00050  -0.00067  -0.00020
  27        4PY         0.00030  -0.00005  -0.00332  -0.00447  -0.00131
  28        4PZ        -0.00009  -0.00003  -0.00208  -0.00279  -0.00082
  29 3   H  1S          0.00190  -0.00042  -0.00363  -0.00674  -0.00688
  30        2S          0.00270  -0.00060  -0.00674  -0.01145  -0.00974
  31        3S          0.00117  -0.00026  -0.00688  -0.00974  -0.00413
  32        4PX        -0.00029   0.00004   0.00051   0.00094   0.00095
  33        4PY         0.00000   0.00004   0.00199   0.00280   0.00115
  34        4PZ        -0.00009  -0.00001   0.00106   0.00131   0.00005
  35 4   H  1S         -0.00224  -0.00019  -0.00363  -0.00674  -0.00688
  36        2S         -0.00319  -0.00027  -0.00674  -0.01145  -0.00974
  37        3S         -0.00138  -0.00012  -0.00688  -0.00974  -0.00413
  38        4PX        -0.00007   0.00000   0.00031   0.00045   0.00022
  39        4PY        -0.00029   0.00002   0.00178   0.00230   0.00041
  40        4PZ        -0.00008   0.00005   0.00143   0.00221   0.00142
  41 5   H  1S          0.00286  -0.00016  -0.00363  -0.00674  -0.00688
  42        2S          0.00406  -0.00023  -0.00674  -0.01145  -0.00974
  43        3S          0.00176  -0.00010  -0.00688  -0.00974  -0.00412
  44        4PX         0.00030  -0.00003   0.00005  -0.00019  -0.00075
  45        4PY        -0.00003   0.00005   0.00202   0.00287   0.00126
  46        4PZ        -0.00009   0.00002   0.00112   0.00146   0.00029
                          26        27        28        29        30
  26        4PX         0.00018
  27        4PY         0.00003   0.00038
  28        4PZ         0.00002   0.00013   0.00025
  29 3   H  1S          0.00177   0.00005  -0.00148   0.04002
  30        2S          0.00255   0.00032  -0.00194   0.05523   0.07652
  31        3S          0.00120   0.00077  -0.00045   0.02000   0.02842
  32        4PX        -0.00002  -0.00001   0.00016  -0.00287  -0.00387
  33        4PY        -0.00002  -0.00009  -0.00018   0.00032   0.00043
  34        4PZ         0.00015  -0.00019  -0.00010   0.00269   0.00362
  35 4   H  1S          0.00011  -0.00164   0.00162  -0.00363  -0.00674
  36        2S          0.00020  -0.00208   0.00246  -0.00674  -0.01145
  37        3S          0.00018  -0.00027   0.00146  -0.00688  -0.00974
  38        4PX         0.00017  -0.00003  -0.00003   0.00175   0.00249
  39        4PY        -0.00003  -0.00031   0.00001  -0.00042  -0.00082
  40        4PZ        -0.00003   0.00002  -0.00006  -0.00145  -0.00188
  41 5   H  1S         -0.00208   0.00030  -0.00095  -0.00363  -0.00674
  42        2S         -0.00292   0.00067  -0.00120  -0.00674  -0.01145
  43        3S         -0.00117   0.00092  -0.00012  -0.00688  -0.00974
  44        4PX        -0.00012  -0.00004  -0.00018   0.00148   0.00185
  45        4PY        -0.00003  -0.00008  -0.00016  -0.00018  -0.00025
  46        4PZ        -0.00017  -0.00016  -0.00001  -0.00176  -0.00263
                          31        32        33        34        35
  31        3S          0.01243
  32        4PX        -0.00113   0.00033
  33        4PY         0.00012  -0.00002   0.00018
  34        4PZ         0.00106  -0.00014   0.00002   0.00031
  35 4   H  1S         -0.00688   0.00029  -0.00190   0.00128   0.04002
  36        2S         -0.00974   0.00062  -0.00272   0.00162   0.05523
  37        3S         -0.00412   0.00082  -0.00124   0.00019   0.02000
  38        4PX         0.00110  -0.00002   0.00003   0.00017  -0.00013
  39        4PY        -0.00095   0.00002  -0.00005   0.00016   0.00311
  40        4PZ        -0.00035   0.00018   0.00016  -0.00014  -0.00243
  41 5   H  1S         -0.00688  -0.00191   0.00004  -0.00130  -0.00363
  42        2S         -0.00974  -0.00250   0.00003  -0.00204  -0.00674
  43        3S         -0.00413  -0.00054  -0.00005  -0.00140  -0.00688
  44        4PX         0.00013  -0.00031   0.00003   0.00004  -0.00018
  45        4PY        -0.00009   0.00003   0.00017  -0.00002  -0.00187
  46        4PZ        -0.00149   0.00003  -0.00002  -0.00007   0.00134
                          36        37        38        39        40
  36        2S          0.07652
  37        3S          0.02842   0.01243
  38        4PX        -0.00017  -0.00005   0.00017
  39        4PY         0.00418   0.00122  -0.00001   0.00035
  40        4PZ        -0.00328  -0.00096   0.00001  -0.00014   0.00028
  41 5   H  1S         -0.00674  -0.00688  -0.00211  -0.00016  -0.00092
  42        2S         -0.01145  -0.00974  -0.00298  -0.00046  -0.00113
  43        3S         -0.00974  -0.00413  -0.00127  -0.00079  -0.00003
  44        4PX        -0.00051  -0.00089  -0.00011   0.00002  -0.00016
  45        4PY        -0.00265  -0.00113   0.00002  -0.00005   0.00018
  46        4PZ         0.00177   0.00042  -0.00016   0.00018  -0.00004
                          41        42        43        44        45
  41 5   H  1S          0.04002
  42        2S          0.05523   0.07652
  43        3S          0.02000   0.02842   0.01243
  44        4PX         0.00350   0.00471   0.00138   0.00040
  45        4PY        -0.00010  -0.00013  -0.00004  -0.00001   0.00017
  46        4PZ         0.00182   0.00245   0.00072   0.00012   0.00000
                          46
  46        4PZ         0.00024
    Full Mulliken population analysis:
                           1         2         3         4         5
   1 1   C  1S          0.65995
   2        2S          0.49053   0.48489
   3        2PX         0.00000   0.00000   0.08154
   4        2PY         0.00000   0.00000   0.00000   0.08154
   5        2PZ         0.00000   0.00000   0.00000   0.00000   0.08154
   6        3S         -0.02462  -0.05506   0.00000   0.00000   0.00000
   7        3PX         0.00000   0.00000   0.07474   0.00000   0.00000
   8        3PY         0.00000   0.00000   0.00000   0.07474   0.00000
   9        3PZ         0.00000   0.00000   0.00000   0.00000   0.07474
  10        4S         -0.01073  -0.01937   0.00000   0.00000   0.00000
  11        4PX         0.00000   0.00000   0.01788   0.00000   0.00000
  12        4PY         0.00000   0.00000   0.00000   0.01788   0.00000
  13        4PZ         0.00000   0.00000   0.00000   0.00000   0.01788
  14        5S         -0.00060  -0.00088   0.00000   0.00000   0.00000
  15        5PX         0.00000   0.00000   0.00031   0.00000   0.00000
  16        5PY         0.00000   0.00000   0.00000   0.00031   0.00000
  17        5PZ         0.00000   0.00000   0.00000   0.00000   0.00031
  18        6D 0        0.00000   0.00000   0.00000   0.00000   0.00000
  19        6D+1        0.00000   0.00000   0.00000   0.00000   0.00000
  20        6D-1        0.00000   0.00000   0.00000   0.00000   0.00000
  21        6D+2        0.00000   0.00000   0.00000   0.00000   0.00000
  22        6D-2        0.00000   0.00000   0.00000   0.00000   0.00000
  23 2   H  1S         -0.00021  -0.00030   0.00012   0.00548   0.00214
  24        2S         -0.00191  -0.00333   0.00029   0.01288   0.00503
  25        3S          0.00030   0.00033   0.00005   0.00212   0.00083
  26        4PX        -0.00001  -0.00001   0.00044   0.00005   0.00002
  27        4PY        -0.00034  -0.00053   0.00005   0.00048   0.00086
  28        4PZ        -0.00013  -0.00021   0.00002   0.00086  -0.00004
  29 3   H  1S         -0.00021  -0.00030   0.00410   0.00005   0.00360
  30        2S         -0.00191  -0.00333   0.00963   0.00012   0.00845
  31        3S          0.00030   0.00033   0.00159   0.00002   0.00139
  32        4PX        -0.00026  -0.00040   0.00006   0.00001   0.00108
  33        4PY         0.00000   0.00000   0.00001   0.00047   0.00001
  34        4PZ        -0.00022  -0.00035   0.00108   0.00001  -0.00002
  35 4   H  1S         -0.00021  -0.00030   0.00001   0.00480   0.00295
  36        2S         -0.00191  -0.00333   0.00002   0.01126   0.00692
  37        3S          0.00030   0.00033   0.00000   0.00186   0.00114
  38        4PX         0.00000   0.00000   0.00049   0.00000   0.00000
  39        4PY        -0.00030  -0.00046   0.00000   0.00023   0.00104
  40        4PZ        -0.00018  -0.00028   0.00000   0.00104  -0.00007
  41 5   H  1S         -0.00021  -0.00030   0.00610   0.00000   0.00165
  42        2S         -0.00191  -0.00333   0.01432   0.00001   0.00387
  43        3S          0.00030   0.00033   0.00236   0.00000   0.00064
  44        4PX        -0.00038  -0.00059   0.00075   0.00000   0.00074
  45        4PY         0.00000   0.00000   0.00000   0.00049   0.00000
  46        4PZ        -0.00010  -0.00016   0.00074   0.00000   0.00002
                           6         7         8         9        10
   6        3S          0.38353
   7        3PX         0.00000   0.17308
   8        3PY         0.00000   0.00000   0.17308
   9        3PZ         0.00000   0.00000   0.00000   0.17308
  10        4S          0.19553   0.00000   0.00000   0.00000   0.16675
  11        4PX         0.00000   0.07731   0.00000   0.00000   0.00000
  12        4PY         0.00000   0.00000   0.07731   0.00000   0.00000
  13        4PZ         0.00000   0.00000   0.00000   0.07730   0.00000
  14        5S          0.00844   0.00000   0.00000   0.00000   0.01061
  15        5PX         0.00000   0.00176   0.00000   0.00000   0.00000
  16        5PY         0.00000   0.00000   0.00176   0.00000   0.00000
  17        5PZ         0.00000   0.00000   0.00000   0.00176   0.00000
  18        6D 0        0.00000   0.00000   0.00000   0.00000   0.00000
  19        6D+1        0.00000   0.00000   0.00000   0.00000   0.00000
  20        6D-1        0.00000   0.00000   0.00000   0.00000   0.00000
  21        6D+2        0.00000   0.00000   0.00000   0.00000   0.00000
  22        6D-2        0.00000   0.00000   0.00000   0.00000   0.00000
  23 2   H  1S          0.01394   0.00066   0.02902   0.01133   0.01311
  24        2S          0.03810   0.00119   0.05243   0.02048   0.03434
  25        3S         -0.00070   0.00024   0.01078   0.00421  -0.00084
  26        4PX         0.00009   0.00195   0.00012   0.00005   0.00003
  27        4PY         0.00383   0.00012   0.00076   0.00213   0.00144
  28        4PZ         0.00150   0.00005   0.00213   0.00028   0.00056
  29 3   H  1S          0.01394   0.02171   0.00026   0.01904   0.01311
  30        2S          0.03810   0.03922   0.00047   0.03440   0.03434
  31        3S         -0.00070   0.00806   0.00010   0.00707  -0.00084
  32        4PX         0.00287   0.00007   0.00004   0.00268   0.00108
  33        4PY         0.00003   0.00004   0.00204   0.00003   0.00001
  34        4PZ         0.00251   0.00268   0.00003  -0.00001   0.00095
  35 4   H  1S          0.01394   0.00004   0.02537   0.01560   0.01311
  36        2S          0.03810   0.00008   0.04584   0.02817   0.03434
  37        3S         -0.00070   0.00002   0.00943   0.00579  -0.00084
  38        4PX         0.00001   0.00209   0.00001   0.00000   0.00000
  39        4PY         0.00335   0.00001   0.00033   0.00256   0.00126
  40        4PZ         0.00206   0.00000   0.00256   0.00002   0.00077
  41 5   H  1S          0.01394   0.03227   0.00003   0.00872   0.01311
  42        2S          0.03810   0.05830   0.00005   0.01575   0.03434
  43        3S         -0.00070   0.01199   0.00001   0.00324  -0.00084
  44        4PX         0.00426   0.00129   0.00001   0.00182   0.00160
  45        4PY         0.00000   0.00001   0.00209   0.00000   0.00000
  46        4PZ         0.00115   0.00182   0.00000   0.00055   0.00043
                          11        12        13        14        15
  11        4PX         0.08086
  12        4PY         0.00000   0.08086
  13        4PZ         0.00000   0.00000   0.08086
  14        5S          0.00000   0.00000   0.00000   0.00115
  15        5PX         0.00348   0.00000   0.00000   0.00000   0.00035
  16        5PY         0.00000   0.00348   0.00000   0.00000   0.00000
  17        5PZ         0.00000   0.00000   0.00348   0.00000   0.00000
  18        6D 0        0.00000   0.00000   0.00000   0.00000   0.00000
  19        6D+1        0.00000   0.00000   0.00000   0.00000   0.00000
  20        6D-1        0.00000   0.00000   0.00000   0.00000   0.00000
  21        6D+2        0.00000   0.00000   0.00000   0.00000   0.00000
  22        6D-2        0.00000   0.00000   0.00000   0.00000   0.00000
  23 2   H  1S          0.00044   0.01929   0.00753   0.00071   0.00001
  24        2S          0.00104   0.04603   0.01798   0.00215   0.00004
  25        3S          0.00035   0.01562   0.00610  -0.00008   0.00002
  26        4PX         0.00141   0.00004   0.00001   0.00000   0.00004
  27        4PY         0.00004  -0.00019   0.00062   0.00003   0.00000
  28        4PZ         0.00001   0.00062   0.00045   0.00001   0.00000
  29 3   H  1S          0.01443   0.00017   0.01265   0.00071   0.00037
  30        2S          0.03444   0.00042   0.03020   0.00215   0.00121
  31        3S          0.01168   0.00014   0.01025  -0.00008   0.00073
  32        4PX        -0.00007   0.00001   0.00078   0.00002   0.00000
  33        4PY         0.00001   0.00145   0.00001   0.00000   0.00000
  34        4PZ         0.00078   0.00001   0.00003   0.00002   0.00001
  35 4   H  1S          0.00003   0.01686   0.01037   0.00071   0.00000
  36        2S          0.00007   0.04024   0.02474   0.00215   0.00000
  37        3S          0.00002   0.01365   0.00839  -0.00008   0.00000
  38        4PX         0.00147   0.00000   0.00000   0.00000   0.00004
  39        4PY         0.00000  -0.00015   0.00075   0.00002   0.00000
  40        4PZ         0.00000   0.00075   0.00019   0.00001   0.00000
  41 5   H  1S          0.02145   0.00002   0.00579   0.00071   0.00055
  42        2S          0.05119   0.00004   0.01382   0.00215   0.00180
  43        3S          0.01737   0.00001   0.00469  -0.00008   0.00108
  44        4PX        -0.00017   0.00000   0.00053   0.00003  -0.00002
[...]
 Atom AN      X      Y      Z        X      Y      Z        X      Y      Z
   1   6     0.07  -0.07  -0.07     0.10   0.05   0.06     0.01   0.09  -0.09
   2   1    -0.42  -0.06   0.08    -0.43   0.15  -0.03    -0.01  -0.29   0.51
   3   1     0.07   0.30  -0.07    -0.36  -0.25  -0.39     0.20  -0.46   0.21
   4   1    -0.36   0.28   0.39    -0.48  -0.23  -0.27    -0.05   0.11   0.00
   5   1    -0.18   0.34   0.43     0.08  -0.25   0.02    -0.21  -0.43   0.33
                     4                      5                      6
                     A                      A                      A
 Frequencies --  1555.2120              1555.2274              3018.4220
 Red. masses --     1.0078                 1.0078                 1.0078
 Frc consts  --     1.4362                 1.4362                 5.4100
 IR Inten    --     0.0000                 0.0000                 0.0000
 Atom AN      X      Y      Z        X      Y      Z        X      Y      Z
   1   6     0.00   0.00   0.00     0.00   0.00   0.00     0.00   0.00   0.00
   2   1     0.40  -0.20   0.23    -0.30  -0.18   0.36     0.06   0.42   0.26
   3   1    -0.20   0.37  -0.26    -0.28  -0.33  -0.26     0.36  -0.04  -0.34
   4   1    -0.32   0.23   0.31     0.38   0.21   0.25     0.02  -0.39   0.31
   5   1     0.13  -0.40  -0.27     0.19   0.30  -0.35    -0.44   0.01  -0.23
                     7                      8                      9
                     A                      A                      A
 Frequencies --  3131.0000              3131.0232              3131.0533
 Red. masses --     1.1007                 1.1007                 1.1007
 Frc consts  --     6.3572                 6.3573                 6.3575
 IR Inten    --    23.7305                23.7272                23.7341
 Atom AN      X      Y      Z        X      Y      Z        X      Y      Z
   1   6    -0.05  -0.02   0.08    -0.02   0.09   0.01     0.08   0.01   0.05
   2   1    -0.03  -0.16  -0.08    -0.10  -0.61  -0.39    -0.04  -0.36  -0.21
   3   1     0.59  -0.07  -0.54     0.18   0.00  -0.17    -0.12   0.02   0.14
   4   1    -0.03   0.44  -0.33     0.02  -0.47   0.39     0.01   0.20  -0.14
   5   1     0.05  -0.01   0.05     0.11   0.02   0.06    -0.75   0.02  -0.39

 -------------------
 - Thermochemistry -
 -------------------
 Temperature   298.150 Kelvin.  Pressure   1.00000 Atm.
 Atom  1 has atomic number  6 and mass  12.00000
 Atom  2 has atomic number  1 and mass   1.00783
 Atom  3 has atomic number  1 and mass   1.00783
 Atom  4 has atomic number  1 and mass   1.00783
 Atom  5 has atomic number  1 and mass   1.00783
 Molecular mass:    16.03130 amu.
 Principal axes and moments of inertia in atomic units:
                           1         2         3
     EIGENVALUES --    11.45512  11.45515  11.45516
           X            0.74585   0.31196  -0.58854
           Y            0.14432   0.78689   0.59998
           Z            0.65029  -0.53243   0.54188
 This molecule is an asymmetric top.
 Rotational symmetry number  1.
 Rotational temperatures (Kelvin)      7.56115     7.56113     7.56112
 Rotational constants (GHZ):         157.54893   157.54850   157.54830
 Zero-point vibrational energy     116801.9 (Joules/Mol)
                                   27.91633 (Kcal/Mol)
 Vibrational temperatures:   1921.12  1921.17  1921.19  2237.60  2237.62
          (Kelvin)           4342.83  4504.81  4504.84  4504.88
 
 Zero-point correction=                           0.044488 (Hartree/Particle)
 Thermal correction to Energy=                    0.047357
 Thermal correction to Enthalpy=                  0.048301
 Thermal correction to Gibbs Free Energy=         0.024819
 Sum of electronic and zero-point Energies=            -40.466692
 Sum of electronic and thermal Energies=               -40.463822
 Sum of electronic and thermal Enthalpies=             -40.462878
 Sum of electronic and thermal Free Energies=          -40.486360
 
                     E (Thermal)             CV                S
                      KCal/Mol        Cal/Mol-Kelvin    Cal/Mol-Kelvin
 Total                   29.717              6.481             49.422
 Electronic               0.000              0.000              0.000
 Translational            0.889              2.981             34.261
 Rotational               0.889              2.981             15.071
 Vibrational             27.939              0.519              0.089
                       Q            Log10(Q)             Ln(Q)
 Total Bot       0.383723D-11        -11.415982        -26.286270
 Total V=0       0.111380D+10          9.046808         20.831046
 Vib (Bot)       0.346547D-20        -20.460237        -47.111437
 Vib (V=0)       0.100590D+01          0.002553          0.005878
 Electronic      0.100000D+01          0.000000          0.000000
 Translational   0.252295D+07          6.401908         14.740939
 Rotational      0.438881D+03          2.642347          6.084229
 
                                                     #NewComb uB971/6-311+G(d,p)
                                                             IR Spectrum
 
      3   3                                                          1        1                                                      
      1   0                                                          5        3                                                      
      3   1                                                          5        3                                                      
      1   8                                                          5        5                                                      
 
      X                                                                       X                                                      
      X                                                                       X                                                      
      X                                                                       X                                                      
      X                                                                       X                                                      
      X                                                                       X                                                      
      X                                                                       X                                                      
      X                                                                       X                                                      
      X                                                                       X                                                      
      X                                                                       X                                                      
      X                                                                       X                                                      
      X                                                                       X                                                      
      X                                                                       X                                                      
      X                                                                       X                                                      
      X                                                                       X                                                      
      X                                                                       X                                                      
      X                                                                       X                                                      
      X                                                                                                                              
      X                                                                                                                              
      X                                                                                                                              
      X                                                                                                                              
 
 -------------------------------------------------------------------
 Center     Atomic                   Forces (Hartrees/Bohr)
 Number     Number              X              Y              Z
 -------------------------------------------------------------------
    1          6          -0.000000509    0.000000006   -0.000000020
    2          1          -0.000000697   -0.000004862   -0.000002996
    3          1          -0.000003948    0.000000444    0.000003967
    4          1          -0.000000074    0.000004461   -0.000003705
    5          1           0.000005228   -0.000000049    0.000002755
 -------------------------------------------------------------------
 Cartesian Forces:  Max     0.000005228 RMS     0.000002983
 Force constants in Cartesian coordinates: 
                1             2             3             4             5
      1  0.538963D+00
      2  0.412430D-05  0.538972D+00
      3  0.101847D-04 -0.345767D-05  0.538965D+00
      4 -0.489243D-01 -0.288060D-01 -0.180038D-01  0.491719D-01
      5 -0.288057D-01 -0.235980D+00 -0.119599D+00  0.316593D-01  0.254755D+00
      6 -0.180020D-01 -0.119598D+00 -0.119323D+00  0.197858D-01  0.131443D+00
      7 -0.187755D+00  0.157377D-01  0.134073D+00  0.366940D-02 -0.387561D-04
      8  0.157375D-01 -0.463170D-01 -0.147410D-01  0.213637D-01 -0.120300D-02
      9  0.134073D+00 -0.147413D-01 -0.170146D+00  0.114978D-01  0.421342D-03
     10 -0.448766D-01  0.698855D-02 -0.547961D-02 -0.150468D-02 -0.311674D-02
     11  0.698860D-02 -0.211914D+00  0.131181D+00  0.125905D-02 -0.194285D-01
     12 -0.547777D-02  0.131180D+00 -0.147427D+00  0.960155D-03 -0.143733D-01
     13 -0.257407D+00  0.607560D-02 -0.110600D+00 -0.241231D-02  0.301837D-03
     14  0.607544D-02 -0.447611D-01  0.316234D-02 -0.254761D-01  0.185684D-02
     15 -0.110603D+00  0.316315D-02 -0.102068D+00 -0.142399D-01  0.210846D-02
                6             7             8             9            10
      6  0.126545D+00
      7 -0.462762D-02  0.201755D+00
      8 -0.178476D-01 -0.172966D-01  0.463089D-01
      9 -0.112146D-01 -0.147352D+00  0.162005D-01  0.182400D+00
     10  0.305188D-02  0.123485D-02 -0.201334D-01  0.136148D-01  0.447247D-01
     11  0.176919D-01 -0.537850D-03  0.297119D-02 -0.332474D-02 -0.768079D-02
     12  0.121845D-01 -0.258918D-02  0.168065D-01 -0.129556D-01  0.602078D-02
     13 -0.207998D-03 -0.189037D-01  0.328723D-03 -0.118336D-01  0.421702D-03
     14 -0.116888D-01  0.213550D-02 -0.176010D-02  0.144413D-02  0.239423D-01
     15 -0.819181D-02  0.204957D-01 -0.418502D-03  0.119154D-01 -0.172079D-01
               11            12            13            14            15
     11  0.228306D+00
     12 -0.144172D+00  0.157433D+00
     13 -0.290183D-04  0.108601D-02  0.278302D+00
     14  0.648795D-04  0.105585D-01 -0.667714D-02  0.445995D-01
     15 -0.137698D-02 -0.923483D-02  0.121555D+00 -0.347613D-02  0.107579D+00
 Force constants in internal coordinates: 
                1             2             3             4             5
      1  0.341657D+00
      2  0.194270D-02  0.341648D+00
      3  0.194353D-02  0.194327D-02  0.341653D+00
      4  0.194358D-02  0.194241D-02  0.194349D-02  0.341665D+00
      5  0.899916D-02  0.900245D-02 -0.900075D-02 -0.900009D-02  0.104336D+00
      6  0.900630D-02 -0.899976D-02  0.900269D-02 -0.900091D-02 -0.218420D-01
      7  0.899674D-02 -0.900149D-02 -0.900120D-02  0.900242D-02 -0.218433D-01
      8 -0.900047D-02  0.900491D-02  0.899932D-02 -0.900036D-02 -0.218433D-01
      9 -0.900129D-02  0.899621D-02 -0.900042D-02  0.899899D-02 -0.218452D-01
     10 -0.900042D-02 -0.900221D-02  0.900037D-02  0.899980D-02 -0.169618D-01
                6             7             8             9            10
      6  0.104334D+00
      7 -0.218456D-01  0.104334D+00
      8 -0.218434D-01 -0.169604D-01  0.104333D+00
      9 -0.169617D-01 -0.218401D-01 -0.218432D-01  0.104337D+00
     10 -0.218416D-01 -0.218445D-01 -0.218425D-01 -0.218464D-01  0.104336D+00
 Leave Link  716 at Mon Mar 30 15:43:35 2009, MaxMem=    6291456 cpu:       0.0
 (Enter /opt//g03/l103.exe)

 GradGradGradGradGradGradGradGradGradGradGradGradGradGradGradGradGradGrad
 Berny optimization.
 Internal  Forces:  Max     0.000005908 RMS     0.000003650
 Search for a local minimum.
 Step number   1 out of a maximum of   2
 All quantities printed in internal units (Hartrees-Bohrs-Radians)
 Second derivative matrix not updated -- analytic derivatives used.
 The second derivative matrix:
                          R1        R2        R3        R4        A1
           R1           0.34166
           R2           0.00194   0.34165
           R3           0.00194   0.00194   0.34165
           R4           0.00194   0.00194   0.00194   0.34166
           A1           0.00900   0.00900  -0.00900  -0.00900   0.10434
           A2           0.00901  -0.00900   0.00900  -0.00900  -0.02184
           A3           0.00900  -0.00900  -0.00900   0.00900  -0.02184
           A4          -0.00900   0.00900   0.00900  -0.00900  -0.02184
           A5          -0.00900   0.00900  -0.00900   0.00900  -0.02185
           A6          -0.00900  -0.00900   0.00900   0.00900  -0.01696
                          A2        A3        A4        A5        A6
           A2           0.10433
           A3          -0.02185   0.10433
           A4          -0.02184  -0.01696   0.10433
           A5          -0.01696  -0.02184  -0.02184   0.10434
           A6          -0.02184  -0.02184  -0.02184  -0.02185   0.10434
     Eigenvalues ---    0.11836   0.11837   0.11837   0.13106   0.13106
     Eigenvalues ---    0.34264   0.34264   0.34265   0.347491000.00000
 Angle between quadratic step and forces=   3.25 degrees.
 Linear search not attempted -- first point.
 Iteration  1 RMS(Cart)=  0.00001054 RMS(Int)=  0.00000000
 Iteration  2 RMS(Cart)=  0.00000000 RMS(Int)=  0.00000000
 Variable       Old X    -DE/DX   Delta X   Delta X   Delta X     New X
                                 (Linear)    (Quad)   (Total)
    R1        2.06454  -0.00001   0.00000  -0.00002  -0.00002   2.06452
    R2        2.06454  -0.00001   0.00000  -0.00002  -0.00002   2.06452
    R3        2.06454  -0.00001   0.00000  -0.00002  -0.00002   2.06452
    R4        2.06454  -0.00001   0.00000  -0.00002  -0.00002   2.06452
    A1        1.91063   0.00000   0.00000   0.00000   0.00000   1.91063
    A2        1.91063   0.00000   0.00000   0.00000   0.00000   1.91063
    A3        1.91064   0.00000   0.00000   0.00000   0.00000   1.91064
    A4        1.91063   0.00000   0.00000   0.00000   0.00000   1.91063
    A5        1.91063   0.00000   0.00000   0.00000   0.00000   1.91063
    A6        1.91064   0.00000   0.00000   0.00000   0.00000   1.91064
         Item               Value     Threshold  Converged?
 Maximum Force            0.000006     0.000015     YES
 RMS     Force            0.000004     0.000010     YES
 Maximum Displacement     0.000014     0.000060     YES
 RMS     Displacement     0.000011     0.000040     YES
 Predicted change in Energy=-1.920089D-10
 Optimization completed.
    -- Stationary point found.
                           ----------------------------
                           !   Optimized Parameters   !
                           ! (Angstroms and Degrees)  !
 --------------------------                            --------------------------
 ! Name  Definition              Value          Derivative Info.                !
 --------------------------------------------------------------------------------
 ! R1    R(1,2)                  1.0925         -DE/DX =    0.0                 !
 ! R2    R(1,3)                  1.0925         -DE/DX =    0.0                 !
 ! R3    R(1,4)                  1.0925         -DE/DX =    0.0                 !
 ! R4    R(1,5)                  1.0925         -DE/DX =    0.0                 !
 ! A1    A(2,1,3)              109.471          -DE/DX =    0.0                 !
 ! A2    A(2,1,4)              109.4711         -DE/DX =    0.0                 !
 ! A3    A(2,1,5)              109.4715         -DE/DX =    0.0                 !
 ! A4    A(3,1,4)              109.4711         -DE/DX =    0.0                 !
 ! A5    A(3,1,5)              109.4712         -DE/DX =    0.0                 !
 ! A6    A(4,1,5)              109.4714         -DE/DX =    0.0                 !
 --------------------------------------------------------------------------------
 GradGradGradGradGradGradGradGradGradGradGradGradGradGradGradGradGradGrad

 Leave Link  103 at Mon Mar 30 15:43:35 2009, MaxMem=    6291456 cpu:       0.0
 (Enter /opt//g03/l9999.exe)
 1\1\GINC-MONDRIAN\Freq\UB971\6-311+G(d,p)\C1H4\SS663\30-Mar-2009\0\\#P
  Geom=AllCheck Guess=Read SCRF=Check GenChk UB971/6-311+G(d,p) Freq\\#
 NewComb uB971/6-311+G(d,p)\\0,1\C,1.0205384335,-0.0266600215,5.0363400
 03\H,1.1588721361,0.892361138,5.6106538195\H,1.8154275953,-0.114047513
 8,4.2919697706\H,1.0564256091,-0.885976317,5.7100311148\H,0.0514362258
 ,0.0010227143,4.5327052921\\Version=AM64L-G03RevE.01\HF=-40.511179\S2=
 0.\S2-1=0.\S2A=0.\RMSD=6.563e-10\RMSF=2.983e-06\ZeroPoint=0.0444875\Th
 ermal=0.047357\Dipole=0.0000015,-0.0000002,-0.0000001\DipoleDeriv=-0.0
 276365,0.0000044,-0.0000032,0.0000023,-0.0276614,0.0000087,-0.0000005,
 -0.000003,-0.0276443,0.0772154,-0.0236104,-0.0147446,-0.0236002,-0.075
 9973,-0.0979629,-0.0147443,-0.0979899,0.019535,-0.0365188,0.0128922,0.
 1098343,0.0129004,0.0793388,-0.0120776,0.1098284,-0.0120615,-0.0220918
 ,0.0805258,0.0057319,-0.0044848,0.0057203,-0.0562791,0.1074416,-0.0044
 905,0.1074675,-0.0034849,-0.0935858,0.0049819,-0.0906017,0.0049773,0.0
 80599,0.0025902,-0.0905932,0.0025869,0.033686\Polar=14.2878997,0.00003
 57,14.287313,-0.0001045,0.0000601,14.2880081\PG=C01 [X(C1H4)]\NImag=0\
 \0.53896343,0.00000412,0.53897200,0.00001018,-0.00000346,0.53896465,-0
 .04892427,-0.02880599,-0.01800378,0.04917186,-0.02880567,-0.23598025,-
 0.11959923,0.03165933,0.25475492,-0.01800201,-0.11959827,-0.11932326,0
 .01978576,0.13144277,0.12654510,-0.18775528,0.01573771,0.13407292,0.00
 366940,-0.00003876,-0.00462762,0.20175471,0.01573750,-0.04631698,-0.01
 474099,0.02136374,-0.00120300,-0.01784757,-0.01729660,0.04630890,0.134
 07284,-0.01474127,-0.17014565,0.01149778,0.00042134,-0.01121458,-0.147
 35186,0.01620054,0.18240037,-0.04487661,0.00698855,-0.00547961,-0.0015
 0468,-0.00311674,0.00305188,0.00123485,-0.02013336,0.01361481,0.044724
 74,0.00698860,-0.21191365,0.13118134,0.00125905,-0.01942851,0.01769187
 ,-0.00053785,0.00297119,-0.00332474,-0.00768079,0.22830608,-0.00547777
 ,0.13117985,-0.14742750,0.00096016,-0.01437335,0.01218455,-0.00258918,
 0.01680652,-0.01295557,0.00602078,-0.14417150,0.15743335,-0.25740727,0
 .00607560,-0.11059972,-0.00241231,0.00030184,-0.00020800,-0.01890367,0
 .00032872,-0.01183358,0.00042170,-0.00002902,0.00108601,0.27830155,0.0
 0607544,-0.04476112,0.00316234,-0.02547613,0.00185684,-0.01168881,0.00
 213550,-0.00176010,0.00144413,0.02394233,0.00006488,0.01055848,-0.0066
 7714,0.04459950,-0.11060325,0.00316315,-0.10206824,-0.01423992,0.00210
 846,-0.00819181,0.02049574,-0.00041850,0.01191543,-0.01720786,-0.00137
 698,-0.00923483,0.12155529,-0.00347613,0.10757945\\0.00000051,0.,0.000
 00002,0.00000070,0.00000486,0.00000300,0.00000395,-0.00000044,-0.00000
 397,0.00000007,-0.00000446,0.00000370,-0.00000523,0.00000005,-0.000002
 75\\\@


 LIFE CAN ONLY BE UNDERSTOOD BACKWARD, BUT MUST
 BE LIVED FORWARD. -- KIRKEGAARD
 Job cpu time:  0 days  0 hours  1 minutes 27.6 seconds.
 File lengths (MBytes):  RWF=     17 Int=      0 D2E=      0 Chk=      6 Scr=      1
 Normal termination of Gaussian 03 at Mon Mar 30 15:43:35 2009.
