 Entering Gaussian System, Link 0=g03
 Input=./CH4.gau
 Output=./CH4.log
 Initial command:
 /opt//g03/l1.exe /scratch/Gau-13991.inp -scrdir=/scratch/
 Entering Link 1 = /opt//g03/l1.exe PID=     14008.
  
 Copyright (c) 1988,1990,1992,1993,1995,1998,2003,2004,2007, Gaussian, Inc.

 Cite this work as:
 Leave Link    1 at Mon Mar 30 15:42:29 2009, MaxMem=          0 cpu:       0.2
 (Enter /opt//g03/l101.exe)
 ---------------------------
 #NewComb uB971/6-311+G(d,p)
 ---------------------------
 Symbolic Z-matrix:
 Charge =  0 Multiplicity = 1
 C                     1.02054  -0.02666   5.03634 
 H                     1.15867   0.89102   5.60982 
 H                     1.81427  -0.11392   4.29305 
 H                     1.05637  -0.88472   5.70905 
 H                     0.05285   0.00098   4.53344 
 
 Leave Link  101 at Mon Mar 30 15:42:29 2009, MaxMem=    6291456 cpu:       0.1
 #NewComb uB971/6-311+G(d,p)
 (Enter /opt//g03/l502.exe)
 Cycle   1  Pass 1  IDiag  1:
 Coeff:      0.834D-02 0.294D+00 0.698D+00

 SCF Done:  E(UB97-1+HF-B97-1) =  -40.5111790287     A.U. after    5 cycles
             Convg  =    0.8567D-08             -V/T =  2.0053
             S**2   =   0.0000
 KE= 4.029583861577D+01 PE=-1.200797414500D+02 EE= 2.586817089306D+01
 Annihilation of the first spin contaminant:
 S**2 before annihilation     0.0000,   after     0.0000
 Leave Link  502 at Mon Mar 30 15:42:47 2009, MaxMem=    6291456 cpu:       7.6
 #NewComb uB971/6-311+G(d,p)
 (Enter /opt//g03/l716.exe)
 Dipole        = 1.54502254D-06-1.84480782D-07-1.70341307D-07
 -------------------------------------------------------------------
 Center     Atomic                   Forces (Hartrees/Bohr)
 Number     Number              X              Y              Z
 -------------------------------------------------------------------
    1          6          -0.000000505    0.000000008   -0.000000025
    2          1          -0.000000697   -0.000004865   -0.000002998
    3          1          -0.000003952    0.000000445    0.000003971
    4          1          -0.000000074    0.000004460   -0.000003704
    5          1           0.000005229   -0.000000049    0.000002756
 -------------------------------------------------------------------
 Cartesian Forces:  Max     0.000005229 RMS     0.000002984
 Leave Link  716 at Mon Mar 30 15:42:49 2009, MaxMem=    6291456 cpu:       0.0
 #NewComb uB971/6-311+G(d,p)
 (Enter /opt//g03/l9999.exe)
 1\1\GINC-MONDRIAN\FOpt\UB971\6-311+G(d,p)\C1H4\SS663\30-Mar-2009\0\\#p
  uB971/6-311+G(d,p) opt=(Tight, NewEstmFC, MaxCyc = 200) freq #GFInput
  Population=Regular #Integral(Grid=UltraFine) Guess=Mix NoSymmetry\\#N
 ewComb uB971/6-311+G(d,p)\\0,1\C,1.0205384335,-0.0266600215,5.03634000
 3\H,1.1588721361,0.892361138,5.6106538195\H,1.8154275953,-0.1140475138
 ,4.2919697706\H,1.0564256091,-0.885976317,5.7100311148\H,0.0514362258,
 0.0010227143,4.5327052921\\Version=AM64L-G03RevE.01\HF=-40.511179\S2=0
 .\S2-1=0.\S2A=0.\RMSD=8.567e-09\RMSF=2.984e-06\Thermal=0.\Dipole=0.000
 0015,-0.0000002,-0.0000002\PG=C01 [X(C1H4)]\\@


 MOM AND DAD WENT TO ALPHA CENTAURI AND ALL
 I GOT WAS THIS DUMB T-SHIRT.
 Leave Link 9999 at Mon Mar 30 15:42:50 2009, MaxMem=    6291456 cpu:       0.0
 Job cpu time:  0 days  0 hours  0 minutes 35.7 seconds.
 File lengths (MBytes):  RWF=     17 Int=      0 D2E=      0 Chk=      6 Scr=      1
 Normal termination of Gaussian 03 at Mon Mar 30 15:42:50 2009.
 (Enter /opt//g03/l1.exe)
 Link1:  Proceeding to internal job step number  2.
 ---------------------------------------------------------------------
 #P Geom=AllCheck Guess=Read SCRF=Check GenChk UB971/6-311+G(d,p) Freq
 ---------------------------------------------------------------------
 1/6=200,7=10,10=4,29=7,30=1,38=1,40=1,46=1/1,3;
 2/15=1,40=1/2;
 3/5=4,6=6,7=111,11=2,16=1,24=10,25=1,30=1,70=2,71=2,74=-20,75=5/1,2,3;
 4/5=1,7=2/1;
 5/5=2,38=6/2;
 8/6=4,10=90,11=11/1;
 11/6=1,8=1,9=11,15=111,16=1,31=1/1,2,10;
 10/6=1,31=1/2;
 6/18=1,28=1/1;
 7/8=1,10=1,25=1,30=1/1,2,3,16;
 1/6=200,10=4,30=1,46=1/3;
 99//99;
 Leave Link    1 at Mon Mar 30 15:42:50 2009, MaxMem=          0 cpu:       0.1
 (Enter /opt//g03/l101.exe)
 ---------------------------
 #NewComb uB971/6-311+G(d,p)
 ---------------------------
 Redundant internal coordinates taken from checkpoint file:
 /scratch/Gau-14008.chk
 Charge =  0 Multiplicity = 1
 C,0,1.0205384335,-0.0266600215,5.036340003
 H,0,1.1588721361,0.892361138,5.6106538195
 H,0,1.8154275953,-0.1140475138,4.2919697706
 H,0,1.0564256091,-0.885976317,5.7100311148
 H,0,0.0514362258,0.0010227143,4.5327052921
 Recover connectivity data from disk.
 Leave Link  101 at Mon Mar 30 15:42:50 2009, MaxMem=    6291456 cpu:       0.0
 #NewComb uB971/6-311+G(d,p)
 (Enter /opt//g03/l716.exe)
 Dipole        = 1.51313187D-06-2.06531504D-07-1.33116600D-07
 Polarizability= 1.42878997D+01 3.56675918D-05 1.42873130D+01
                -1.04519450D-04 6.01378969D-05 1.42880081D+01
 Full mass-weighted force constant matrix:
 Low frequencies ---   -5.7592   -0.0005   -0.0002    0.0007    5.4210   11.2801
 Low frequencies --- 1335.2498 1335.2790 1335.2921
 Diagonal vibrational polarizability:
        0.3477215       0.3477035       0.3476808
 Harmonic frequencies (cm**-1), IR intensities (KM/Mole), Raman scattering
 activities (A**4/AMU), depolarization ratios for plane and unpolarized
 incident light, reduced masses (AMU), force constants (mDyne/A),
 and normal coordinates:
                     1                      2                      3
                     A                      A                      A
 Frequencies --  1335.2498              1335.2790              1335.2921
 Red. masses --     1.1801                 1.1801                 1.1801
 Frc consts  --     1.2397                 1.2397                 1.2397
 IR Inten    --    18.7197                18.7212                18.7204
 Atom AN      X      Y      Z        X      Y      Z        X      Y      Z
   1   6     0.07  -0.07  -0.07     0.10   0.05   0.06     0.01   0.09  -0.09
   2   1    -0.42  -0.06   0.08    -0.43   0.15  -0.03    -0.01  -0.29   0.51
   3   1     0.07   0.30  -0.07    -0.36  -0.25  -0.39     0.20  -0.46   0.21
   4   1    -0.36   0.28   0.39    -0.48  -0.23  -0.27    -0.05   0.11   0.00
   5   1    -0.18   0.34   0.43     0.08  -0.25   0.02    -0.21  -0.43   0.33
                     4                      5                      6
                     A                      A                      A
 Frequencies --  1555.2120              1555.2274              3018.4220
 Red. masses --     1.0078                 1.0078                 1.0078
 Frc consts  --     1.4362                 1.4362                 5.4100
 IR Inten    --     0.0000                 0.0000                 0.0000
 Atom AN      X      Y      Z        X      Y      Z        X      Y      Z
   1   6     0.00   0.00   0.00     0.00   0.00   0.00     0.00   0.00   0.00
   2   1     0.40  -0.20   0.23    -0.30  -0.18   0.36     0.06   0.42   0.26
   3   1    -0.20   0.37  -0.26    -0.28  -0.33  -0.26     0.36  -0.04  -0.34
   4   1    -0.32   0.23   0.31     0.38   0.21   0.25     0.02  -0.39   0.31
   5   1     0.13  -0.40  -0.27     0.19   0.30  -0.35    -0.44   0.01  -0.23
                     7                      8                      9
                     A                      A                      A
 Frequencies --  3131.0000              3131.0232              3131.0533
 Red. masses --     1.1007                 1.1007                 1.1007
 Frc consts  --     6.3572                 6.3573                 6.3575
 IR Inten    --    23.7305                23.7272                23.7341
 Atom AN      X      Y      Z        X      Y      Z        X      Y      Z
   1   6    -0.05  -0.02   0.08    -0.02   0.09   0.01     0.08   0.01   0.05
   2   1    -0.03  -0.16  -0.08    -0.10  -0.61  -0.39    -0.04  -0.36  -0.21
   3   1     0.59  -0.07  -0.54     0.18   0.00  -0.17    -0.12   0.02   0.14
   4   1    -0.03   0.44  -0.33     0.02  -0.47   0.39     0.01   0.20  -0.14
   5   1     0.05  -0.01   0.05     0.11   0.02   0.06    -0.75   0.02  -0.39

 -------------------
 - Thermochemistry -
 -------------------
 Temperature   298.150 Kelvin.  Pressure   1.00000 Atm.
 Atom  1 has atomic number  6 and mass  12.00000
 Atom  2 has atomic number  1 and mass   1.00783
 Atom  3 has atomic number  1 and mass   1.00783
 Atom  4 has atomic number  1 and mass   1.00783
 Atom  5 has atomic number  1 and mass   1.00783
 Molecular mass:    16.03130 amu.
 Principal axes and moments of inertia in atomic units:
                           1         2         3
     EIGENVALUES --    11.45512  11.45515  11.45516
           X            0.74585   0.31196  -0.58854
           Y            0.14432   0.78689   0.59998
           Z            0.65029  -0.53243   0.54188
 This molecule is an asymmetric top.
 Rotational symmetry number  1.
 Rotational temperatures (Kelvin)      7.56115     7.56113     7.56112
 Rotational constants (GHZ):         157.54893   157.54850   157.54830
 Zero-point vibrational energy     116801.9 (Joules/Mol)
                                   27.91633 (Kcal/Mol)
 Vibrational temperatures:   1921.12  1921.17  1921.19  2237.60  2237.62
          (Kelvin)           4342.83  4504.81  4504.84  4504.88
 
 Zero-point correction=                           0.044488 (Hartree/Particle)
 Thermal correction to Energy=                    0.047357
 Thermal correction to Enthalpy=                  0.048301
 Thermal correction to Gibbs Free Energy=         0.024819
 Sum of electronic and zero-point Energies=            -40.466692
 Sum of electronic and thermal Energies=               -40.463822
 Sum of electronic and thermal Enthalpies=             -40.462878
 Sum of electronic and thermal Free Energies=          -40.486360
 
 Leave Link  716 at Mon Mar 30 15:43:35 2009, MaxMem=    6291456 cpu:       0.0
 #NewComb uB971/6-311+G(d,p)
 (Enter /opt//g03/l9999.exe)
 1\1\GINC-MONDRIAN\Freq\UB971\6-311+G(d,p)\C1H4\SS663\30-Mar-2009\0\\#P
  Geom=AllCheck Guess=Read SCRF=Check GenChk UB971/6-311+G(d,p) Freq\\#
 NewComb uB971/6-311+G(d,p)\\0,1\C,1.0205384335,-0.0266600215,5.0363400
 03\H,1.1588721361,0.892361138,5.6106538195\H,1.8154275953,-0.114047513
 8,4.2919697706\H,1.0564256091,-0.885976317,5.7100311148\H,0.0514362258
 ,0.0010227143,4.5327052921\\Version=AM64L-G03RevE.01\HF=-40.511179\S2=
 0.\S2-1=0.\S2A=0.\RMSD=6.563e-10\RMSF=2.983e-06\ZeroPoint=0.0444875\Th
 ermal=0.047357\Dipole=0.0000015,-0.0000002,-0.0000001\DipoleDeriv=-0.0
 276365,0.0000044,-0.0000032,0.0000023,-0.0276614,0.0000087,-0.0000005,
 -0.000003,-0.0276443,0.0772154,-0.0236104,-0.0147446,-0.0236002,-0.075
 9973,-0.0979629,-0.0147443,-0.0979899,0.019535,-0.0365188,0.0128922,0.
 1098343,0.0129004,0.0793388,-0.0120776,0.1098284,-0.0120615,-0.0220918
 ,0.0805258,0.0057319,-0.0044848,0.0057203,-0.0562791,0.1074416,-0.0044
 905,0.1074675,-0.0034849,-0.0935858,0.0049819,-0.0906017,0.0049773,0.0
 80599,0.0025902,-0.0905932,0.0025869,0.033686\Polar=14.2878997,0.00003
 57,14.287313,-0.0001045,0.0000601,14.2880081\PG=C01 [X(C1H4)]\NImag=0\
 \0.53896343,0.00000412,0.53897200,0.00001018,-0.00000346,0.53896465,-0
 .04892427,-0.02880599,-0.01800378,0.04917186,-0.02880567,-0.23598025,-
 0.11959923,0.03165933,0.25475492,-0.01800201,-0.11959827,-0.11932326,0
 .01978576,0.13144277,0.12654510,-0.18775528,0.01573771,0.13407292,0.00
 366940,-0.00003876,-0.00462762,0.20175471,0.01573750,-0.04631698,-0.01
 474099,0.02136374,-0.00120300,-0.01784757,-0.01729660,0.04630890,0.134
 07284,-0.01474127,-0.17014565,0.01149778,0.00042134,-0.01121458,-0.147
 35186,0.01620054,0.18240037,-0.04487661,0.00698855,-0.00547961,-0.0015
 0468,-0.00311674,0.00305188,0.00123485,-0.02013336,0.01361481,0.044724
 74,0.00698860,-0.21191365,0.13118134,0.00125905,-0.01942851,0.01769187
 ,-0.00053785,0.00297119,-0.00332474,-0.00768079,0.22830608,-0.00547777
 ,0.13117985,-0.14742750,0.00096016,-0.01437335,0.01218455,-0.00258918,
 0.01680652,-0.01295557,0.00602078,-0.14417150,0.15743335,-0.25740727,0
 .00607560,-0.11059972,-0.00241231,0.00030184,-0.00020800,-0.01890367,0
 .00032872,-0.01183358,0.00042170,-0.00002902,0.00108601,0.27830155,0.0
 0607544,-0.04476112,0.00316234,-0.02547613,0.00185684,-0.01168881,0.00
 213550,-0.00176010,0.00144413,0.02394233,0.00006488,0.01055848,-0.0066
 7714,0.04459950,-0.11060325,0.00316315,-0.10206824,-0.01423992,0.00210
 846,-0.00819181,0.02049574,-0.00041850,0.01191543,-0.01720786,-0.00137
 698,-0.00923483,0.12155529,-0.00347613,0.10757945\\0.00000051,0.,0.000
 00002,0.00000070,0.00000486,0.00000300,0.00000395,-0.00000044,-0.00000
 397,0.00000007,-0.00000446,0.00000370,-0.00000523,0.00000005,-0.000002
 75\\\@


 LIFE CAN ONLY BE UNDERSTOOD BACKWARD, BUT MUST
 BE LIVED FORWARD. -- KIRKEGAARD
 Job cpu time:  0 days  0 hours  1 minutes 27.6 seconds.
 File lengths (MBytes):  RWF=     17 Int=      0 D2E=      0 Chk=      6 Scr=      1
 Normal termination of Gaussian 03 at Mon Mar 30 15:43:35 2009.
