 Entering Gaussian System, Link 0=g03
 Input=./Q5J.gau
 Output=./Q5J.log
 Initial command:
 /opt//g03/l1.exe /scratch/Gau-13566.inp -scrdir=/scratch/
 Entering Link 1 = /opt//g03/l1.exe PID=     13585.
  
 Copyright (c) 1988,1990,1992,1993,1995,1998,2003,2004,2007, Gaussian, Inc.
                  All Rights Reserved.
  
 This is the Gaussian(R) 03 program.  It is based on the
 the Gaussian(R) 98 system (copyright 1998, Gaussian, Inc.),
 the Gaussian(R) 94 system (copyright 1995, Gaussian, Inc.),
 the Gaussian 92(TM) system (copyright 1992, Gaussian, Inc.),
 the Gaussian 90(TM) system (copyright 1990, Gaussian, Inc.),
 the Gaussian 88(TM) system (copyright 1988, Gaussian, Inc.),
 the Gaussian 86(TM) system (copyright 1986, Carnegie Mellon
 University), and the Gaussian 82(TM) system (copyright 1983,
 Carnegie Mellon University). Gaussian is a federally registered
 trademark of Gaussian, Inc.
  
 This software contains proprietary and confidential information,
 including trade secrets, belonging to Gaussian, Inc.
  
 This software is provided under written license and may be
 used, copied, transmitted, or stored only in accord with that
 written license.
  
 The following legend is applicable only to US Government
 contracts under FAR:
  
                    RESTRICTED RIGHTS LEGEND
  
 Use, reproduction and disclosure by the US Government is
 subject to restrictions as set forth in subparagraphs (a)
 and (c) of the Commercial Computer Software - Restricted
 Rights clause in FAR 52.227-19.
  
 Gaussian, Inc.
 340 Quinnipiac St., Bldg. 40, Wallingford CT 06492
  
  
 ---------------------------------------------------------------
 Warning -- This program may not be used in any manner that
 competes with the business of Gaussian, Inc. or will provide
 assistance to any competitor of Gaussian, Inc.  The licensee
 of this program is prohibited from giving any competitor of
 Gaussian, Inc. access to this program.  By using this program,
 the user acknowledges that Gaussian, Inc. is engaged in the
 business of creating and licensing software in the field of
 computational chemistry and represents and warrants to the
 licensee that it is not a competitor of Gaussian, Inc. and that
 it will not use this program in any manner prohibited above.
 ---------------------------------------------------------------
  

 Cite this work as:
 Gaussian 03, Revision E.01,
 M. J. Frisch, G. W. Trucks, H. B. Schlegel, G. E. Scuseria, 
 M. A. Robb, J. R. Cheeseman, J. A. Montgomery, Jr., T. Vreven, 
 K. N. Kudin, J. C. Burant, J. M. Millam, S. S. Iyengar, J. Tomasi, 
 V. Barone, B. Mennucci, M. Cossi, G. Scalmani, N. Rega, 
 G. A. Petersson, H. Nakatsuji, M. Hada, M. Ehara, K. Toyota, 
 R. Fukuda, J. Hasegawa, M. Ishida, T. Nakajima, Y. Honda, O. Kitao, 
 H. Nakai, M. Klene, X. Li, J. E. Knox, H. P. Hratchian, J. B. Cross, 
 V. Bakken, C. Adamo, J. Jaramillo, R. Gomperts, R. E. Stratmann, 
 O. Yazyev, A. J. Austin, R. Cammi, C. Pomelli, J. W. Ochterski, 
 P. Y. Ayala, K. Morokuma, G. A. Voth, P. Salvador, J. J. Dannenberg, 
 V. G. Zakrzewski, S. Dapprich, A. D. Daniels, M. C. Strain, 
 O. Farkas, D. K. Malick, A. D. Rabuck, K. Raghavachari, 
 J. B. Foresman, J. V. Ortiz, Q. Cui, A. G. Baboul, S. Clifford, 
 J. Cioslowski, B. B. Stefanov, G. Liu, A. Liashenko, P. Piskorz, 
 I. Komaromi, R. L. Martin, D. J. Fox, T. Keith, M. A. Al-Laham, 
 C. Y. Peng, A. Nanayakkara, M. Challacombe, P. M. W. Gill, 
 B. Johnson, W. Chen, M. W. Wong, C. Gonzalez, and J. A. Pople, 
 Gaussian, Inc., Wallingford CT, 2004.
 
 ******************************************
 Gaussian 03:  AM64L-G03RevE.01 11-Sep-2007
                12-Apr-2009 
 ******************************************
 %NProcShared=8
 Will use up to    8 processors via shared memory.
 %Mem=500MW
 ----------------------------------------------------------------------
 #p uB971/6-311+G(d,p) #GFInput Population=Regular #Integral(Grid=Ultra
 Fine) Guess=Mix NoSymmetry
 ----------------------------------------------------------------------

 Warning!  SCF SP cutoffs with diffuse functions may be unreliable.
 Consider SCF=Tight

 1/38=1/1;
 2/15=1,17=6,18=5,40=1/2;
 3/5=4,6=6,7=111,11=2,16=1,24=10,25=1,30=1,74=-20,75=5/1,2,3;
 4/7=2,9=2,13=1/1;
 5/5=2,32=1,38=5/2;
 6/28=1/1;
 99/5=1,9=1/99;
 Leave Link    1 at Sun Apr 12 05:09:06 2009, MaxMem=  524288000 cpu:       0.8
 (Enter /opt//g03/l101.exe)
 --------------------------------------------------------------------
 Title : SPE Cal using uB971/6-311+G(d,p) with UltraFine from Q5J.mol
 --------------------------------------------------------------------
 Symbolic Z-matrix:
 Charge =  0 Multiplicity = 1
 Si                    0.        0.        0. 
 O                     0.        0.        1.62017 
 O                     1.47401   0.       -0.69802 
 O                    -0.73638  -1.36999  -0.48316 
 O                    -0.73435   1.38098  -0.45836 
 C                     0.35246  -1.07642   2.4524 
 H                    -0.25264  -1.94756   2.23469 
 H                     1.39924  -1.3317    2.32951 
 H                     0.18535  -0.77432   3.47701 
 H                     1.89309   0.84131  -0.8127 
 H                    -0.53868  -1.68184  -1.35486 
 H                    -1.41939   1.70979   0.10656 
 
                    Isotopes and Nuclear Properties:
 (Nuclear quadrupole moments (NQMom) in fm**2, nuclear magnetic moments (NMagM)
  in nuclear magnetons)

  Atom         1           2           3           4           5           6           7           8           9          10
 IAtWgt=          28          16          16          16          16          12           1           1           1           1
 AtmWgt=  27.9769284  15.9949146  15.9949146  15.9949146  15.9949146  12.0000000   1.0078250   1.0078250   1.0078250   1.0078250
 NucSpn=           0           0           0           0           0           0           1           1           1           1
 AtZEff=   0.0000000   0.0000000   0.0000000   0.0000000   0.0000000   0.0000000   0.0000000   0.0000000   0.0000000   0.0000000
 NQMom=    0.0000000   0.0000000   0.0000000   0.0000000   0.0000000   0.0000000   0.0000000   0.0000000   0.0000000   0.0000000
 NMagM=    0.0000000   0.0000000   0.0000000   0.0000000   0.0000000   0.0000000   2.7928460   2.7928460   2.7928460   2.7928460

  Atom        11          12
 IAtWgt=           1           1
 AtmWgt=   1.0078250   1.0078250
 NucSpn=           1           1
 AtZEff=   0.0000000   0.0000000
 NQMom=    0.0000000   0.0000000
 NMagM=    2.7928460   2.7928460
 Leave Link  101 at Sun Apr 12 05:09:09 2009, MaxMem=  524288000 cpu:       0.3
 (Enter /opt//g03/l202.exe)
                          Input orientation:                          
 ---------------------------------------------------------------------
 Center     Atomic     Atomic              Coordinates (Angstroms)
 Number     Number      Type              X           Y           Z
 ---------------------------------------------------------------------
    1         14             0        0.000000    0.000000    0.000000
    2          8             0        0.000000    0.000000    1.620170
    3          8             0        1.474010    0.000000   -0.698020
    4          8             0       -0.736380   -1.369990   -0.483160
    5          8             0       -0.734350    1.380980   -0.458360
    6          6             0        0.352460   -1.076420    2.452400
    7          1             0       -0.252640   -1.947560    2.234690
    8          1             0        1.399240   -1.331700    2.329510
    9          1             0        0.185350   -0.774320    3.477010
   10          1             0        1.893090    0.841310   -0.812700
   11          1             0       -0.538680   -1.681840   -1.354860
   12          1             0       -1.419390    1.709790    0.106560
 ---------------------------------------------------------------------
                    Distance matrix (angstroms):
                    1          2          3          4          5
     1  Si   0.000000
     2  O    1.620170   0.000000
     3  O    1.630931   2.747128   0.000000
     4  O    1.628672   2.615937   2.609379   0.000000
     5  O    1.629868   2.601281   2.615606   2.751083   0.000000
     6  C    2.701328   1.405530   3.513076   3.144721   3.961375
     7  H    2.975005   2.057778   3.921109   2.820337   4.308566
     8  H    3.026205   2.057781   3.308316   3.531777   4.436559
     9  H    3.567005   2.020342   4.437465   4.109423   4.580208
    10  H    2.225325   3.195379   0.946880   3.451457   2.705594
    11  H    2.225850   3.459706   2.703876   0.946677   3.197322
    12  H    2.224726   2.688692   3.455791   3.209255   0.946853
                    6          7          8          9         10
     6  C    0.000000
     7  H    1.082787   0.000000
     8  H    1.084444   1.765498   0.000000
     9  H    1.081210   1.763997   1.760954   0.000000
    10  H    4.088044   4.654948   3.852187   4.891651   0.000000
    11  H    3.956753   3.610719   4.177645   4.969384   3.545945
    12  H    4.050356   4.389357   4.704981   4.483963   3.545676
                   11         12
    11  H    0.000000
    12  H    3.796650   0.000000
 Symmetry turned off by external request.
 Stoichiometry    CH6O4Si
 Framework group  C1[X(CH6O4Si)]
 Deg. of freedom    30
 Full point group                 C1
 Rotational constants (GHZ):      3.9029496      2.3002856      2.2060784
 Leave Link  202 at Sun Apr 12 05:09:13 2009, MaxMem=  524288000 cpu:       0.4
 (Enter /opt//g03/l301.exe)
 Standard basis: 6-311+G(d,p) (5D, 7F)
 AO basis set in the form of general basis input:
      1 0
 S   6 1.00       0.000000000000
      0.6937923000D+05  0.7570004081D-03
      0.1035494000D+05  0.5932003198D-02
      0.2333879600D+04  0.3108801676D-01
      0.6571429500D+03  0.1249670674D+00
      0.2143011300D+03  0.3868972086D+00
      0.7762916800D+02  0.5548882991D+00
 S   3 1.00       0.000000000000
      0.7762916800D+02  0.1778809451D+00
      0.3063080700D+02  0.6277648062D+00
      0.1280129500D+02  0.2476229236D+00
 S   1 1.00       0.000000000000
      0.3926866000D+01  0.1000000000D+01
 S   1 1.00       0.000000000000
      0.1452343000D+01  0.1000000000D+01
 S   1 1.00       0.000000000000
      0.2562340000D+00  0.1000000000D+01
 S   1 1.00       0.000000000000
      0.9427900000D-01  0.1000000000D+01
 P   4 1.00       0.000000000000
      0.3354831900D+03  0.8865998148D-02
      0.7890036600D+02  0.6829898573D-01
      0.2498815000D+02  0.2909579392D+00
      0.9219711000D+01  0.7321168470D+00
 P   2 1.00       0.000000000000
      0.3621140000D+01  0.6198794404D+00
      0.1451310000D+01  0.4391483120D+00
 P   1 1.00       0.000000000000
      0.5049770000D+00  0.1000000000D+01
 P   1 1.00       0.000000000000
      0.1863170000D+00  0.1000000000D+01
 P   1 1.00       0.000000000000
      0.6543200000D-01  0.1000000000D+01
 SP   1 1.00       0.000000000000
      0.3310000000D-01  0.1000000000D+01  0.1000000000D+01
 D   1 1.00       0.000000000000
      0.4500000000D+00  0.1000000000D+01
 ****
      2 0
 S   6 1.00       0.000000000000
      0.8588500000D+04  0.1895150083D-02
      0.1297230000D+04  0.1438590063D-01
      0.2992960000D+03  0.7073200310D-01
      0.8737710000D+02  0.2400010105D+00
      0.2567890000D+02  0.5947970261D+00
      0.3740040000D+01  0.2808020123D+00
 SP   3 1.00       0.000000000000
      0.4211750000D+02  0.1138890124D+00  0.3651139738D-01
      0.9628370000D+01  0.9208111006D+00  0.2371529830D+00
      0.2853320000D+01 -0.3274470358D-02  0.8197019412D+00
 SP   1 1.00       0.000000000000
      0.9056610000D+00  0.1000000000D+01  0.1000000000D+01
 SP   1 1.00       0.000000000000
      0.2556110000D+00  0.1000000000D+01  0.1000000000D+01
 SP   1 1.00       0.000000000000
      0.8450000000D-01  0.1000000000D+01  0.1000000000D+01
 D   1 1.00       0.000000000000
      0.1292000000D+01  0.1000000000D+01
 ****
      3 0
 S   6 1.00       0.000000000000
      0.8588500000D+04  0.1895150083D-02
      0.1297230000D+04  0.1438590063D-01
      0.2992960000D+03  0.7073200310D-01
      0.8737710000D+02  0.2400010105D+00
      0.2567890000D+02  0.5947970261D+00
      0.3740040000D+01  0.2808020123D+00
 SP   3 1.00       0.000000000000
      0.4211750000D+02  0.1138890124D+00  0.3651139738D-01
      0.9628370000D+01  0.9208111006D+00  0.2371529830D+00
      0.2853320000D+01 -0.3274470358D-02  0.8197019412D+00
 SP   1 1.00       0.000000000000
      0.9056610000D+00  0.1000000000D+01  0.1000000000D+01
 SP   1 1.00       0.000000000000
      0.2556110000D+00  0.1000000000D+01  0.1000000000D+01
 SP   1 1.00       0.000000000000
      0.8450000000D-01  0.1000000000D+01  0.1000000000D+01
 D   1 1.00       0.000000000000
      0.1292000000D+01  0.1000000000D+01
 ****
      4 0
 S   6 1.00       0.000000000000
      0.8588500000D+04  0.1895150083D-02
      0.1297230000D+04  0.1438590063D-01
      0.2992960000D+03  0.7073200310D-01
      0.8737710000D+02  0.2400010105D+00
      0.2567890000D+02  0.5947970261D+00
      0.3740040000D+01  0.2808020123D+00
 SP   3 1.00       0.000000000000
      0.4211750000D+02  0.1138890124D+00  0.3651139738D-01
      0.9628370000D+01  0.9208111006D+00  0.2371529830D+00
      0.2853320000D+01 -0.3274470358D-02  0.8197019412D+00
 SP   1 1.00       0.000000000000
      0.9056610000D+00  0.1000000000D+01  0.1000000000D+01
 SP   1 1.00       0.000000000000
      0.2556110000D+00  0.1000000000D+01  0.1000000000D+01
 SP   1 1.00       0.000000000000
      0.8450000000D-01  0.1000000000D+01  0.1000000000D+01
 D   1 1.00       0.000000000000
      0.1292000000D+01  0.1000000000D+01
 ****
      5 0
 S   6 1.00       0.000000000000
      0.8588500000D+04  0.1895150083D-02
      0.1297230000D+04  0.1438590063D-01
      0.2992960000D+03  0.7073200310D-01
      0.8737710000D+02  0.2400010105D+00
      0.2567890000D+02  0.5947970261D+00
      0.3740040000D+01  0.2808020123D+00
 SP   3 1.00       0.000000000000
      0.4211750000D+02  0.1138890124D+00  0.3651139738D-01
      0.9628370000D+01  0.9208111006D+00  0.2371529830D+00
      0.2853320000D+01 -0.3274470358D-02  0.8197019412D+00
 SP   1 1.00       0.000000000000
      0.9056610000D+00  0.1000000000D+01  0.1000000000D+01
 SP   1 1.00       0.000000000000
      0.2556110000D+00  0.1000000000D+01  0.1000000000D+01
 SP   1 1.00       0.000000000000
      0.8450000000D-01  0.1000000000D+01  0.1000000000D+01
 D   1 1.00       0.000000000000
      0.1292000000D+01  0.1000000000D+01
 ****
      6 0
 S   6 1.00       0.000000000000
      0.4563240000D+04  0.1966650249D-02
      0.6820240000D+03  0.1523060193D-01
      0.1549730000D+03  0.7612690966D-01
      0.4445530000D+02  0.2608010331D+00
      0.1302900000D+02  0.6164620782D+00
      0.1827730000D+01  0.2210060280D+00
 SP   3 1.00       0.000000000000
      0.2096420000D+02  0.1146600807D+00  0.4024869267D-01
      0.4803310000D+01  0.9199996477D+00  0.2375939567D+00
      0.1459330000D+01 -0.3030682134D-02  0.8158538515D+00
 SP   1 1.00       0.000000000000
      0.4834560000D+00  0.1000000000D+01  0.1000000000D+01
 SP   1 1.00       0.000000000000
      0.1455850000D+00  0.1000000000D+01  0.1000000000D+01
 SP   1 1.00       0.000000000000
      0.4380000000D-01  0.1000000000D+01  0.1000000000D+01
 D   1 1.00       0.000000000000
      0.6260000000D+00  0.1000000000D+01
 ****
      7 0
 S   3 1.00       0.000000000000
      0.3386500000D+02  0.2549381454D-01
      0.5094790000D+01  0.1903731086D+00
      0.1158790000D+01  0.8521614860D+00
 S   1 1.00       0.000000000000
      0.3258400000D+00  0.1000000000D+01
 S   1 1.00       0.000000000000
      0.1027410000D+00  0.1000000000D+01
 P   1 1.00       0.000000000000
      0.7500000000D+00  0.1000000000D+01
 ****
      8 0
 S   3 1.00       0.000000000000
      0.3386500000D+02  0.2549381454D-01
      0.5094790000D+01  0.1903731086D+00
      0.1158790000D+01  0.8521614860D+00
 S   1 1.00       0.000000000000
      0.3258400000D+00  0.1000000000D+01
 S   1 1.00       0.000000000000
      0.1027410000D+00  0.1000000000D+01
 P   1 1.00       0.000000000000
      0.7500000000D+00  0.1000000000D+01
 ****
      9 0
 S   3 1.00       0.000000000000
      0.3386500000D+02  0.2549381454D-01
      0.5094790000D+01  0.1903731086D+00
      0.1158790000D+01  0.8521614860D+00
 S   1 1.00       0.000000000000
      0.3258400000D+00  0.1000000000D+01
 S   1 1.00       0.000000000000
      0.1027410000D+00  0.1000000000D+01
 P   1 1.00       0.000000000000
      0.7500000000D+00  0.1000000000D+01
 ****
     10 0
 S   3 1.00       0.000000000000
      0.3386500000D+02  0.2549381454D-01
      0.5094790000D+01  0.1903731086D+00
      0.1158790000D+01  0.8521614860D+00
 S   1 1.00       0.000000000000
      0.3258400000D+00  0.1000000000D+01
 S   1 1.00       0.000000000000
      0.1027410000D+00  0.1000000000D+01
 P   1 1.00       0.000000000000
      0.7500000000D+00  0.1000000000D+01
 ****
     11 0
 S   3 1.00       0.000000000000
      0.3386500000D+02  0.2549381454D-01
      0.5094790000D+01  0.1903731086D+00
      0.1158790000D+01  0.8521614860D+00
 S   1 1.00       0.000000000000
      0.3258400000D+00  0.1000000000D+01
 S   1 1.00       0.000000000000
      0.1027410000D+00  0.1000000000D+01
 P   1 1.00       0.000000000000
      0.7500000000D+00  0.1000000000D+01
 ****
     12 0
 S   3 1.00       0.000000000000
      0.3386500000D+02  0.2549381454D-01
      0.5094790000D+01  0.1903731086D+00
      0.1158790000D+01  0.8521614860D+00
 S   1 1.00       0.000000000000
      0.3258400000D+00  0.1000000000D+01
 S   1 1.00       0.000000000000
      0.1027410000D+00  0.1000000000D+01
 P   1 1.00       0.000000000000
      0.7500000000D+00  0.1000000000D+01
 ****

 Integral buffers will be    131072 words long.
 Raffenetti 2 integral format.
 Two-electron integral symmetry is turned off.
   176 basis functions,   278 primitive gaussians,   182 cartesian basis functions
    29 alpha electrons       29 beta electrons
       nuclear repulsion energy       350.9205233127 Hartrees.
 IExCor=1614 DFT=T Ex=B97-1+HF Corr=B97-1 ExCW=0 ScaHFX=  0.210000
 ScaDFX=  1.000000  1.000000  1.000000  1.000000
 IRadAn=      5 IRanWt=     -1 IRanGd=            0 ICorTp=0
 NAtoms=   12 NActive=   12 NUniq=   12 SFac= 7.50D-01 NAtFMM=   80 NAOKFM=F Big=F
 Leave Link  301 at Sun Apr 12 05:09:16 2009, MaxMem=  524288000 cpu:       0.2
 (Enter /opt//g03/l302.exe)
 NPDir=0 NMtPBC=     1 NCelOv=     1 NCel=       1 NClECP=     1 NCelD=      1
         NCelK=      1 NCelE2=     1 NClLst=     1 CellRange=     0.0.
 One-electron integrals computed using PRISM.
 NBasis=   176 RedAO= T  NBF=   176
 NBsUse=   176 1.00D-06 NBFU=   176
 Precomputing XC quadrature grid using
 IXCGrd= 2 IRadAn=           5 IRanWt=          -1 IRanGd=           0.
 NRdTot=    1020 NPtTot=      273936 NUsed=      281125 NTot=      281157
 NSgBfM=   182   182   182   182.
 Leave Link  302 at Sun Apr 12 05:09:25 2009, MaxMem=  524288000 cpu:       1.9
 (Enter /opt//g03/l303.exe)
 DipDrv:  MaxL=1.
 Leave Link  303 at Sun Apr 12 05:09:33 2009, MaxMem=  524288000 cpu:       0.1
 (Enter /opt//g03/l401.exe)
 SCF N**3 symmetry information disabled.
 Harris functional with IExCor= 1614 diagonalized for initial guess.
 ExpMin= 3.31D-02 ExpMax= 6.94D+04 ExpMxC= 2.33D+03 IAcc=3 IRadAn=         5 AccDes= 0.00D+00
 HarFok:  IExCor=1614 AccDes= 0.00D+00 IRadAn=         5 IDoV=1
 ScaDFX=  1.000000  1.000000  1.000000  1.000000
 Harris En= -619.680401733623    
 <S**2> of initial guess= 1.0000
 Leave Link  401 at Sun Apr 12 05:09:38 2009, MaxMem=  524288000 cpu:       9.3
 (Enter /opt//g03/l502.exe)
 UHF open shell SCF:
 Requested convergence on RMS density matrix=1.00D-04 within 128 cycles.
 Requested convergence on MAX density matrix=1.00D-02.
 Requested convergence on             energy=1.00D-02.
 No special actions if energy rises.
 Using DIIS extrapolation, IDIIS=  1040.
 Two-electron integral symmetry not used.
       281124 words used for storage of precomputed grid.
 Keep R1 and R2 integrals in memory in canonical form, NReq=   281639875.
 IEnd=    416647 IEndB=    416647 NGot= 524288000 MDV= 246582224
 LenX= 246582224
 Symmetry not used in FoFDir.
 MinBra= 0 MaxBra= 2 Meth= 1.
 IRaf=       0 NMat=   1 IRICut=       1 DoRegI=T DoRafI=F ISym2E= 0 JSym2E=0.

 Cycle   1  Pass 1  IDiag  1:
 E= -631.829110363742    
 DIIS: error= 9.14D-02 at cycle   1 NSaved=   1.
 NSaved= 1 IEnMin= 1 EnMin= -631.829110363742     IErMin= 1 ErrMin= 9.14D-02
 ErrMax= 9.14D-02 EMaxC= 1.00D-01 BMatC= 4.65D+00 BMatP= 4.65D+00
 IDIUse=3 WtCom= 8.60D-02 WtEn= 9.14D-01
 Coeff-Com:  0.100D+01
 Coeff-En:   0.100D+01
 Coeff:      0.100D+01
 Gap=     0.036 Goal=   None    Shift=    0.000
 Gap=     0.041 Goal=   None    Shift=    0.000
 GapD=    0.036 DampG=0.250 DampE=0.500 DampFc=0.2500 IDamp=-1.
 Damping current iteration by 2.50D-01
 RMSDP=2.90D-02 MaxDP=2.14D+00              OVMax= 4.08D-01

 Cycle   2  Pass 1  IDiag  1:
 E= -631.965369936569     Delta-E=       -0.136259572827 Rises=F Damp=T
 DIIS: error= 6.76D-02 at cycle   2 NSaved=   2.
 NSaved= 2 IEnMin= 2 EnMin= -631.965369936569     IErMin= 2 ErrMin= 6.76D-02
 ErrMax= 6.76D-02 EMaxC= 1.00D-01 BMatC= 2.11D+00 BMatP= 4.65D+00
 IDIUse=3 WtCom= 3.24D-01 WtEn= 6.76D-01
 Coeff-Com: -0.145D+01 0.245D+01
 Coeff-En:   0.000D+00 0.100D+01
 Coeff:     -0.468D+00 0.147D+01
 Gap=     0.327 Goal=   None    Shift=    0.000
 Gap=     0.329 Goal=   None    Shift=    0.000
 RMSDP=2.16D-02 MaxDP=1.60D+00 DE=-1.36D-01 OVMax= 1.25D-01

 Cycle   3  Pass 1  IDiag  1:
 E= -632.267964351746     Delta-E=       -0.302594415177 Rises=F Damp=F
 DIIS: error= 7.47D-03 at cycle   3 NSaved=   3.
 NSaved= 3 IEnMin= 3 EnMin= -632.267964351746     IErMin= 3 ErrMin= 7.47D-03
 ErrMax= 7.47D-03 EMaxC= 1.00D-01 BMatC= 8.05D-02 BMatP= 2.11D+00
 IDIUse=3 WtCom= 9.25D-01 WtEn= 7.47D-02
 Coeff-Com:  0.142D+00-0.850D-01 0.943D+00
 Coeff-En:   0.000D+00 0.000D+00 0.100D+01
 Coeff:      0.132D+00-0.786D-01 0.947D+00
 Gap=     0.284 Goal=   None    Shift=    0.000
 Gap=     0.283 Goal=   None    Shift=    0.000
 RMSDP=1.18D-03 MaxDP=2.03D-02 DE=-3.03D-01 OVMax= 3.99D-02

 Cycle   4  Pass 1  IDiag  1:
 E= -632.275479082278     Delta-E=       -0.007514730532 Rises=F Damp=F
 DIIS: error= 3.14D-03 at cycle   4 NSaved=   4.
 NSaved= 4 IEnMin= 4 EnMin= -632.275479082278     IErMin= 4 ErrMin= 3.14D-03
 ErrMax= 3.14D-03 EMaxC= 1.00D-01 BMatC= 1.51D-02 BMatP= 8.05D-02
 IDIUse=3 WtCom= 9.69D-01 WtEn= 3.14D-02
 Coeff-Com:  0.478D-01-0.492D-01 0.333D+00 0.668D+00
 Coeff-En:   0.000D+00 0.000D+00 0.000D+00 0.100D+01
 Coeff:      0.463D-01-0.476D-01 0.323D+00 0.678D+00
 Gap=     0.290 Goal=   None    Shift=    0.000
 Gap=     0.291 Goal=   None    Shift=    0.000
 RMSDP=3.72D-04 MaxDP=1.02D-02 DE=-7.51D-03 OVMax= 1.28D-02

 Cycle   5  Pass 1  IDiag  1:
 E= -632.277045376642     Delta-E=       -0.001566294364 Rises=F Damp=F
 DIIS: error= 2.03D-03 at cycle   5 NSaved=   5.
 NSaved= 5 IEnMin= 5 EnMin= -632.277045376642     IErMin= 5 ErrMin= 2.03D-03
 ErrMax= 2.03D-03 EMaxC= 1.00D-01 BMatC= 4.45D-03 BMatP= 1.51D-02
 IDIUse=3 WtCom= 9.80D-01 WtEn= 2.03D-02
 Coeff-Com: -0.132D-02 0.249D-02 0.100D+00 0.383D+00 0.515D+00
 Coeff-En:   0.000D+00 0.000D+00 0.000D+00 0.232D+00 0.768D+00
 Coeff:     -0.130D-02 0.244D-02 0.984D-01 0.380D+00 0.520D+00
 Gap=     0.290 Goal=   None    Shift=    0.000
 Gap=     0.290 Goal=   None    Shift=    0.000
 RMSDP=1.37D-04 MaxDP=4.26D-03 DE=-1.57D-03 OVMax= 5.44D-03

 Cycle   6  Pass 1  IDiag  1:
 E= -632.277768663421     Delta-E=       -0.000723286779 Rises=F Damp=F
 DIIS: error= 2.45D-04 at cycle   6 NSaved=   6.
 NSaved= 6 IEnMin= 6 EnMin= -632.277768663421     IErMin= 6 ErrMin= 2.45D-04
 ErrMax= 2.45D-04 EMaxC= 1.00D-01 BMatC= 1.11D-04 BMatP= 4.45D-03
 IDIUse=3 WtCom= 9.98D-01 WtEn= 2.45D-03
 Coeff-Com: -0.119D-01 0.162D-01 0.814D-02 0.813D-01 0.168D+00 0.738D+00
 Coeff-En:   0.000D+00 0.000D+00 0.000D+00 0.000D+00 0.000D+00 0.100D+01
 Coeff:     -0.118D-01 0.162D-01 0.812D-02 0.811D-01 0.168D+00 0.738D+00
 Gap=     0.291 Goal=   None    Shift=    0.000
 Gap=     0.291 Goal=   None    Shift=    0.000
 RMSDP=3.51D-05 MaxDP=1.05D-03 DE=-7.23D-04 OVMax= 2.17D-03

 SCF Done:  E(UB97-1+HF-B97-1) =  -632.277768663     A.U. after    6 cycles
             Convg  =    0.3511D-04             -V/T =  2.0018
             S**2   =   0.0000
 KE= 6.311397604885D+02 PE=-2.201209289028D+03 EE= 5.868712365636D+02
 Annihilation of the first spin contaminant:
 S**2 before annihilation     0.0000,   after     0.0000
 Leave Link  502 at Sun Apr 12 05:10:11 2009, MaxMem=  524288000 cpu:     197.5
 (Enter /opt//g03/l601.exe)
 Copying SCF densities to generalized density rwf, ISCF=1 IROHF=0.

 **********************************************************************

            Population analysis using the SCF density.

 **********************************************************************

 Alpha  occ. eigenvalues --  -66.17389 -19.14588 -19.14571 -19.14451 -19.14224
 Alpha  occ. eigenvalues --  -10.22502  -5.33912  -3.68610  -3.68588  -3.68574
 Alpha  occ. eigenvalues --   -1.05793  -1.02323  -1.01797  -1.01424  -0.70092
 Alpha  occ. eigenvalues --   -0.59212  -0.54071  -0.53595  -0.50158  -0.45883
 Alpha  occ. eigenvalues --   -0.45445  -0.39820  -0.38197  -0.37877  -0.35763
 Alpha  occ. eigenvalues --   -0.35155  -0.33032  -0.31678  -0.29964
 Alpha virt. eigenvalues --   -0.00826   0.02498   0.02988   0.03038   0.06080
 Alpha virt. eigenvalues --    0.07149   0.07568   0.10434   0.11982   0.12290
 Alpha virt. eigenvalues --    0.13657   0.14530   0.15109   0.15387   0.16357
 Alpha virt. eigenvalues --    0.18564   0.19044   0.19335   0.20842   0.21602
 Alpha virt. eigenvalues --    0.22577   0.23117   0.23680   0.25602   0.26567
 Alpha virt. eigenvalues --    0.27394   0.28919   0.29493   0.30539   0.31076
 Alpha virt. eigenvalues --    0.31498   0.32714   0.34893   0.36102   0.36944
 Alpha virt. eigenvalues --    0.38155   0.39960   0.43809   0.45881   0.50201
 Alpha virt. eigenvalues --    0.51998   0.55028   0.56765   0.57917   0.63647
 Alpha virt. eigenvalues --    0.64087   0.64930   0.67951   0.69339   0.73906
 Alpha virt. eigenvalues --    0.92653   0.93012   0.94560   0.96255   1.01219
 Alpha virt. eigenvalues --    1.03505   1.04541   1.06497   1.08987   1.09411
 Alpha virt. eigenvalues --    1.09806   1.13710   1.14241   1.14937   1.17007
 Alpha virt. eigenvalues --    1.21616   1.22632   1.29384   1.31857   1.33188
 Alpha virt. eigenvalues --    1.35112   1.39335   1.41376   1.43317   1.45776
 Alpha virt. eigenvalues --    1.48726   1.55791   1.56685   1.57226   1.59923
 Alpha virt. eigenvalues --    1.64007   1.68765   1.70135   1.73435   1.78798
 Alpha virt. eigenvalues --    1.80408   1.83964   2.03849   2.07308   2.07691
 Alpha virt. eigenvalues --    2.10310   2.13838   2.19561   2.44622   2.48730
 Alpha virt. eigenvalues --    2.49657   2.50855   2.51128   2.53925   2.54220
 Alpha virt. eigenvalues --    2.61331   2.81273   2.82409   2.84101   2.95547
 Alpha virt. eigenvalues --    2.96437   2.98334   3.01907   3.08033   3.09430
 Alpha virt. eigenvalues --    3.11502   3.12721   3.13333   3.15419   3.15794
 Alpha virt. eigenvalues --    3.18777   3.42119   3.42425   3.44726   3.79360
 Alpha virt. eigenvalues --    3.82969   3.83970   3.86665   3.88421   4.06132
 Alpha virt. eigenvalues --    4.95779   4.99188   5.01405   5.01996   5.04314
 Alpha virt. eigenvalues --    5.10883   5.12177   5.14825   5.52154   5.55876
 Alpha virt. eigenvalues --    5.56997   5.58041   5.96658  11.50044  11.55293
 Alpha virt. eigenvalues --   11.56877  23.97939  49.96500  49.96794  49.97731
 Alpha virt. eigenvalues --   49.98377 141.42127
  Beta  occ. eigenvalues --  -66.17389 -19.14591 -19.14567 -19.14449 -19.14226
  Beta  occ. eigenvalues --  -10.22502  -5.33912  -3.68611  -3.68588  -3.68573
  Beta  occ. eigenvalues --   -1.05793  -1.02324  -1.01799  -1.01419  -0.70092
  Beta  occ. eigenvalues --   -0.59212  -0.54073  -0.53593  -0.50157  -0.45890
  Beta  occ. eigenvalues --   -0.45439  -0.39816  -0.38192  -0.37879  -0.35762
  Beta  occ. eigenvalues --   -0.35153  -0.33032  -0.31678  -0.29967
  Beta virt. eigenvalues --   -0.00825   0.02495   0.02987   0.03039   0.06082
  Beta virt. eigenvalues --    0.07153   0.07564   0.10436   0.11981   0.12293
  Beta virt. eigenvalues --    0.13662   0.14530   0.15105   0.15393   0.16363
  Beta virt. eigenvalues --    0.18564   0.19042   0.19332   0.20844   0.21599
  Beta virt. eigenvalues --    0.22577   0.23118   0.23680   0.25601   0.26566
  Beta virt. eigenvalues --    0.27395   0.28922   0.29494   0.30538   0.31073
  Beta virt. eigenvalues --    0.31496   0.32718   0.34893   0.36103   0.36945
  Beta virt. eigenvalues --    0.38155   0.39960   0.43810   0.45881   0.50203
  Beta virt. eigenvalues --    0.51996   0.55030   0.56767   0.57915   0.63648
  Beta virt. eigenvalues --    0.64087   0.64931   0.67953   0.69338   0.73905
  Beta virt. eigenvalues --    0.92652   0.93012   0.94561   0.96258   1.01220
  Beta virt. eigenvalues --    1.03503   1.04541   1.06495   1.08987   1.09417
  Beta virt. eigenvalues --    1.09808   1.13710   1.14244   1.14937   1.17004
  Beta virt. eigenvalues --    1.21614   1.22631   1.29382   1.31859   1.33188
  Beta virt. eigenvalues --    1.35111   1.39334   1.41374   1.43315   1.45776
  Beta virt. eigenvalues --    1.48726   1.55792   1.56685   1.57227   1.59922
  Beta virt. eigenvalues --    1.64004   1.68765   1.70137   1.73436   1.78796
  Beta virt. eigenvalues --    1.80407   1.83964   2.03848   2.07308   2.07690
  Beta virt. eigenvalues --    2.10309   2.13838   2.19561   2.44622   2.48727
  Beta virt. eigenvalues --    2.49659   2.50854   2.51127   2.53924   2.54216
  Beta virt. eigenvalues --    2.61332   2.81272   2.82409   2.84102   2.95546
  Beta virt. eigenvalues --    2.96440   2.98334   3.01905   3.08037   3.09430
  Beta virt. eigenvalues --    3.11502   3.12724   3.13334   3.15416   3.15794
  Beta virt. eigenvalues --    3.18779   3.42122   3.42425   3.44724   3.79363
  Beta virt. eigenvalues --    3.82968   3.83969   3.86665   3.88425   4.06131
  Beta virt. eigenvalues --    4.95780   4.99187   5.01405   5.02001   5.04316
  Beta virt. eigenvalues --    5.10887   5.12173   5.14822   5.52155   5.55878
  Beta virt. eigenvalues --    5.56998   5.58040   5.96658  11.50044  11.55293
  Beta virt. eigenvalues --   11.56877  23.97939  49.96501  49.96793  49.97730
  Beta virt. eigenvalues --   49.98379 141.42127
     Alpha Molecular Orbital Coefficients
                          25        26        27        28        29
                           O         O         O         O         O
     EIGENVALUES --    -0.35763  -0.35155  -0.33032  -0.31678  -0.29964
   1 1   Si 1S          0.00179   0.00281  -0.00259  -0.00276   0.00028
   2        2S          0.00492   0.00774  -0.00712  -0.00760   0.00078
   3        3S         -0.01117  -0.01782   0.01629   0.01742  -0.00185
   4        4S         -0.01962  -0.02997   0.02816   0.03017  -0.00282
   5        5S          0.04014   0.06598  -0.06028  -0.06733   0.00833
   6        6S         -0.01321  -0.01752  -0.01844   0.03058  -0.02520
   7        7PX         0.00624  -0.00145   0.00278  -0.00335  -0.00589
   8        7PY         0.00074   0.01196  -0.00155  -0.00096  -0.00556
   9        7PZ        -0.00439  -0.01504   0.01034   0.02057  -0.00070
  10        8PX         0.01204  -0.00221   0.00536  -0.00607  -0.01017
  11        8PY         0.00099   0.02124  -0.00207  -0.00160  -0.01006
  12        8PZ        -0.00746  -0.02687   0.01871   0.03745  -0.00155
  13        9PX        -0.02530  -0.00136  -0.01131   0.00883   0.01038
  14        9PY         0.00231  -0.02671  -0.00430   0.00029   0.01506
  15        9PZ         0.00554   0.03584  -0.02768  -0.05796   0.00483
  16       10PX         0.02307   0.02837   0.01277   0.00824   0.04255
  17       10PY        -0.02235  -0.05299   0.04480   0.01663   0.01376
  18       10PZ         0.03854   0.06478  -0.03710  -0.04560  -0.01041
  19       11PX         0.07612   0.02050   0.09003  -0.09849   0.03195
  20       11PY        -0.07083   0.03185   0.09291   0.10150  -0.08862
  21       11PZ         0.03860   0.01667  -0.11785   0.12261  -0.01369
  22       12S         -0.00556   0.01942  -0.02434  -0.01681   0.00412
  23       12PX         0.00983   0.01249  -0.00612   0.01311   0.00363
  24       12PY        -0.00422  -0.01500   0.00738  -0.00369   0.00928
  25       12PZ         0.00588   0.00838   0.00565  -0.01813  -0.00107
  26       13D 0       -0.03927  -0.01504  -0.03362  -0.04247   0.01767
  27       13D+1       -0.00317   0.06841   0.02727   0.00272   0.05423
  28       13D-1        0.01998  -0.00377   0.05522   0.01996   0.01330
  29       13D+2       -0.09107   0.01747  -0.00785   0.00400  -0.01354
  30       13D-2       -0.03236  -0.01202   0.03421  -0.01447  -0.00633
  31 2   O  1S          0.00753   0.00945  -0.00804  -0.01644   0.00117
  32        2S          0.01227   0.01547  -0.01322  -0.02696   0.00194
  33        2PX         0.00822   0.05051   0.01324  -0.01911   0.23390
  34        2PY        -0.02231  -0.04661   0.08460   0.15354   0.05708
  35        2PZ         0.02470  -0.03983   0.07256   0.11400  -0.01905
  36        3S         -0.03631  -0.04822   0.04137   0.08283  -0.00610
  37        3PX         0.01245   0.07492   0.01992  -0.02736   0.34620
  38        3PY        -0.03287  -0.06853   0.12574   0.22555   0.08483
  39        3PZ         0.03631  -0.06273   0.10802   0.16996  -0.02757
  40        4S         -0.06727  -0.06083   0.04239   0.10780  -0.00351
  41        4PX         0.00578   0.07113   0.01770  -0.03226   0.35657
  42        4PY        -0.02332  -0.06862   0.12028   0.23703   0.08594
  43        4PZ         0.02850  -0.04202   0.09022   0.14346  -0.02687
  44        5S         -0.10496  -0.01061   0.11877  -0.12524   0.01952
  45        5PX        -0.03812   0.03143  -0.00458   0.01200   0.07882
  46        5PY         0.08114  -0.03080   0.01397   0.02625   0.03171
  47        5PZ        -0.03882  -0.00052  -0.02652   0.08201  -0.01444
  48        6D 0       -0.00020   0.00357  -0.00317  -0.00310   0.00035
  49        6D+1        0.00073  -0.00380  -0.00064   0.00066  -0.00988
  50        6D-1       -0.00100   0.00263  -0.00562  -0.00672  -0.00232
  51        6D+2       -0.00199  -0.00067   0.00167   0.00513   0.00241
  52        6D-2       -0.00125  -0.00085   0.00100   0.00281  -0.00533
  53 3   O  1S          0.00083   0.00311  -0.00556   0.00371   0.00033
  54        2S          0.00138   0.00510  -0.00913   0.00599   0.00052
  55        2PX         0.07107   0.12538   0.06358  -0.00440  -0.00690
  56        2PY        -0.03158  -0.01859  -0.05380   0.02989  -0.01201
  57        2PZ        -0.02599   0.18751   0.06358   0.06643  -0.09971
  58        3S         -0.00420  -0.01571   0.02840  -0.01664  -0.00224
  59        3PX         0.10532   0.18526   0.09291  -0.00668  -0.01206
  60        3PY        -0.04807  -0.02884  -0.07932   0.04428  -0.01773
  61        3PZ        -0.03799   0.27876   0.09432   0.09777  -0.14604
  62        4S         -0.02188  -0.02742   0.03275  -0.03844  -0.00967
  63        4PX         0.08767   0.17521   0.09178  -0.00046  -0.01372
  64        4PY        -0.04965  -0.02632  -0.08590   0.04356  -0.01593
  65        4PZ        -0.03529   0.26910   0.09360   0.09562  -0.14998
  66        5S         -0.05532   0.01274  -0.10078   0.09055   0.00833
  67        5PX         0.00519   0.02423   0.05396  -0.04383   0.00924
  68        5PY        -0.02186   0.00805  -0.01468  -0.02558   0.03020
  69        5PZ        -0.01783   0.05086   0.00871   0.02758  -0.02686
  70        6D 0        0.00031   0.00739   0.00420  -0.00040  -0.00135
  71        6D+1        0.00106  -0.00480  -0.00058  -0.00126   0.00157
  72        6D-1       -0.00167   0.00715   0.00260   0.00326  -0.00409
  73        6D+2       -0.00091  -0.00330   0.00132  -0.00179   0.00184
  74        6D-2        0.00471   0.00728   0.00301  -0.00008  -0.00022
  75 4   O  1S          0.00621   0.00938  -0.00137  -0.00327  -0.00482
  76        2S          0.01020   0.01535  -0.00223  -0.00536  -0.00785
  77        2PX         0.19144   0.05230  -0.06645   0.10172  -0.01687
  78        2PY        -0.04298   0.03539   0.14201  -0.05303  -0.00404
  79        2PZ         0.03517  -0.04521  -0.05962   0.05683   0.02206
  80        3S         -0.03137  -0.04728   0.00734   0.01590   0.02344
  81        3PX         0.28314   0.07789  -0.09904   0.15088  -0.02473
  82        3PY        -0.06537   0.05236   0.20876  -0.07778  -0.00635
  83        3PZ         0.05236  -0.06624  -0.09012   0.08209   0.03158
  84        4S         -0.03570  -0.06184   0.02341   0.03217   0.04211
  85        4PX         0.26636   0.07071  -0.09957   0.15379  -0.02624
  86        4PY        -0.06724   0.04591   0.19991  -0.08244  -0.00333
  87        4PZ         0.04317  -0.07087  -0.08965   0.08144   0.03800
  88        5S         -0.02938   0.05610   0.06859   0.08883  -0.00099
  89        5PX         0.03062   0.02096  -0.01637   0.05163  -0.01042
  90        5PY         0.00534   0.03201   0.04492  -0.01488  -0.01562
  91        5PZ         0.03455  -0.01548  -0.00329  -0.02464  -0.03485
  92        6D 0       -0.00328   0.00112   0.00065  -0.00425  -0.00176
  93        6D+1       -0.00390  -0.00236  -0.00110  -0.00095   0.00183
  94        6D-1        0.00271  -0.00096  -0.00719   0.00176  -0.00095
  95        6D+2        0.00938   0.00066  -0.00635   0.00547  -0.00029
  96        6D-2        0.00413   0.00227   0.00184   0.00121  -0.00047
  97 5   O  1S          0.00429  -0.00639  -0.00277  -0.00045   0.00287
  98        2S          0.00712  -0.01040  -0.00456  -0.00073   0.00469
  99        2PX         0.10407  -0.04309   0.10924  -0.08006  -0.02617
 100        2PY        -0.00152  -0.04463   0.10108  -0.07627  -0.03331
 101        2PZ         0.14871  -0.06142   0.05059  -0.06170   0.01760
 102        3S         -0.02326   0.03030   0.01375   0.00292  -0.01443
 103        3PX         0.15288  -0.06511   0.16227  -0.11809  -0.03893
 104        3PY        -0.00004  -0.06530   0.14827  -0.11273  -0.04889
 105        3PZ         0.22049  -0.08962   0.07548  -0.09215   0.02615
 106        4S         -0.00185   0.06894   0.01512  -0.00148  -0.01615
 107        4PX         0.14180  -0.06119   0.15554  -0.12042  -0.04413
 108        4PY         0.00233  -0.07158   0.14967  -0.10700  -0.04760
 109        4PZ         0.21158  -0.08427   0.07432  -0.09628   0.02985
 110        5S          0.03149   0.03321  -0.01321  -0.09415   0.07821
 111        5PX         0.03709  -0.05309  -0.02294  -0.02401  -0.00099
 112        5PY        -0.00690   0.00179   0.04204  -0.00402  -0.02774
 113        5PZ         0.01216   0.00366   0.04682  -0.03729   0.01806
 114        6D 0        0.00916  -0.00438   0.00475  -0.00474   0.00021
 115        6D+1        0.00319  -0.00036   0.00574  -0.00294  -0.00168
 116        6D-1       -0.00464  -0.00050   0.00294  -0.00072  -0.00087
 117        6D+2        0.00002  -0.00189   0.00148  -0.00136   0.00006
 118        6D-2       -0.00278   0.00268  -0.00397   0.00364   0.00040
 119 6   C  1S         -0.00101  -0.00050  -0.00017   0.00510  -0.00075
 120        2S         -0.00159  -0.00075  -0.00041   0.00819  -0.00120
 121        2PX        -0.00640  -0.05188  -0.01508   0.01056  -0.08883
 122        2PY         0.02579   0.02917  -0.05397  -0.07056  -0.02118
 123        2PZ        -0.00565   0.03971  -0.04879  -0.04495   0.00649
 124        3S          0.00038   0.00370   0.00305  -0.02768   0.00357
 125        3PX        -0.00985  -0.07534  -0.02316   0.01383  -0.12471
 126        3PY         0.04006   0.04062  -0.07547  -0.09603  -0.03038
 127        3PZ        -0.01071   0.05732  -0.06969  -0.06303   0.00852
 128        4S          0.07455  -0.03461   0.00544   0.03282   0.00154
 129        4PX        -0.00840  -0.05122  -0.01712   0.00677  -0.10407
 130        4PY         0.04914   0.01856  -0.05001  -0.06194  -0.02572
 131        4PZ        -0.01785   0.04264  -0.04003  -0.06529   0.00989
 132        5S         -0.01149  -0.03180   0.05344   0.05934  -0.00733
 133        5PX        -0.00393  -0.01332  -0.00776  -0.00351  -0.01518
 134        5PY         0.00690  -0.00150   0.00310  -0.00350  -0.00448
 135        5PZ         0.00312   0.01227  -0.02614  -0.02721   0.00561
 136        6D 0        0.00317   0.01391  -0.01868  -0.02637   0.00543
 137        6D+1        0.00042  -0.00227  -0.00079  -0.00131  -0.01049
 138        6D-1       -0.00253  -0.00078   0.00052   0.00475  -0.00256
 139        6D+2       -0.00241  -0.00356  -0.00692  -0.00661  -0.02071
 140        6D-2       -0.00236   0.00512   0.00429   0.00160   0.02648
 141 7   H  1S         -0.01278  -0.00316   0.06025   0.05971   0.07603
 142        2S         -0.01536  -0.00363   0.09149   0.09106   0.12019
 143        3S          0.00697  -0.00823   0.04171   0.04473   0.08273
 144        4PX        -0.00108  -0.00340   0.00457   0.00528  -0.00022
 145        4PY         0.00024   0.00199   0.00270   0.00064   0.00517
 146        4PZ        -0.00159   0.00340   0.00033  -0.00249   0.00285
 147 8   H  1S         -0.00903  -0.05734   0.00481   0.02846  -0.09339
 148        2S         -0.01748  -0.08364   0.00898   0.03929  -0.14779
 149        3S          0.01168  -0.03228   0.00261   0.01523  -0.09892
 150        4PX         0.00108   0.00421  -0.00172  -0.00238   0.00470
 151        4PY         0.00094   0.00113  -0.00368  -0.00445  -0.00273
 152        4PZ        -0.00077   0.00055  -0.00403  -0.00294  -0.00129
 153 9   H  1S          0.00399   0.05317  -0.06021  -0.07515   0.01677
 154        2S         -0.00069   0.08545  -0.09723  -0.12406   0.02692
 155        3S          0.02102   0.04443  -0.05699  -0.08162   0.01751
 156        4PX        -0.00062  -0.00207  -0.00270  -0.00137  -0.00538
 157        4PY         0.00138  -0.00080  -0.00058  -0.00063  -0.00219
 158        4PZ         0.00031  -0.00463   0.00404   0.00665  -0.00139
 159 10  H  1S          0.01043   0.01288  -0.01760   0.01117  -0.00094
 160        2S          0.02611   0.01615  -0.00584   0.00750  -0.00309
 161        3S          0.03671  -0.00779  -0.02060   0.03312  -0.03582
 162        4PX         0.00601   0.01251   0.00638  -0.00017   0.00089
 163        4PY        -0.00568  -0.00483  -0.00258   0.00066  -0.00107
 164        4PZ        -0.00165   0.01965   0.00728   0.00733  -0.01067
 165 11  H  1S          0.01114   0.02496  -0.00795  -0.01239  -0.01748
 166        2S          0.00627   0.01550  -0.01675  -0.02549  -0.01404
 167        3S          0.04341  -0.00198  -0.00833  -0.05143  -0.05991
 168        4PX         0.02056   0.00298  -0.00607   0.01084  -0.00025
 169        4PY        -0.00342   0.00382   0.01466  -0.00713  -0.00021
 170        4PZ         0.00599  -0.00054  -0.00749   0.00282  -0.00017
 171 12  H  1S          0.00289  -0.01561  -0.00973  -0.00357   0.01151
 172        2S         -0.00565  -0.02608  -0.01272   0.00426  -0.00009
 173        3S          0.02665  -0.05843  -0.05876   0.00902  -0.00051
 174        4PX         0.01130  -0.00765   0.01020  -0.00710  -0.00213
 175        4PY        -0.00058  -0.00196   0.01179  -0.00928  -0.00199
 176        4PZ         0.01601  -0.00488   0.00736  -0.00469  -0.00037
                          30        31        32        33        34
                           V         V         V         V         V
     EIGENVALUES --    -0.00826   0.02498   0.02988   0.03038   0.06080
   1 1   Si 1S          0.00540   0.00126  -0.00132   0.00102  -0.00225
   2        2S          0.01502   0.00350  -0.00364   0.00280  -0.00615
   3        3S         -0.03646  -0.00834   0.00862  -0.00641   0.01385
   4        4S         -0.05319  -0.01342   0.01430  -0.01205   0.02723
   5        5S         -0.05795   0.01619  -0.00678   0.02255  -0.04827
   6        6S          1.56935   0.02438  -0.33301   0.11664   0.01026
   7        7PX        -0.00045   0.00152  -0.00954  -0.00668  -0.00095
   8        7PY         0.00182  -0.01075  -0.00263   0.00208  -0.00405
   9        7PZ         0.00269  -0.00174   0.00294  -0.00182   0.01213
  10        8PX        -0.00090   0.00210  -0.01502  -0.00981  -0.00204
  11        8PY         0.00352  -0.01722  -0.00339   0.00346  -0.00616
  12        8PZ         0.00445  -0.00291   0.00590  -0.00412   0.01998
  13        9PX         0.00206   0.00221   0.00727  -0.00189   0.00582
  14        9PY        -0.00768   0.01006  -0.00524  -0.00380   0.00060
  15        9PZ        -0.00401   0.00357  -0.01405   0.01358  -0.01716
  16       10PX        -0.00096  -0.04038   0.13022   0.12558  -0.01137
  17       10PY         0.00164   0.14787   0.07091  -0.01110   0.08233
  18       10PZ        -0.02938   0.00510  -0.00127  -0.02216  -0.14577
  19       11PX         0.07278   0.37185  -0.17730  -0.67860   0.23707
  20       11PY        -0.27886  -0.32303  -0.66403  -0.02617  -0.37666
  21       11PZ         0.13159  -0.25308  -0.64451   0.49555   0.31593
  22       12S          2.27807  -0.60460   0.33311  -0.61700  -0.41737
  23       12PX         0.08000  -0.56863   0.86399   1.08247  -0.40093
  24       12PY         0.02762   1.18681   0.75923   0.17827   1.15193
  25       12PZ        -0.01377  -0.04235   0.93240  -1.03036  -1.07613
  26       13D 0       -0.00401   0.00572   0.00819  -0.00484   0.00301
  27       13D+1        0.00517  -0.00005   0.00564  -0.00543   0.00444
  28       13D-1       -0.00965   0.00956  -0.00190   0.01397  -0.00594
  29       13D+2        0.00442  -0.00553   0.00028   0.00786  -0.00868
  30       13D-2       -0.00219  -0.00281  -0.01459  -0.00773  -0.01099
  31 2   O  1S          0.01592   0.01054  -0.00036  -0.00187  -0.02375
  32        2S          0.02655   0.01756  -0.00057  -0.00316  -0.03946
  33        2PX         0.00042  -0.00079  -0.01730  -0.02781   0.01124
  34        2PY        -0.00045   0.00689  -0.02540   0.01720  -0.03597
  35        2PZ         0.01831  -0.01860  -0.00565   0.00385   0.01707
  36        3S         -0.08772  -0.05799   0.00176   0.01116   0.12765
  37        3PX         0.00074  -0.00072  -0.02983  -0.04467   0.01668
  38        3PY        -0.00256   0.00899  -0.04226   0.02663  -0.05028
  39        3PZ         0.03054  -0.02672  -0.00985   0.00750   0.02496
  40        4S         -0.17014  -0.10722  -0.01268   0.03065   0.33673
  41        4PX        -0.00444  -0.00535  -0.01549  -0.03834   0.03398
  42        4PY         0.02301   0.02368  -0.02705   0.02483  -0.12187
  43        4PZ         0.04496  -0.02974  -0.00227  -0.00968   0.00821
  44        5S         -0.76874   0.03569   0.44428  -0.25425   0.70105
  45        5PX        -0.01885  -0.01561  -0.05718   0.00446   0.05036
  46        5PY        -0.01322  -0.04359  -0.03155   0.05688  -0.09940
  47        5PZ         0.27409  -0.14641  -0.30368   0.19834   0.36751
  48        6D 0       -0.00193  -0.00083  -0.00239   0.00293   0.00088
  49        6D+1       -0.00031   0.00113  -0.00267   0.00010  -0.00062
  50        6D-1        0.00034  -0.00411   0.00203  -0.00302   0.00151
  51        6D+2        0.00065  -0.00204  -0.00142  -0.00110  -0.00022
  52        6D-2        0.00032  -0.00214   0.00167   0.00197  -0.00084
  53 3   O  1S          0.02366  -0.00337   0.00773   0.01600  -0.00198
  54        2S          0.03945  -0.00569   0.01282   0.02654  -0.00343
  55        2PX         0.00555   0.01555  -0.02741  -0.02432   0.00824
  56        2PY        -0.03139  -0.02697  -0.03660  -0.02890  -0.02187
  57        2PZ        -0.00125  -0.00257  -0.02300   0.01060   0.03629
  58        3S         -0.13049   0.01989  -0.04117  -0.08433   0.01383
  59        3PX         0.01035   0.02696  -0.04053  -0.03551   0.01293
  60        3PY        -0.04634  -0.04508  -0.05528  -0.04115  -0.03489
  61        3PZ        -0.00207  -0.00481  -0.03751   0.01631   0.05793
  62        4S         -0.24923   0.02837  -0.10659  -0.21962  -0.00291
  63        4PX         0.03699   0.00612  -0.04356  -0.02114   0.00677
  64        4PY        -0.08766  -0.02160  -0.08057  -0.08627  -0.03327
  65        4PZ        -0.02063   0.00376  -0.03353   0.00215   0.05482
  66        5S         -0.88115  -0.22955  -0.35761   0.01068  -0.00553
  67        5PX         0.13015   0.13322  -0.04624  -0.25974   0.03683
  68        5PY         0.03505  -0.16403  -0.04631  -0.07238  -0.05822
  69        5PZ        -0.07241  -0.06348   0.01138   0.10243   0.04478
  70        6D 0        0.00118   0.00063  -0.00018   0.00085  -0.00008
  71        6D+1        0.00172  -0.00048   0.00039  -0.00014  -0.00046
  72        6D-1       -0.00087  -0.00009  -0.00234  -0.00040   0.00044
  73        6D+2       -0.00063   0.00160   0.00173  -0.00048   0.00146
  74        6D-2        0.00174   0.00018   0.00051   0.00161   0.00072
  75 4   O  1S          0.02170  -0.00926  -0.01794  -0.00143  -0.00997
  76        2S          0.03620  -0.01543  -0.02976  -0.00248  -0.01667
  77        2PX        -0.01762   0.02004  -0.01082  -0.02869   0.01022
  78        2PY        -0.01247  -0.02994  -0.01162   0.00065  -0.01579
  79        2PZ         0.02728  -0.01386  -0.04637   0.01854   0.00914
  80        3S         -0.12045   0.05140   0.09456   0.01028   0.05530
  81        3PX        -0.02692   0.03256  -0.01836  -0.04923   0.01745
  82        3PY        -0.02118  -0.04690  -0.01539   0.00041  -0.02400
  83        3PZ         0.04099  -0.01945  -0.06745   0.02774   0.01694
  84        4S         -0.22028   0.10708   0.24472  -0.00665   0.10584
  85        4PX        -0.05598   0.03825   0.01803  -0.02250   0.02370
  86        4PY        -0.04409  -0.03084  -0.00044   0.01132  -0.01731
  87        4PZ         0.05719  -0.03628  -0.10980   0.04059  -0.01101
  88        5S         -1.02362   0.20337   0.07540  -0.00574   0.20920
  89        5PX        -0.11945  -0.00710  -0.14872  -0.08907  -0.01464
  90        5PY        -0.15157  -0.09541  -0.18017  -0.05998  -0.02313
  91        5PZ         0.01561  -0.03033  -0.09555  -0.04157   0.07463
  92        6D 0        0.00061  -0.00056  -0.00061  -0.00061  -0.00249
  93        6D+1        0.00081  -0.00085  -0.00032   0.00196   0.00055
  94        6D-1        0.00078   0.00025  -0.00213   0.00084  -0.00153
  95        6D+2        0.00048   0.00084   0.00009  -0.00053   0.00020
  96        6D-2       -0.00225   0.00017   0.00176   0.00009   0.00093
  97 5   O  1S          0.02246   0.01691  -0.00160  -0.00557   0.00890
  98        2S          0.03740   0.02810  -0.00267  -0.00915   0.01490
  99        2PX         0.01407   0.02019  -0.02476  -0.04496   0.01888
 100        2PY         0.00496  -0.01788  -0.02782   0.00305  -0.02573
 101        2PZ        -0.01823  -0.03483  -0.00866   0.02518   0.02758
 102        3S         -0.12243  -0.09045   0.00876   0.02734  -0.05036
 103        3PX         0.01974   0.02850  -0.04092  -0.06729   0.02773
 104        3PY         0.00943  -0.02628  -0.04506   0.00103  -0.03981
 105        3PZ        -0.02755  -0.05185  -0.01666   0.04099   0.04397
 106        4S         -0.24711  -0.22322   0.02142   0.09566  -0.09436
 107        4PX         0.02490   0.04525  -0.02743  -0.08640   0.03808
 108        4PY         0.03850  -0.00740  -0.03858   0.01448  -0.02718
 109        4PZ        -0.06376  -0.09270   0.00160   0.04329   0.02236
 110        5S         -0.69027  -0.17144   0.30717   0.23817  -0.09706
 111        5PX        -0.01162   0.07107  -0.06246  -0.10394   0.08391
 112        5PY         0.07901  -0.15339  -0.07096   0.04330  -0.15861
 113        5PZ        -0.03705   0.02744   0.05478   0.11762   0.08480
 114        6D 0       -0.00041  -0.00080  -0.00122   0.00106   0.00065
 115        6D+1       -0.00067   0.00082  -0.00137  -0.00094  -0.00142
 116        6D-1        0.00259   0.00082  -0.00001  -0.00175   0.00060
 117        6D+2        0.00126   0.00061   0.00043   0.00031   0.00020
 118        6D-2        0.00097  -0.00011   0.00065   0.00166  -0.00063
 119 6   C  1S          0.00788  -0.03014   0.01483  -0.01882   0.00842
 120        2S          0.01304  -0.05023   0.02468  -0.03135   0.01375
 121        2PX        -0.01093   0.00743  -0.02444  -0.01481   0.01623
 122        2PY         0.02726  -0.00815  -0.00587  -0.01266  -0.02461
 123        2PZ        -0.01502  -0.00448  -0.01966   0.02624   0.03231
 124        3S         -0.04266   0.16652  -0.08015   0.10085  -0.02888
 125        3PX        -0.01594   0.01057  -0.04084  -0.03001   0.02226
 126        3PY         0.03708  -0.00894  -0.01834  -0.01391  -0.02062
 127        3PZ        -0.02533  -0.01005  -0.03421   0.04507   0.04735
 128        4S         -0.09749   0.33058  -0.17561   0.24182  -0.20496
 129        4PX        -0.03886   0.01633  -0.08066  -0.02751   0.10107
 130        4PY         0.11594  -0.00085   0.03366  -0.06763  -0.26828
 131        4PZ        -0.06876   0.03374  -0.02335   0.04382   0.24125
 132        5S         -0.44656   0.03195  -0.05923   0.10897   0.75277
 133        5PX         0.00001  -0.10475   0.05486  -0.10676   0.22617
 134        5PY        -0.03530   0.30524  -0.17357   0.18247  -1.08016
 135        5PZ         0.24946  -0.62897   0.41724  -0.56173   0.21337
 136        6D 0        0.00038   0.00356   0.00202  -0.00151   0.00290
 137        6D+1       -0.00207  -0.00308   0.00359  -0.00006   0.00610
 138        6D-1        0.00482   0.00695  -0.00408   0.00605  -0.02266
 139        6D+2        0.00254   0.00506   0.00239   0.00004  -0.01412
 140        6D-2        0.00185   0.00306  -0.00238  -0.00265  -0.01214
 141 7   H  1S         -0.00290   0.00365   0.00056   0.00366  -0.01474
 142        2S          0.00862  -0.01746   0.01533  -0.04334   0.01719
 143        3S          0.08586   0.01505  -0.04310   0.00955  -0.39251
 144        4PX        -0.00401   0.00439   0.00042   0.00422   0.00763
 145        4PY        -0.00114   0.01074  -0.00218   0.00539  -0.00498
 146        4PZ        -0.00438  -0.00097   0.00310   0.00054   0.00951
 147 8   H  1S         -0.00376   0.00569  -0.00322   0.00048  -0.00933
 148        2S          0.01061  -0.02001   0.03752  -0.02526   0.00758
 149        3S          0.07290   0.00686   0.03241   0.03999  -0.30722
 150        4PX         0.00453  -0.01074   0.00670  -0.00323  -0.00483
 151        4PY         0.00189   0.00541  -0.00162   0.00167  -0.00920
 152        4PZ        -0.00454  -0.00172  -0.00112  -0.00174   0.00937
 153 9   H  1S          0.00022   0.00437  -0.00629   0.00929  -0.00744
 154        2S          0.02313  -0.06584   0.01788  -0.03299  -0.01764
 155        3S         -0.04027   0.17656  -0.05913   0.10813  -0.21220
 156        4PX        -0.00185  -0.00069  -0.00158   0.00091   0.00455
 157        4PY         0.00386   0.00247   0.00068  -0.00189  -0.01327
 158        4PZ         0.00194  -0.00712   0.00657  -0.00791   0.00269
 159 10  H  1S          0.01699  -0.00866   0.00654   0.01864  -0.00157
 160        2S          0.08771  -0.01927   0.04481   0.06774   0.01259
 161        3S          0.23208   0.13311   0.33332   0.44834   0.05463
 162        4PX         0.00488   0.00199   0.00402   0.00521   0.00170
 163        4PY         0.01376   0.00185   0.01083   0.01297   0.00379
 164        4PZ        -0.00001  -0.00036  -0.00158  -0.00122  -0.00061
 165 11  H  1S          0.01450  -0.00709  -0.02284  -0.00455  -0.02011
 166        2S          0.07229  -0.04516  -0.08277   0.00735  -0.05467
 167        3S          0.32784  -0.18030  -0.48551   0.03642  -0.11160
 168        4PX         0.00406  -0.00190  -0.00478  -0.00075  -0.00068
 169        4PY        -0.00350   0.00173   0.00433  -0.00062   0.00265
 170        4PZ        -0.01309   0.01044   0.01455  -0.00393   0.00274
 171 12  H  1S          0.01910   0.01313   0.00149  -0.00603   0.01669
 172        2S          0.07485   0.06706   0.00977  -0.04074   0.04631
 173        3S          0.30277   0.34717  -0.13870  -0.41731   0.23857
 174        4PX        -0.00909  -0.01103  -0.00106   0.00895  -0.00364
 175        4PY         0.00251   0.00317  -0.00104  -0.00421   0.00176
 176        4PZ         0.00905   0.00911  -0.00079  -0.00844   0.00357
     Beta Molecular Orbital Coefficients.
                          25        26        27        28        29
                           O         O         O         O         O
     EIGENVALUES --    -0.35762  -0.35153  -0.33032  -0.31678  -0.29967
   1 1   Si 1S          0.00179   0.00282  -0.00258  -0.00276   0.00024
   2        2S          0.00490   0.00777  -0.00708  -0.00759   0.00067
   3        3S         -0.01114  -0.01791   0.01621   0.01740  -0.00160
   4        4S         -0.01956  -0.03011   0.02804   0.03013  -0.00238
   5        5S          0.04002   0.06622  -0.06006  -0.06726   0.00787
   6        6S         -0.01319  -0.01703  -0.01816   0.03070  -0.02878
   7        7PX         0.00626  -0.00154   0.00279  -0.00340  -0.00585
   8        7PY         0.00085   0.01192  -0.00155  -0.00095  -0.00558
   9        7PZ        -0.00441  -0.01501   0.01034   0.02057  -0.00054
  10        8PX         0.01206  -0.00238   0.00537  -0.00615  -0.01010
  11        8PY         0.00118   0.02116  -0.00207  -0.00158  -0.01010
  12        8PZ        -0.00750  -0.02682   0.01871   0.03745  -0.00126
  13        9PX        -0.02535  -0.00113  -0.01132   0.00893   0.01028
  14        9PY         0.00204  -0.02661  -0.00430   0.00026   0.01512
  15        9PZ         0.00563   0.03577  -0.02767  -0.05797   0.00444
  16       10PX         0.02316   0.02861   0.01279   0.00855   0.04244
  17       10PY        -0.02274  -0.05280   0.04476   0.01666   0.01383
  18       10PZ         0.03842   0.06464  -0.03717  -0.04558  -0.01116
  19       11PX         0.07634   0.02025   0.08994  -0.09838   0.03194
  20       11PY        -0.07055   0.03226   0.09289   0.10179  -0.08856
  21       11PZ         0.03821   0.01704  -0.11784   0.12265  -0.01362
  22       12S         -0.00553   0.01966  -0.02413  -0.01677   0.00292
  23       12PX         0.00983   0.01255  -0.00608   0.01315   0.00357
  24       12PY        -0.00428  -0.01505   0.00738  -0.00371   0.00927
  25       12PZ         0.00588   0.00833   0.00566  -0.01814  -0.00115
  26       13D 0       -0.03915  -0.01505  -0.03364  -0.04255   0.01741
  27       13D+1       -0.00308   0.06834   0.02736   0.00278   0.05420
  28       13D-1        0.02002  -0.00390   0.05517   0.02000   0.01336
  29       13D+2       -0.09114   0.01770  -0.00776   0.00403  -0.01371
  30       13D-2       -0.03230  -0.01199   0.03417  -0.01444  -0.00638
  31 2   O  1S          0.00751   0.00947  -0.00802  -0.01644   0.00108
  32        2S          0.01224   0.01551  -0.01318  -0.02695   0.00177
  33        2PX         0.00798   0.05069   0.01312  -0.01931   0.23395
  34        2PY        -0.02233  -0.04683   0.08433   0.15351   0.05710
  35        2PZ         0.02456  -0.03989   0.07248   0.11407  -0.01886
  36        3S         -0.03621  -0.04826   0.04129   0.08281  -0.00517
  37        3PX         0.01208   0.07518   0.01975  -0.02765   0.34628
  38        3PY        -0.03291  -0.06886   0.12533   0.22550   0.08487
  39        3PZ         0.03609  -0.06284   0.10789   0.17005  -0.02733
  40        4S         -0.06706  -0.06099   0.04220   0.10775  -0.00275
  41        4PX         0.00545   0.07140   0.01753  -0.03257   0.35662
  42        4PY        -0.02334  -0.06897   0.11985   0.23695   0.08593
  43        4PZ         0.02829  -0.04200   0.09017   0.14357  -0.02655
  44        5S         -0.10468  -0.01083   0.11877  -0.12530   0.02017
  45        5PX        -0.03817   0.03155  -0.00453   0.01200   0.07879
  46        5PY         0.08107  -0.03106   0.01386   0.02617   0.03170
  47        5PZ        -0.03886  -0.00034  -0.02653   0.08207  -0.01453
  48        6D 0       -0.00019   0.00356  -0.00318  -0.00311   0.00026
  49        6D+1        0.00074  -0.00383  -0.00061   0.00070  -0.00989
  50        6D-1       -0.00098   0.00263  -0.00560  -0.00672  -0.00232
  51        6D+2       -0.00198  -0.00065   0.00166   0.00511   0.00251
  52        6D-2       -0.00125  -0.00087   0.00103   0.00288  -0.00527
  53 3   O  1S          0.00083   0.00317  -0.00555   0.00373   0.00028
  54        2S          0.00138   0.00520  -0.00911   0.00603   0.00043
  55        2PX         0.07140   0.12501   0.06372  -0.00433  -0.00695
  56        2PY        -0.03168  -0.01836  -0.05385   0.02990  -0.01196
  57        2PZ        -0.02577   0.18761   0.06386   0.06673  -0.09953
  58        3S         -0.00418  -0.01623   0.02826  -0.01683  -0.00185
  59        3PX         0.10580   0.18472   0.09312  -0.00658  -0.01216
  60        3PY        -0.04822  -0.02851  -0.07940   0.04429  -0.01764
  61        3PZ        -0.03766   0.27890   0.09474   0.09822  -0.14576
  62        4S         -0.02197  -0.02759   0.03272  -0.03860  -0.00911
  63        4PX         0.08815   0.17469   0.09199  -0.00035  -0.01385
  64        4PY        -0.04981  -0.02598  -0.08596   0.04358  -0.01582
  65        4PZ        -0.03499   0.26931   0.09403   0.09607  -0.14970
  66        5S         -0.05558   0.01283  -0.10079   0.09038   0.00896
  67        5PX         0.00530   0.02411   0.05400  -0.04380   0.00906
  68        5PY        -0.02190   0.00800  -0.01470  -0.02564   0.03009
  69        5PZ        -0.01780   0.05091   0.00880   0.02766  -0.02677
  70        6D 0        0.00034   0.00732   0.00419  -0.00041  -0.00133
  71        6D+1        0.00105  -0.00486  -0.00060  -0.00128   0.00158
  72        6D-1       -0.00166   0.00716   0.00262   0.00327  -0.00407
  73        6D+2       -0.00092  -0.00331   0.00131  -0.00179   0.00184
  74        6D-2        0.00474   0.00727   0.00302  -0.00007  -0.00023
  75 4   O  1S          0.00626   0.00936  -0.00135  -0.00327  -0.00488
  76        2S          0.01028   0.01532  -0.00220  -0.00536  -0.00795
  77        2PX         0.19179   0.05181  -0.06659   0.10167  -0.01661
  78        2PY        -0.04276   0.03523   0.14210  -0.05291  -0.00395
  79        2PZ         0.03501  -0.04514  -0.05975   0.05676   0.02223
  80        3S         -0.03162  -0.04718   0.00723   0.01590   0.02378
  81        3PX         0.28366   0.07716  -0.09925   0.15081  -0.02434
  82        3PY        -0.06503   0.05212   0.20890  -0.07760  -0.00621
  83        3PZ         0.05213  -0.06613  -0.09030   0.08198   0.03183
  84        4S         -0.03608  -0.06173   0.02328   0.03222   0.04281
  85        4PX         0.26682   0.07004  -0.09978   0.15373  -0.02581
  86        4PY        -0.06698   0.04573   0.20005  -0.08224  -0.00316
  87        4PZ         0.04294  -0.07074  -0.08985   0.08132   0.03821
  88        5S         -0.02936   0.05641   0.06847   0.08906   0.00004
  89        5PX         0.03069   0.02093  -0.01640   0.05163  -0.01022
  90        5PY         0.00549   0.03198   0.04494  -0.01480  -0.01544
  91        5PZ         0.03472  -0.01556  -0.00337  -0.02463  -0.03478
  92        6D 0       -0.00328   0.00113   0.00065  -0.00425  -0.00178
  93        6D+1       -0.00391  -0.00234  -0.00110  -0.00095   0.00182
  94        6D-1        0.00270  -0.00095  -0.00718   0.00175  -0.00096
  95        6D+2        0.00938   0.00065  -0.00635   0.00546  -0.00028
  96        6D-2        0.00414   0.00225   0.00183   0.00121  -0.00046
  97 5   O  1S          0.00422  -0.00634  -0.00276  -0.00045   0.00285
  98        2S          0.00700  -0.01032  -0.00453  -0.00074   0.00465
  99        2PX         0.10412  -0.04340   0.10921  -0.07999  -0.02597
 100        2PY        -0.00126  -0.04480   0.10102  -0.07616  -0.03349
 101        2PZ         0.14822  -0.06134   0.05063  -0.06165   0.01806
 102        3S         -0.02292   0.03006   0.01360   0.00298  -0.01428
 103        3PX         0.15294  -0.06556   0.16222  -0.11799  -0.03863
 104        3PY         0.00036  -0.06555   0.14818  -0.11257  -0.04917
 105        3PZ         0.21977  -0.08951   0.07553  -0.09208   0.02684
 106        4S         -0.00130   0.06852   0.01503  -0.00145  -0.01575
 107        4PX         0.14189  -0.06162   0.15548  -0.12032  -0.04384
 108        4PY         0.00263  -0.07178   0.14956  -0.10684  -0.04789
 109        4PZ         0.21091  -0.08420   0.07438  -0.09621   0.03060
 110        5S          0.03152   0.03269  -0.01323  -0.09426   0.07902
 111        5PX         0.03688  -0.05308  -0.02299  -0.02406  -0.00079
 112        5PY        -0.00669   0.00174   0.04202  -0.00397  -0.02798
 113        5PZ         0.01219   0.00354   0.04683  -0.03726   0.01821
 114        6D 0        0.00915  -0.00439   0.00476  -0.00474   0.00023
 115        6D+1        0.00320  -0.00038   0.00574  -0.00293  -0.00168
 116        6D-1       -0.00462  -0.00051   0.00293  -0.00071  -0.00089
 117        6D+2        0.00002  -0.00189   0.00148  -0.00136   0.00006
 118        6D-2       -0.00279   0.00269  -0.00399   0.00364   0.00040
 119 6   C  1S         -0.00100  -0.00051  -0.00017   0.00510  -0.00076
 120        2S         -0.00158  -0.00076  -0.00042   0.00820  -0.00121
 121        2PX        -0.00630  -0.05194  -0.01506   0.01058  -0.08871
 122        2PY         0.02579   0.02924  -0.05389  -0.07058  -0.02154
 123        2PZ        -0.00552   0.03979  -0.04875  -0.04500   0.00655
 124        3S          0.00033   0.00380   0.00310  -0.02768   0.00369
 125        3PX        -0.00971  -0.07542  -0.02313   0.01387  -0.12452
 126        3PY         0.04006   0.04071  -0.07537  -0.09606  -0.03092
 127        3PZ        -0.01052   0.05745  -0.06962  -0.06309   0.00861
 128        4S          0.07452  -0.03483   0.00531   0.03275   0.00152
 129        4PX        -0.00830  -0.05123  -0.01707   0.00682  -0.10379
 130        4PY         0.04914   0.01847  -0.05002  -0.06199  -0.02650
 131        4PZ        -0.01770   0.04281  -0.03994  -0.06535   0.01023
 132        5S         -0.01146  -0.03204   0.05328   0.05937  -0.00756
 133        5PX        -0.00394  -0.01330  -0.00777  -0.00352  -0.01512
 134        5PY         0.00690  -0.00154   0.00307  -0.00350  -0.00463
 135        5PZ         0.00313   0.01235  -0.02610  -0.02723   0.00564
 136        6D 0        0.00318   0.01394  -0.01865  -0.02638   0.00538
 137        6D+1        0.00043  -0.00227  -0.00078  -0.00130  -0.01047
 138        6D-1       -0.00251  -0.00081   0.00050   0.00475  -0.00262
 139        6D+2       -0.00238  -0.00357  -0.00690  -0.00660  -0.02075
 140        6D-2       -0.00239   0.00512   0.00428   0.00158   0.02647
 141 7   H  1S         -0.01287  -0.00320   0.06011   0.05966   0.07612
 142        2S         -0.01549  -0.00371   0.09124   0.09095   0.12024
 143        3S          0.00687  -0.00825   0.04154   0.04464   0.08269
 144        4PX        -0.00109  -0.00341   0.00459   0.00531  -0.00016
 145        4PY         0.00023   0.00199   0.00270   0.00065   0.00517
 146        4PZ        -0.00159   0.00341   0.00036  -0.00246   0.00290
 147 8   H  1S         -0.00897  -0.05750   0.00482   0.02855  -0.09336
 148        2S         -0.01738  -0.08391   0.00901   0.03944  -0.14789
 149        3S          0.01173  -0.03249   0.00263   0.01532  -0.09906
 150        4PX         0.00108   0.00418  -0.00172  -0.00236   0.00463
 151        4PY         0.00094   0.00112  -0.00368  -0.00444  -0.00279
 152        4PZ        -0.00076   0.00058  -0.00403  -0.00296  -0.00123
 153 9   H  1S          0.00408   0.05326  -0.06014  -0.07520   0.01662
 154        2S         -0.00056   0.08561  -0.09710  -0.12411   0.02664
 155        3S          0.02108   0.04448  -0.05689  -0.08166   0.01734
 156        4PX        -0.00062  -0.00206  -0.00270  -0.00138  -0.00536
 157        4PY         0.00137  -0.00081  -0.00058  -0.00062  -0.00222
 158        4PZ         0.00031  -0.00465   0.00404   0.00666  -0.00138
 159 10  H  1S          0.01046   0.01306  -0.01755   0.01123  -0.00105
 160        2S          0.02618   0.01650  -0.00572   0.00766  -0.00338
 161        3S          0.03673  -0.00735  -0.02046   0.03330  -0.03601
 162        4PX         0.00604   0.01248   0.00639  -0.00017   0.00089
 163        4PY        -0.00570  -0.00480  -0.00258   0.00067  -0.00107
 164        4PZ        -0.00163   0.01968   0.00730   0.00737  -0.01066
 165 11  H  1S          0.01124   0.02494  -0.00790  -0.01239  -0.01762
 166        2S          0.00639   0.01552  -0.01670  -0.02553  -0.01435
 167        3S          0.04365  -0.00207  -0.00830  -0.05143  -0.06022
 168        4PX         0.02060   0.00293  -0.00609   0.01083  -0.00022
 169        4PY        -0.00338   0.00380   0.01468  -0.00712  -0.00022
 170        4PZ         0.00599  -0.00055  -0.00750   0.00282  -0.00017
 171 12  H  1S          0.00275  -0.01547  -0.00967  -0.00359   0.01150
 172        2S         -0.00579  -0.02590  -0.01261   0.00420  -0.00022
 173        3S          0.02633  -0.05820  -0.05871   0.00891  -0.00066
 174        4PX         0.01127  -0.00766   0.01019  -0.00709  -0.00210
 175        4PY        -0.00053  -0.00199   0.01178  -0.00927  -0.00200
 176        4PZ         0.01597  -0.00489   0.00737  -0.00469  -0.00034
                          30        31        32        33        34
                           V         V         V         V         V
     EIGENVALUES --    -0.00825   0.02495   0.02987   0.03039   0.06082
   1 1   Si 1S          0.00540   0.00126  -0.00130   0.00105  -0.00224
   2        2S          0.01502   0.00350  -0.00361   0.00288  -0.00612
   3        3S         -0.03646  -0.00833   0.00853  -0.00660   0.01378
   4        4S         -0.05318  -0.01340   0.01417  -0.01237   0.02713
   5        5S         -0.05800   0.01616  -0.00670   0.02293  -0.04824
   6        6S          1.57012   0.02404  -0.32967   0.12008   0.01282
   7        7PX        -0.00043   0.00158  -0.00961  -0.00654  -0.00093
   8        7PY         0.00180  -0.01074  -0.00265   0.00208  -0.00405
   9        7PZ         0.00270  -0.00174   0.00291  -0.00186   0.01216
  10        8PX        -0.00087   0.00218  -0.01510  -0.00958  -0.00200
  11        8PY         0.00348  -0.01720  -0.00342   0.00345  -0.00616
  12        8PZ         0.00446  -0.00291   0.00584  -0.00421   0.02002
  13        9PX         0.00204   0.00226   0.00719  -0.00201   0.00577
  14        9PY        -0.00763   0.01004  -0.00523  -0.00369   0.00060
  15        9PZ        -0.00409   0.00356  -0.01386   0.01375  -0.01726
  16       10PX        -0.00118  -0.04152   0.13171   0.12378  -0.01141
  17       10PY         0.00166   0.14774   0.07122  -0.01161   0.08235
  18       10PZ        -0.02904   0.00511  -0.00161  -0.02198  -0.14561
  19       11PX         0.07347   0.37501  -0.18383  -0.67958   0.23481
  20       11PY        -0.27728  -0.32521  -0.66189  -0.01705  -0.36995
  21       11PZ         0.12723  -0.25197  -0.64137   0.49896   0.31293
  22       12S          2.28077  -0.60249   0.32358  -0.62166  -0.41571
  23       12PX         0.07929  -0.57455   0.87489   1.07153  -0.40277
  24       12PY         0.02707   1.18473   0.76525   0.17223   1.14998
  25       12PZ        -0.01008  -0.04160   0.91898  -1.03926  -1.07151
  26       13D 0       -0.00394   0.00569   0.00823  -0.00482   0.00306
  27       13D+1        0.00518  -0.00001   0.00558  -0.00554   0.00440
  28       13D-1       -0.00965   0.00953  -0.00166   0.01403  -0.00596
  29       13D+2        0.00441  -0.00556   0.00031   0.00786  -0.00866
  30       13D-2       -0.00220  -0.00281  -0.01468  -0.00754  -0.01099
  31 2   O  1S          0.01592   0.01054  -0.00036  -0.00180  -0.02375
  32        2S          0.02655   0.01756  -0.00058  -0.00305  -0.03947
  33        2PX         0.00078  -0.00061  -0.01760  -0.02762   0.01109
  34        2PY        -0.00039   0.00692  -0.02517   0.01757  -0.03602
  35        2PZ         0.01826  -0.01858  -0.00572   0.00383   0.01712
  36        3S         -0.08770  -0.05800   0.00180   0.01082   0.12774
  37        3PX         0.00126  -0.00037  -0.03036  -0.04429   0.01641
  38        3PY        -0.00250   0.00906  -0.04193   0.02723  -0.05037
  39        3PZ         0.03046  -0.02670  -0.00995   0.00749   0.02506
  40        4S         -0.17036  -0.10708  -0.01261   0.02956   0.33643
  41        4PX        -0.00380  -0.00537  -0.01571  -0.03838   0.03389
  42        4PY         0.02321   0.02358  -0.02655   0.02534  -0.12192
  43        4PZ         0.04494  -0.02968  -0.00259  -0.00978   0.00831
  44        5S         -0.76602   0.03552   0.44236  -0.25575   0.70528
  45        5PX        -0.01865  -0.01389  -0.05838   0.00633   0.04933
  46        5PY        -0.01361  -0.04293  -0.03191   0.05704  -0.10159
  47        5PZ         0.27335  -0.14620  -0.30186   0.20051   0.36900
  48        6D 0       -0.00194  -0.00084  -0.00234   0.00297   0.00089
  49        6D+1       -0.00030   0.00113  -0.00267   0.00015  -0.00062
  50        6D-1        0.00034  -0.00410   0.00198  -0.00306   0.00151
  51        6D+2        0.00065  -0.00203  -0.00145  -0.00110  -0.00021
  52        6D-2        0.00032  -0.00216   0.00168   0.00194  -0.00084
  53 3   O  1S          0.02365  -0.00345   0.00789   0.01591  -0.00196
  54        2S          0.03943  -0.00583   0.01308   0.02639  -0.00340
  55        2PX         0.00552   0.01571  -0.02765  -0.02392   0.00825
  56        2PY        -0.03141  -0.02674  -0.03701  -0.02859  -0.02182
  57        2PZ        -0.00149  -0.00252  -0.02292   0.01077   0.03625
  58        3S         -0.13044   0.02032  -0.04202  -0.08384   0.01372
  59        3PX         0.01030   0.02720  -0.04087  -0.03490   0.01296
  60        3PY        -0.04636  -0.04475  -0.05586  -0.04070  -0.03485
  61        3PZ        -0.00241  -0.00473  -0.03738   0.01663   0.05786
  62        4S         -0.24892   0.02948  -0.10875  -0.21850  -0.00335
  63        4PX         0.03691   0.00621  -0.04372  -0.02054   0.00682
  64        4PY        -0.08764  -0.02100  -0.08161  -0.08534  -0.03303
  65        4PZ        -0.02105   0.00388  -0.03365   0.00223   0.05477
  66        5S         -0.88316  -0.22762  -0.36009   0.01505  -0.00558
  67        5PX         0.13060   0.13446  -0.04859  -0.25987   0.03637
  68        5PY         0.03464  -0.16294  -0.04813  -0.07380  -0.06053
  69        5PZ        -0.07259  -0.06384   0.01237   0.10327   0.04528
  70        6D 0        0.00118   0.00063  -0.00017   0.00085  -0.00011
  71        6D+1        0.00172  -0.00049   0.00040  -0.00013  -0.00045
  72        6D-1       -0.00086  -0.00008  -0.00233  -0.00037   0.00044
  73        6D+2       -0.00063   0.00160   0.00174  -0.00050   0.00145
  74        6D-2        0.00174   0.00017   0.00053   0.00161   0.00072
  75 4   O  1S          0.02169  -0.00920  -0.01800  -0.00121  -0.00993
  76        2S          0.03619  -0.01533  -0.02986  -0.00212  -0.01660
  77        2PX        -0.01764   0.02018  -0.01107  -0.02850   0.01019
  78        2PY        -0.01251  -0.02990  -0.01170   0.00065  -0.01581
  79        2PZ         0.02734  -0.01381  -0.04620   0.01909   0.00915
  80        3S         -0.12043   0.05108   0.09492   0.00910   0.05509
  81        3PX        -0.02694   0.03281  -0.01880  -0.04893   0.01740
  82        3PY        -0.02124  -0.04684  -0.01553   0.00037  -0.02404
  83        3PZ         0.04105  -0.01938  -0.06717   0.02854   0.01694
  84        4S         -0.22013   0.10641   0.24503  -0.00953   0.10541
  85        4PX        -0.05605   0.03825   0.01798  -0.02256   0.02366
  86        4PY        -0.04419  -0.03083  -0.00040   0.01116  -0.01736
  87        4PZ         0.05729  -0.03607  -0.10946   0.04195  -0.01099
  88        5S         -1.02443   0.20223   0.07775  -0.00796   0.21027
  89        5PX        -0.11944  -0.00643  -0.14972  -0.08740  -0.01415
  90        5PY        -0.15171  -0.09509  -0.18137  -0.05878  -0.02328
  91        5PZ         0.01622  -0.03084  -0.09609  -0.04015   0.07498
  92        6D 0        0.00061  -0.00056  -0.00062  -0.00060  -0.00249
  93        6D+1        0.00081  -0.00086  -0.00030   0.00195   0.00055
  94        6D-1        0.00078   0.00025  -0.00212   0.00087  -0.00153
  95        6D+2        0.00048   0.00084   0.00008  -0.00053   0.00019
  96        6D-2       -0.00226   0.00017   0.00176   0.00007   0.00093
  97 5   O  1S          0.02247   0.01692  -0.00162  -0.00546   0.00894
  98        2S          0.03743   0.02811  -0.00269  -0.00896   0.01497
  99        2PX         0.01403   0.02038  -0.02523  -0.04453   0.01896
 100        2PY         0.00488  -0.01784  -0.02784   0.00338  -0.02571
 101        2PZ        -0.01821  -0.03484  -0.00844   0.02509   0.02753
 102        3S         -0.12254  -0.09049   0.00878   0.02673  -0.05058
 103        3PX         0.01969   0.02881  -0.04163  -0.06663   0.02785
 104        3PY         0.00933  -0.02620  -0.04514   0.00159  -0.03973
 105        3PZ        -0.02754  -0.05187  -0.01628   0.04088   0.04386
 106        4S         -0.24713  -0.22366   0.02217   0.09431  -0.09477
 107        4PX         0.02487   0.04554  -0.02831  -0.08567   0.03830
 108        4PY         0.03827  -0.00739  -0.03845   0.01490  -0.02732
 109        4PZ        -0.06365  -0.09279   0.00179   0.04289   0.02233
 110        5S         -0.69190  -0.16969   0.30647   0.23033  -0.10258
 111        5PX        -0.01230   0.07203  -0.06451  -0.10301   0.08328
 112        5PY         0.07982  -0.15389  -0.06993   0.04486  -0.15670
 113        5PZ        -0.03706   0.02741   0.05668   0.11648   0.08379
 114        6D 0       -0.00041  -0.00080  -0.00122   0.00107   0.00064
 115        6D+1       -0.00067   0.00083  -0.00137  -0.00092  -0.00142
 116        6D-1        0.00259   0.00083  -0.00003  -0.00175   0.00061
 117        6D+2        0.00125   0.00061   0.00043   0.00031   0.00019
 118        6D-2        0.00097  -0.00012   0.00067   0.00165  -0.00063
 119 6   C  1S          0.00788  -0.03011   0.01447  -0.01913   0.00841
 120        2S          0.01303  -0.05018   0.02409  -0.03188   0.01373
 121        2PX        -0.01099   0.00769  -0.02467  -0.01442   0.01602
 122        2PY         0.02725  -0.00808  -0.00607  -0.01253  -0.02456
 123        2PZ        -0.01502  -0.00454  -0.01931   0.02645   0.03253
 124        3S         -0.04267   0.16636  -0.07826   0.10259  -0.02872
 125        3PX        -0.01602   0.01107  -0.04132  -0.02940   0.02185
 126        3PY         0.03708  -0.00882  -0.01857  -0.01357  -0.02044
 127        3PZ        -0.02535  -0.01015  -0.03364   0.04547   0.04775
[...]
 102        3S          0.98434   0.49216   0.49218  -0.00003
 103        3PX         0.68557   0.34274   0.34283  -0.00010
 104        3PY         0.70750   0.35370   0.35379  -0.00009
 105        3PZ         0.71503   0.35747   0.35756  -0.00010
 106        4S          0.84631   0.42316   0.42314   0.00002
 107        4PX         0.52307   0.26152   0.26155  -0.00003
 108        4PY         0.52388   0.26195   0.26193   0.00001
 109        4PZ         0.59609   0.29805   0.29804   0.00001
 110        5S         -0.10462  -0.05227  -0.05234   0.00007
 111        5PX         0.02384   0.01192   0.01192  -0.00001
 112        5PY         0.06506   0.03254   0.03252   0.00002
 113        5PZ         0.00555   0.00278   0.00277   0.00001
 114        6D 0        0.00105   0.00053   0.00053   0.00000
 115        6D+1        0.00316   0.00158   0.00158   0.00000
 116        6D-1        0.00164   0.00082   0.00082   0.00000
 117        6D+2        0.00137   0.00069   0.00069   0.00000
 118        6D-2        0.00090   0.00045   0.00045   0.00000
 119 6   C  1S          1.10548   0.55274   0.55274   0.00000
 120        2S          0.88389   0.44194   0.44195   0.00000
 121        2PX         0.22792   0.11401   0.11391   0.00010
 122        2PY         0.19395   0.09695   0.09700  -0.00005
 123        2PZ         0.20758   0.10378   0.10380  -0.00001
 124        3S          0.74723   0.37363   0.37360   0.00003
 125        3PX         0.53470   0.26745   0.26725   0.00020
 126        3PY         0.47176   0.23584   0.23592  -0.00009
 127        3PZ         0.49639   0.24818   0.24820  -0.00002
 128        4S          0.47548   0.23774   0.23774   0.00000
 129        4PX         0.31712   0.15862   0.15850   0.00013
 130        4PY         0.20241   0.10117   0.10124  -0.00007
 131        4PZ         0.26230   0.13113   0.13117  -0.00004
 132        5S          0.08631   0.04313   0.04318  -0.00005
 133        5PX         0.01129   0.00565   0.00565   0.00000
 134        5PY         0.01166   0.00583   0.00583  -0.00001
 135        5PZ         0.00912   0.00456   0.00457  -0.00001
 136        6D 0        0.02304   0.01152   0.01152   0.00000
 137        6D+1        0.00729   0.00365   0.00365   0.00000
 138        6D-1        0.01862   0.00931   0.00931   0.00000
 139        6D+2        0.01767   0.00883   0.00884   0.00000
 140        6D-2        0.01848   0.00924   0.00924   0.00000
 141 7   H  1S          0.28123   0.14065   0.14058   0.00007
 142        2S          0.47133   0.23580   0.23554   0.00026
 143        3S          0.05915   0.02960   0.02955   0.00005
 144        4PX         0.00748   0.00373   0.00375  -0.00001
 145        4PY         0.00955   0.00478   0.00477   0.00000
 146        4PZ         0.00447   0.00223   0.00224  -0.00001
 147 8   H  1S          0.28134   0.14062   0.14072  -0.00010
 148        2S          0.47908   0.23934   0.23974  -0.00040
 149        3S          0.06537   0.03265   0.03272  -0.00007
 150        4PX         0.01270   0.00636   0.00634   0.00002
 151        4PY         0.00457   0.00228   0.00229  -0.00001
 152        4PZ         0.00422   0.00211   0.00211   0.00000
 153 9   H  1S          0.28203   0.14102   0.14101   0.00002
 154        2S          0.47824   0.23915   0.23909   0.00006
 155        3S          0.07030   0.03516   0.03515   0.00001
 156        4PX         0.00545   0.00273   0.00273   0.00000
 157        4PY         0.00397   0.00198   0.00199   0.00000
 158        4PZ         0.01177   0.00589   0.00589   0.00000
 159 10  H  1S          0.27227   0.13612   0.13615  -0.00003
 160        2S          0.32987   0.16490   0.16497  -0.00006
 161        3S          0.04689   0.02342   0.02347  -0.00006
 162        4PX         0.02052   0.01026   0.01026   0.00000
 163        4PY         0.02764   0.01382   0.01382   0.00000
 164        4PZ         0.02065   0.01033   0.01033   0.00000
 165 11  H  1S          0.27219   0.13605   0.13614  -0.00009
 166        2S          0.32934   0.16459   0.16475  -0.00016
 167        3S          0.04620   0.02306   0.02314  -0.00007
 168        4PX         0.02103   0.01051   0.01052   0.00000
 169        4PY         0.02076   0.01038   0.01038   0.00000
 170        4PZ         0.02717   0.01359   0.01358   0.00001
 171 12  H  1S          0.27193   0.13600   0.13593   0.00007
 172        2S          0.32921   0.16467   0.16454   0.00012
 173        3S          0.04971   0.02488   0.02483   0.00004
 174        4PX         0.02392   0.01196   0.01196   0.00000
 175        4PY         0.02071   0.01036   0.01035   0.00000
 176        4PZ         0.02426   0.01213   0.01213   0.00000
          Condensed to atoms (all electrons):
              1          2          3          4          5          6
     1  Si  11.709560   0.238396   0.287048   0.258388   0.262431  -0.081504
     2  O    0.238396   8.338802  -0.027291  -0.029861   0.024481   0.137652
     3  O    0.287048  -0.027291   8.122583  -0.016724  -0.001218  -0.004830
     4  O    0.258388  -0.029861  -0.016724   8.126075  -0.013191   0.018298
     5  O    0.262431   0.024481  -0.001218  -0.013191   8.076305  -0.006241
     6  C   -0.081504   0.137652  -0.004830   0.018298  -0.006241   4.993992
     7  H   -0.012388  -0.052685  -0.000577   0.004206  -0.000164   0.436305
     8  H   -0.007201  -0.056341   0.005374  -0.000407  -0.000900   0.428357
     9  H    0.009927  -0.058987  -0.000885  -0.000822   0.001365   0.405536
    10  H    0.033376  -0.016602   0.233841   0.010791  -0.017444   0.002847
    11  H    0.031806   0.013735  -0.013477   0.230444  -0.011219  -0.001170
    12  H    0.031180  -0.008704   0.009282  -0.010776   0.236408   0.000439
              7          8          9         10         11         12
     1  Si  -0.012388  -0.007201   0.009927   0.033376   0.031806   0.031180
     2  O   -0.052685  -0.056341  -0.058987  -0.016602   0.013735  -0.008704
     3  O   -0.000577   0.005374  -0.000885   0.233841  -0.013477   0.009282
     4  O    0.004206  -0.000407  -0.000822   0.010791   0.230444  -0.010776
     5  O   -0.000164  -0.000900   0.001365  -0.017444  -0.011219   0.236408
     6  C    0.436305   0.428357   0.405536   0.002847  -0.001170   0.000439
     7  H    0.530817  -0.039184  -0.031595  -0.000034  -0.001555   0.000062
     8  H   -0.039184   0.549578  -0.032533   0.000057   0.000455   0.000029
     9  H   -0.031595  -0.032533   0.559723  -0.000046   0.000061   0.000029
    10  H   -0.000034   0.000057  -0.000046   0.465782   0.002678   0.002600
    11  H   -0.001555   0.000455   0.000061   0.002678   0.464318   0.000613
    12  H    0.000062   0.000029   0.000029   0.002600   0.000613   0.458581
 Mulliken atomic charges:
              1
     1  Si   1.238981
     2  O   -0.502595
     3  O   -0.593128
     4  O   -0.576420
     5  O   -0.550611
     6  C   -0.329681
     7  H    0.166791
     8  H    0.152717
     9  H    0.148228
    10  H    0.282154
    11  H    0.283312
    12  H    0.280256
 Sum of Mulliken charges=   0.00000
 Atomic charges with hydrogens summed into heavy atoms:
              1
     1  Si   1.238981
     2  O   -0.502595
     3  O   -0.310974
     4  O   -0.293109
     5  O   -0.270355
     6  C    0.138053
     7  H    0.000000
     8  H    0.000000
     9  H    0.000000
    10  H    0.000000
    11  H    0.000000
    12  H    0.000000
 Sum of Mulliken charges=   0.00000
          Atomic-Atomic Spin Densities.
              1          2          3          4          5          6
     1  Si  -0.000138   0.000360  -0.000380  -0.000081   0.000573  -0.000068
     2  O    0.000360  -0.000500  -0.000040   0.000159  -0.000112   0.000009
     3  O   -0.000380  -0.000040   0.000673   0.000039  -0.000088  -0.000002
     4  O   -0.000081   0.000159   0.000039   0.000178  -0.000079   0.000008
     5  O    0.000573  -0.000112  -0.000088  -0.000079  -0.000690   0.000023
     6  C   -0.000068   0.000009  -0.000002   0.000008   0.000023   0.000154
     7  H    0.000119  -0.000174  -0.000010  -0.000034  -0.000009   0.000076
     8  H   -0.000158   0.000227   0.000023   0.000027   0.000010  -0.000092
     9  H    0.000024  -0.000039  -0.000001  -0.000003  -0.000001   0.000000
    10  H   -0.000140   0.000035   0.000087  -0.000024   0.000057  -0.000002
    11  H   -0.000151  -0.000006   0.000021   0.000202   0.000033  -0.000005
    12  H    0.000025  -0.000015   0.000018  -0.000018  -0.000088  -0.000001
              7          8          9         10         11         12
     1  Si   0.000119  -0.000158   0.000024  -0.000140  -0.000151   0.000025
     2  O   -0.000174   0.000227  -0.000039   0.000035  -0.000006  -0.000015
     3  O   -0.000010   0.000023  -0.000001   0.000087   0.000021   0.000018
     4  O   -0.000034   0.000027  -0.000003  -0.000024   0.000202  -0.000018
     5  O   -0.000009   0.000010  -0.000001   0.000057   0.000033  -0.000088
     6  C    0.000076  -0.000092   0.000000  -0.000002  -0.000005  -0.000001
     7  H    0.000388   0.000002   0.000007   0.000000   0.000003   0.000001
     8  H    0.000002  -0.000577  -0.000003  -0.000002  -0.000002   0.000000
     9  H    0.000007  -0.000003   0.000095   0.000000   0.000000   0.000000
    10  H    0.000000  -0.000002   0.000000  -0.000163  -0.000002   0.000002
    11  H    0.000003  -0.000002   0.000000  -0.000002  -0.000409  -0.000002
    12  H    0.000001   0.000000   0.000000   0.000002  -0.000002   0.000315
 Mulliken atomic spin densities:
              1
     1  Si  -0.000017
     2  O   -0.000096
     3  O    0.000339
     4  O    0.000375
     5  O   -0.000370
     6  C    0.000100
     7  H    0.000367
     8  H   -0.000547
     9  H    0.000080
    10  H   -0.000152
    11  H   -0.000316
    12  H    0.000237
 Sum of Mulliken spin densities=   0.00000
 Electronic spatial extent (au):  <R**2>=   711.0252
 Charge=     0.0000 electrons
 Dipole moment (field-independent basis, Debye):
    X=     0.2662    Y=     0.1341    Z=     0.3803  Tot=     0.4832
 Quadrupole moment (field-independent basis, Debye-Ang):
   XX=   -40.7404   YY=   -40.4463   ZZ=   -38.8206
   XY=    -0.0782   XZ=    -0.0873   YZ=     0.4316
 Traceless Quadrupole moment (field-independent basis, Debye-Ang):
   XX=    -0.7380   YY=    -0.4439   ZZ=     1.1818
   XY=    -0.0782   XZ=    -0.0873   YZ=     0.4316
 Octapole moment (field-independent basis, Debye-Ang**2):
  XXX=    -8.4905  YYY=    23.7712  ZZZ=   -45.9429  XYY=    -1.9098
  XXY=    21.1018  XXZ=   -14.9576  XZZ=    -1.7424  YZZ=    -4.7492
  YYZ=   -16.6331  XYZ=    -6.9706
 Hexadecapole moment (field-independent basis, Debye-Ang**3):
 XXXX=  -171.9099 YYYY=  -249.1640 ZZZZ=  -410.7610 XXXY=    10.8465
 XXXZ=   -18.6521 YYYX=     2.2215 YYYZ=    71.9553 ZZZX=    -7.0522
 ZZZY=    53.9374 XXYY=   -60.7358 XXZZ=  -106.3733 YYZZ=  -104.7562
 XXYZ=    15.2604 YYXZ=    -8.3242 ZZXY=     7.9622
 N-N= 3.509205233127D+02 E-N=-2.201198603226D+03  KE= 6.311397604885D+02
 Orbital energies and kinetic energies (alpha):
                           1         2
      25  O            -0.35763   2.19738
      26  O            -0.35155   2.11513
      27  O            -0.33032   2.21041
      28  O            -0.31678   2.26564
      29  O            -0.29964   2.14749
      30  V            -0.00826   0.62364
      31  V             0.02498   0.43902
      32  V             0.02988   0.42338
      33  V             0.03038   0.38431
      34  V             0.06080   0.50122
 Orbital energies and kinetic energies (beta):
                           1         2
      25  O            -0.35762   2.19727
      26  O            -0.35153   2.11410
      27  O            -0.33032   2.21083
      28  O            -0.31678   2.26551
      29  O            -0.29967   2.14740
      30  V            -0.00825   0.62366
      31  V             0.02495   0.43882
      32  V             0.02987   0.42475
      33  V             0.03039   0.38276
      34  V             0.06082   0.50127
 Total kinetic energy from orbitals= 6.311397604885D+02
                          Isotropic Fermi Contact Couplings
        Atom                 a.u.       MegaHertz       Gauss      10(-4) cm-1
     1  Si(29)             0.00008      -0.03502      -0.01250      -0.01168
     2  O(17)             -0.00002       0.00676       0.00241       0.00226
     3  O(17)              0.00020      -0.06020      -0.02148      -0.02008
     4  O(17)             -0.00045       0.13772       0.04914       0.04594
     5  O(17)              0.00023      -0.06847      -0.02443      -0.02284
     6  C(13)              0.00010       0.05372       0.01917       0.01792
     7  H(1)               0.00012       0.26732       0.09539       0.08917
     8  H(1)              -0.00017      -0.38587      -0.13769      -0.12871
     9  H(1)               0.00003       0.06040       0.02155       0.02015
    10  H(1)              -0.00006      -0.12434      -0.04437      -0.04148
    11  H(1)              -0.00014      -0.31786      -0.11342      -0.10603
    12  H(1)               0.00011       0.24884       0.08879       0.08300
 --------------------------------------------------------
       Center         ----  Spin Dipole Couplings  ----
                      3XX-RR        3YY-RR        3ZZ-RR
 --------------------------------------------------------
     1   Atom       -0.000766      0.000101      0.000665
     2   Atom       -0.001522      0.001728     -0.000205
     3   Atom       -0.001231     -0.000385      0.001616
     4   Atom       -0.000227     -0.000348      0.000575
     5   Atom       -0.000056      0.000079     -0.000023
     6   Atom        0.000885     -0.000630     -0.000255
     7   Atom       -0.000013      0.000011      0.000002
     8   Atom        0.000222     -0.000150     -0.000072
     9   Atom        0.000043     -0.000038     -0.000005
    10   Atom       -0.000079      0.000104     -0.000025
    11   Atom       -0.000110     -0.000052      0.000163
    12   Atom       -0.000027      0.000017      0.000009
 --------------------------------------------------------
                        XY            XZ            YZ
 --------------------------------------------------------
     1   Atom       -0.000345      0.001205      0.000108
     2   Atom        0.002400      0.003782      0.000678
     3   Atom        0.000697     -0.000867      0.003063
     4   Atom        0.000183     -0.000829     -0.000258
     5   Atom       -0.000535      0.000907      0.000765
     6   Atom       -0.000974      0.000392      0.000075
     7   Atom       -0.000108     -0.000086     -0.000085
     8   Atom        0.000002     -0.000145      0.000008
     9   Atom       -0.000026     -0.000006     -0.000029
    10   Atom        0.000080     -0.000107     -0.000188
    11   Atom       -0.000017     -0.000039      0.000133
    12   Atom        0.000130      0.000127     -0.000102
 --------------------------------------------------------


 ---------------------------------------------------------------------------------
              Anisotropic Spin Dipole Couplings in Principal Axis System
 ---------------------------------------------------------------------------------

       Atom             a.u.   MegaHertz   Gauss  10(-4) cm-1        Axes

              Baa    -0.0015     0.162     0.058     0.054  0.8521  0.2119 -0.4785
     1 Si(29) Bbb     0.0002    -0.018    -0.007    -0.006 -0.1528  0.9752  0.1598
              Bcc     0.0014    -0.144    -0.051    -0.048  0.5005 -0.0631  0.8634
 
              Baa    -0.0050     0.363     0.130     0.121  0.7819 -0.2195 -0.5835
     2 O(17)  Bbb     0.0004    -0.031    -0.011    -0.010 -0.2384  0.7595 -0.6053
              Bcc     0.0046    -0.332    -0.118    -0.111  0.5760  0.6124  0.5415
 
              Baa    -0.0032     0.231     0.083     0.077 -0.4816  0.6975 -0.5307
     3 O(17)  Bbb    -0.0007     0.048     0.017     0.016  0.8744  0.4235 -0.2369
              Bcc     0.0039    -0.279    -0.100    -0.093 -0.0595  0.5781  0.8138
 
              Baa    -0.0007     0.054     0.019     0.018  0.8507 -0.0502  0.5233
     4 O(17)  Bbb    -0.0004     0.030     0.011     0.010 -0.0657  0.9775  0.2005
              Bcc     0.0012    -0.084    -0.030    -0.028 -0.5216 -0.2050  0.8282
 
              Baa    -0.0015     0.108     0.038     0.036 -0.5882 -0.5080  0.6293
     5 O(17)  Bbb     0.0005    -0.040    -0.014    -0.013 -0.6309  0.7751  0.0359
              Bcc     0.0009    -0.068    -0.024    -0.023  0.5060  0.3759  0.7764
 
              Baa    -0.0012    -0.157    -0.056    -0.052  0.4535  0.8514 -0.2634
     6 C(13)  Bbb    -0.0003    -0.034    -0.012    -0.011 -0.0518  0.3202  0.9459
              Bcc     0.0014     0.191     0.068     0.064  0.8897 -0.4154  0.1893
 
              Baa    -0.0002    -0.100    -0.036    -0.033  0.6203  0.5694  0.5394
     7 H(1)   Bbb     0.0001     0.042     0.015     0.014 -0.5006 -0.2420  0.8311
              Bcc     0.0001     0.058     0.021     0.019 -0.6038  0.7856 -0.1349
 
              Baa    -0.0002    -0.082    -0.029    -0.027 -0.1271  0.9408 -0.3141
     8 H(1)   Bbb    -0.0001    -0.069    -0.024    -0.023  0.3585  0.3389  0.8699
              Bcc     0.0003     0.150     0.054     0.050  0.9249 -0.0020 -0.3803
 
              Baa    -0.0001    -0.033    -0.012    -0.011  0.2396  0.8542  0.4615
     9 H(1)   Bbb     0.0000     0.005     0.002     0.002 -0.1819 -0.4274  0.8856
              Bcc     0.0001     0.027     0.010     0.009  0.9537 -0.2961  0.0529
 
              Baa    -0.0002    -0.098    -0.035    -0.033  0.5120  0.3651  0.7775
    10 H(1)   Bbb    -0.0001    -0.053    -0.019    -0.018  0.7911 -0.5532 -0.2612
              Bcc     0.0003     0.151     0.054     0.050  0.3347  0.7488 -0.5721
 
              Baa    -0.0001    -0.062    -0.022    -0.021  0.7153 -0.5873  0.3789
    11 H(1)   Bbb    -0.0001    -0.061    -0.022    -0.020  0.6879  0.6874 -0.2331
              Bcc     0.0002     0.123     0.044     0.041 -0.1235  0.4273  0.8956
 
              Baa    -0.0002    -0.129    -0.046    -0.043  0.6451 -0.5366 -0.5440
    12 H(1)   Bbb     0.0001     0.061     0.022     0.020  0.2329 -0.5399  0.8088
              Bcc     0.0001     0.068     0.024     0.023  0.7277  0.6485  0.2233
 

 ---------------------------------------------------------------------------------

 No NMR shielding tensors so no spin-rotation constants.
 Leave Link  601 at Sun Apr 12 05:10:14 2009, MaxMem=  524288000 cpu:       3.6
 (Enter /opt//g03/l9999.exe)
 1\1\GINC-REMBRANDT\SP\UB971\6-311+G(d,p)\C1H6O4Si1\WP214\12-Apr-2009\0
 \\#p uB971/6-311+G(d,p) #GFInput Population=Regular #Integral(Grid=Ult
 raFine) Guess=Mix NoSymmetry\\Title : SPE Cal using uB971/6-311+G(d,p)
  with UltraFine from Q5J.mol\\0,1\Si,0,0.,0.,0.\O,0,0.,0.,1.62017\O,0,
 1.47401,0.,-0.69802\O,0,-0.73638,-1.36999,-0.48316\O,0,-0.73435,1.3809
 8,-0.45836\C,0,0.35246,-1.07642,2.4524\H,0,-0.25264,-1.94756,2.23469\H
 ,0,1.39924,-1.3317,2.32951\H,0,0.18535,-0.77432,3.47701\H,0,1.89309,0.
 84131,-0.8127\H,0,-0.53868,-1.68184,-1.35486\H,0,-1.41939,1.70979,0.10
 656\\Version=AM64L-G03RevE.01\HF=-632.2777687\S2=0.000009\S2-1=0.\S2A=
 0.\RMSD=3.511e-05\Thermal=0.\Dipole=0.1047253,0.0527717,0.1496249\PG=C
 01 [X(C1H6O4Si1)]\\@


 I CLAIM NOT TO HAVE CONTROLLED EVENTS,
 BUT CONFESS PLAINLY THAT EVENTS HAVE CONTROLLED ME.

                                         A. LINCOLN
 Job cpu time:  0 days  0 hours  4 minutes  2.0 seconds.
 File lengths (MBytes):  RWF=     35 Int=      0 D2E=      0 Chk=     11 Scr=      1
 Normal termination of Gaussian 03 at Sun Apr 12 05:10:17 2009.
