 Entering Gaussian System, Link 0=g03
 Input=./Si(OH)3OCH2.gau
 Output=./Si(OH)3OCH2.log
 Initial command:
 /opt//g03/l1.exe /scratch/Gau-28703.inp -scrdir=/scratch/
 Entering Link 1 = /opt//g03/l1.exe PID=     28720.
  
 Copyright (c) 1988,1990,1992,1993,1995,1998,2003,2004,2007, Gaussian, Inc.
                  All Rights Reserved.
  
 This is the Gaussian(R) 03 program.  It is based on the
 the Gaussian(R) 98 system (copyright 1998, Gaussian, Inc.),
 the Gaussian(R) 94 system (copyright 1995, Gaussian, Inc.),
 the Gaussian 92(TM) system (copyright 1992, Gaussian, Inc.),
 the Gaussian 90(TM) system (copyright 1990, Gaussian, Inc.),
 the Gaussian 88(TM) system (copyright 1988, Gaussian, Inc.),
 the Gaussian 86(TM) system (copyright 1986, Carnegie Mellon
 University), and the Gaussian 82(TM) system (copyright 1983,
 Carnegie Mellon University). Gaussian is a federally registered
 trademark of Gaussian, Inc.
  
 This software contains proprietary and confidential information,
 including trade secrets, belonging to Gaussian, Inc.
  
 This software is provided under written license and may be
 used, copied, transmitted, or stored only in accord with that
 written license.
  
 The following legend is applicable only to US Government
 contracts under FAR:
  
                    RESTRICTED RIGHTS LEGEND
  
 Use, reproduction and disclosure by the US Government is
 subject to restrictions as set forth in subparagraphs (a)
 and (c) of the Commercial Computer Software - Restricted
 Rights clause in FAR 52.227-19.
  
 Gaussian, Inc.
 340 Quinnipiac St., Bldg. 40, Wallingford CT 06492
  
  
 ---------------------------------------------------------------
 Warning -- This program may not be used in any manner that
 competes with the business of Gaussian, Inc. or will provide
 assistance to any competitor of Gaussian, Inc.  The licensee
 of this program is prohibited from giving any competitor of
 Gaussian, Inc. access to this program.  By using this program,
 the user acknowledges that Gaussian, Inc. is engaged in the
 business of creating and licensing software in the field of
 computational chemistry and represents and warrants to the
 licensee that it is not a competitor of Gaussian, Inc. and that
 it will not use this program in any manner prohibited above.
 ---------------------------------------------------------------
  

 Cite this work as:
 Gaussian 03, Revision E.01,
 M. J. Frisch, G. W. Trucks, H. B. Schlegel, G. E. Scuseria, 
 M. A. Robb, J. R. Cheeseman, J. A. Montgomery, Jr., T. Vreven, 
 K. N. Kudin, J. C. Burant, J. M. Millam, S. S. Iyengar, J. Tomasi, 
 V. Barone, B. Mennucci, M. Cossi, G. Scalmani, N. Rega, 
 G. A. Petersson, H. Nakatsuji, M. Hada, M. Ehara, K. Toyota, 
 R. Fukuda, J. Hasegawa, M. Ishida, T. Nakajima, Y. Honda, O. Kitao, 
 H. Nakai, M. Klene, X. Li, J. E. Knox, H. P. Hratchian, J. B. Cross, 
 V. Bakken, C. Adamo, J. Jaramillo, R. Gomperts, R. E. Stratmann, 
 O. Yazyev, A. J. Austin, R. Cammi, C. Pomelli, J. W. Ochterski, 
 P. Y. Ayala, K. Morokuma, G. A. Voth, P. Salvador, J. J. Dannenberg, 
 V. G. Zakrzewski, S. Dapprich, A. D. Daniels, M. C. Strain, 
 O. Farkas, D. K. Malick, A. D. Rabuck, K. Raghavachari, 
 J. B. Foresman, J. V. Ortiz, Q. Cui, A. G. Baboul, S. Clifford, 
 J. Cioslowski, B. B. Stefanov, G. Liu, A. Liashenko, P. Piskorz, 
 I. Komaromi, R. L. Martin, D. J. Fox, T. Keith, M. A. Al-Laham, 
 C. Y. Peng, A. Nanayakkara, M. Challacombe, P. M. W. Gill, 
 B. Johnson, W. Chen, M. W. Wong, C. Gonzalez, and J. A. Pople, 
 Gaussian, Inc., Wallingford CT, 2004.
 
 ******************************************
 Gaussian 03:  AM64L-G03RevE.01 11-Sep-2007
                16-Apr-2009 
 ******************************************
 %NProcShared=8
 Will use up to    8 processors via shared memory.
 ----------------------------------------------------------------------
 #p uB971/6-311+G(d,p) opt=(Tight, NewEstmFC, MaxCyc = 200) freq #GFInp
 ut Population=Regular #Integral(Grid=UltraFine) Guess=Mix NoSymmetry
 ----------------------------------------------------------------------
 1/6=200,7=10,10=7,14=-1,18=20,26=3,38=1/1,3;
 2/9=110,15=1,17=6,18=5,40=1/2;
 3/5=4,6=6,7=111,11=2,16=1,24=10,25=1,30=1,74=-20,75=5/1,2,3;
 4/7=2,9=2,13=1/1;
 5/5=2,38=5/2;
 6/28=1/1;
 7/29=1,30=1/1,2,3,16;
 1/6=200,10=7,14=-1,18=20/3(3);
 2/9=110,15=1/2;
 6/19=2,28=1/1;
 99//99;
 2/9=110,15=1/2;
 3/5=4,6=6,7=111,11=2,16=1,25=1,30=1,74=-20,75=5/1,2,3;
 4/5=5,7=2,9=2,16=3/1;
 5/5=2,38=5/2;
 7/30=1/1,2,3,16;
 1/6=200,14=-1,18=20/3(-5);
 2/9=110,15=1/2;
 6/19=2,28=1/1;
 99/9=1/99;
 Leave Link    1 at Thu Apr 16 15:33:27 2009, MaxMem=          0 cpu:       1.6
 (Enter /opt//g03/l101.exe)
 ---------------------------
 #NewComb uB971/6-311+G(d,p)
 ---------------------------
 Symbolic Z-matrix:
 Charge =  0 Multiplicity = 2
 Si                    0.        0.        0. 
 O                     0.        0.        1.63102 
 O                     1.46857   0.       -0.69898 
 O                    -0.74465  -1.36693  -0.46944 
 O                    -0.73379   1.38465  -0.43997 
 C                     0.25116  -1.06124   2.44742 
 H                     0.31497  -0.80056   3.48629 
 H                    -0.16563  -2.00801   2.15612 
 H                     1.90684   0.83415  -0.79221 
 H                    -0.5207   -1.71353  -1.32153 
 H                    -1.43125   1.70422   0.11486 
 
                    Isotopes and Nuclear Properties:
 (Nuclear quadrupole moments (NQMom) in fm**2, nuclear magnetic moments (NMagM)
  in nuclear magnetons)

  Atom         1           2           3           4           5           6           7           8           9          10
 IAtWgt=          28          16          16          16          16          12           1           1           1           1
 AtmWgt=  27.9769284  15.9949146  15.9949146  15.9949146  15.9949146  12.0000000   1.0078250   1.0078250   1.0078250   1.0078250
 NucSpn=           0           0           0           0           0           0           1           1           1           1
 AtZEff=   0.0000000   0.0000000   0.0000000   0.0000000   0.0000000   0.0000000   0.0000000   0.0000000   0.0000000   0.0000000
 NQMom=    0.0000000   0.0000000   0.0000000   0.0000000   0.0000000   0.0000000   0.0000000   0.0000000   0.0000000   0.0000000
 NMagM=    0.0000000   0.0000000   0.0000000   0.0000000   0.0000000   0.0000000   2.7928460   2.7928460   2.7928460   2.7928460

  Atom        11
 IAtWgt=           1
 AtmWgt=   1.0078250
 NucSpn=           1
 AtZEff=   0.0000000
 NQMom=    0.0000000
 NMagM=    2.7928460
 Leave Link  101 at Thu Apr 16 15:33:27 2009, MaxMem=    6291456 cpu:       0.3
 (Enter /opt//g03/l103.exe)

 GradGradGradGradGradGradGradGradGradGradGradGradGradGradGradGradGradGrad
 Berny optimization.
 Initialization pass.
                           ----------------------------
                           !    Initial Parameters    !
                           ! (Angstroms and Degrees)  !
 --------------------------                            --------------------------
 ! Name  Definition              Value          Derivative Info.                !
 --------------------------------------------------------------------------------
 ! R1    R(1,2)                  1.631          estimate D2E/DX2                !
 ! R2    R(1,3)                  1.6264         estimate D2E/DX2                !
 ! R3    R(1,4)                  1.6258         estimate D2E/DX2                !
 ! R4    R(1,5)                  1.6277         estimate D2E/DX2                !
 ! R5    R(2,6)                  1.3623         estimate D2E/DX2                !
 ! R6    R(3,9)                  0.9469         estimate D2E/DX2                !
 ! R7    R(4,10)                 0.9468         estimate D2E/DX2                !
 ! R8    R(5,11)                 0.9468         estimate D2E/DX2                !
 ! R9    R(6,7)                  1.073          estimate D2E/DX2                !
 ! R10   R(6,8)                  1.0747         estimate D2E/DX2                !
 ! A1    A(2,1,3)              115.4526         estimate D2E/DX2                !
 ! A2    A(2,1,4)              106.7824         estimate D2E/DX2                !
 ! A3    A(2,1,5)              105.6827         estimate D2E/DX2                !
 ! A4    A(3,1,4)              106.8259         estimate D2E/DX2                !
 ! A5    A(3,1,5)              106.9118         estimate D2E/DX2                !
 ! A6    A(4,1,5)              115.5116         estimate D2E/DX2                !
 ! A7    A(1,2,6)              126.8189         estimate D2E/DX2                !
 ! A8    A(1,3,9)              117.4029         estimate D2E/DX2                !
 ! A9    A(1,4,10)             117.3437         estimate D2E/DX2                !
 ! A10   A(1,5,11)             117.4412         estimate D2E/DX2                !
 ! A11   A(2,6,7)              113.6996         estimate D2E/DX2                !
 ! A12   A(2,6,8)              116.8943         estimate D2E/DX2                !
 ! A13   A(7,6,8)              119.9699         estimate D2E/DX2                !
 ! D1    D(3,1,2,6)            -76.6851         estimate D2E/DX2                !
 ! D2    D(4,1,2,6)             41.8948         estimate D2E/DX2                !
 ! D3    D(5,1,2,6)            165.3937         estimate D2E/DX2                !
 ! D4    D(2,1,3,9)            -82.8815         estimate D2E/DX2                !
 ! D5    D(4,1,3,9)            158.5627         estimate D2E/DX2                !
 ! D6    D(5,1,3,9)             34.3517         estimate D2E/DX2                !
 ! D7    D(2,1,4,10)          -154.468          estimate D2E/DX2                !
 ! D8    D(3,1,4,10)           -30.4009         estimate D2E/DX2                !
 ! D9    D(5,1,4,10)            88.3538         estimate D2E/DX2                !
 ! D10   D(2,1,5,11)           -33.7336         estimate D2E/DX2                !
 ! D11   D(3,1,5,11)          -157.2328         estimate D2E/DX2                !
 ! D12   D(4,1,5,11)            84.06           estimate D2E/DX2                !
 ! D13   D(1,2,6,7)            172.859          estimate D2E/DX2                !
 ! D14   D(1,2,6,8)            -40.5919         estimate D2E/DX2                !
 --------------------------------------------------------------------------------
 Trust Radius=3.00D-01 FncErr=1.00D-07 GrdErr=1.00D-06
 Number of steps in this run= 100 maximum allowed number of steps= 100.
 GradGradGradGradGradGradGradGradGradGradGradGradGradGradGradGradGradGrad

 Leave Link  103 at Thu Apr 16 15:33:28 2009, MaxMem=    6291456 cpu:       0.1
 (Enter /opt//g03/l202.exe)
                          Input orientation:                          
 ---------------------------------------------------------------------
 Center     Atomic     Atomic              Coordinates (Angstroms)
 Number     Number      Type              X           Y           Z
 ---------------------------------------------------------------------
    1         14             0        0.000000    0.000000    0.000000
    2          8             0        0.000000    0.000000    1.631020
    3          8             0        1.468572    0.000000   -0.698983
    4          8             0       -0.744649   -1.366925   -0.469443
    5          8             0       -0.733792    1.384649   -0.439972
    6          6             0        0.251159   -1.061242    2.447421
    7          1             0        0.314974   -0.800564    3.486288
    8          1             0       -0.165630   -2.008010    2.156115
    9          1             0        1.906838    0.834148   -0.792211
   10          1             0       -0.520700   -1.713532   -1.321533
   11          1             0       -1.431250    1.704223    0.114860
 ---------------------------------------------------------------------
                    Distance matrix (angstroms):
                    1          2          3          4          5
     1  Si   0.000000
     2  O    1.631020   0.000000
     3  O    1.626432   2.754200   0.000000
     4  O    1.625842   2.614370   2.611421   0.000000
     5  O    1.627661   2.597058   2.614335   2.751753   0.000000
     6  C    2.679400   1.362287   3.536692   3.097284   3.910185
     7  H    3.590866   2.045026   4.414542   4.134171   4.614172
     8  H    2.950995   2.082129   3.854128   2.764020   4.309595
     9  H    2.226978   3.194352   0.946875   3.461110   2.720303
    10  H    2.225707   3.453243   2.698326   0.946756   3.228201
    11  H    2.228463   2.692878   3.460590   3.200747   0.946791
                    6          7          8          9         10
     6  C    0.000000
     7  H    1.072973   0.000000
     8  H    1.074682   1.859641   0.000000
     9  H    4.102315   4.848904   4.589729   0.000000
    10  H    3.902084   4.964575   3.508109   3.558623   0.000000
    11  H    3.989879   4.548602   4.421447   3.566881   3.817509
                   11
    11  H    0.000000
 Symmetry turned off by external request.
 Stoichiometry    CH5O4Si(2)
 Framework group  C1[X(CH5O4Si)]
 Deg. of freedom    27
 Full point group                 C1
 Rotational constants (GHZ):      3.9561441      2.3977983      2.2776216
 Leave Link  202 at Thu Apr 16 15:33:28 2009, MaxMem=    6291456 cpu:       0.6
 (Enter /opt//g03/l301.exe)
 Standard basis: 6-311+G(d,p) (5D, 7F)
 AO basis set in the form of general basis input:
      1 0
 S   6 1.00       0.000000000000
      0.6937923000D+05  0.7570004081D-03
      0.1035494000D+05  0.5932003198D-02
      0.2333879600D+04  0.3108801676D-01
      0.6571429500D+03  0.1249670674D+00
      0.2143011300D+03  0.3868972086D+00
      0.7762916800D+02  0.5548882991D+00
 S   3 1.00       0.000000000000
      0.7762916800D+02  0.1778809451D+00
      0.3063080700D+02  0.6277648062D+00
      0.1280129500D+02  0.2476229236D+00
 S   1 1.00       0.000000000000
      0.3926866000D+01  0.1000000000D+01
 S   1 1.00       0.000000000000
      0.1452343000D+01  0.1000000000D+01
 S   1 1.00       0.000000000000
      0.2562340000D+00  0.1000000000D+01
 S   1 1.00       0.000000000000
      0.9427900000D-01  0.1000000000D+01
 P   4 1.00       0.000000000000
      0.3354831900D+03  0.8865998148D-02
      0.7890036600D+02  0.6829898573D-01
      0.2498815000D+02  0.2909579392D+00
      0.9219711000D+01  0.7321168470D+00
 P   2 1.00       0.000000000000
      0.3621140000D+01  0.6198794404D+00
      0.1451310000D+01  0.4391483120D+00
 P   1 1.00       0.000000000000
      0.5049770000D+00  0.1000000000D+01
 P   1 1.00       0.000000000000
      0.1863170000D+00  0.1000000000D+01
 P   1 1.00       0.000000000000
      0.6543200000D-01  0.1000000000D+01
 SP   1 1.00       0.000000000000
      0.3310000000D-01  0.1000000000D+01  0.1000000000D+01
 D   1 1.00       0.000000000000
      0.4500000000D+00  0.1000000000D+01
 ****
      2 0
 S   6 1.00       0.000000000000
      0.8588500000D+04  0.1895150083D-02
      0.1297230000D+04  0.1438590063D-01
      0.2992960000D+03  0.7073200310D-01
      0.8737710000D+02  0.2400010105D+00
      0.2567890000D+02  0.5947970261D+00
      0.3740040000D+01  0.2808020123D+00
 SP   3 1.00       0.000000000000
      0.4211750000D+02  0.1138890124D+00  0.3651139738D-01
      0.9628370000D+01  0.9208111006D+00  0.2371529830D+00
      0.2853320000D+01 -0.3274470358D-02  0.8197019412D+00
 SP   1 1.00       0.000000000000
      0.9056610000D+00  0.1000000000D+01  0.1000000000D+01
 SP   1 1.00       0.000000000000
      0.2556110000D+00  0.1000000000D+01  0.1000000000D+01
 SP   1 1.00       0.000000000000
      0.8450000000D-01  0.1000000000D+01  0.1000000000D+01
 D   1 1.00       0.000000000000
      0.1292000000D+01  0.1000000000D+01
 ****
      3 0
 S   6 1.00       0.000000000000
      0.8588500000D+04  0.1895150083D-02
      0.1297230000D+04  0.1438590063D-01
      0.2992960000D+03  0.7073200310D-01
      0.8737710000D+02  0.2400010105D+00
      0.2567890000D+02  0.5947970261D+00
      0.3740040000D+01  0.2808020123D+00
 SP   3 1.00       0.000000000000
      0.4211750000D+02  0.1138890124D+00  0.3651139738D-01
      0.9628370000D+01  0.9208111006D+00  0.2371529830D+00
      0.2853320000D+01 -0.3274470358D-02  0.8197019412D+00
 SP   1 1.00       0.000000000000
      0.9056610000D+00  0.1000000000D+01  0.1000000000D+01
 SP   1 1.00       0.000000000000
      0.2556110000D+00  0.1000000000D+01  0.1000000000D+01
 SP   1 1.00       0.000000000000
      0.8450000000D-01  0.1000000000D+01  0.1000000000D+01
 D   1 1.00       0.000000000000
      0.1292000000D+01  0.1000000000D+01
 ****
      4 0
 S   6 1.00       0.000000000000
      0.8588500000D+04  0.1895150083D-02
      0.1297230000D+04  0.1438590063D-01
      0.2992960000D+03  0.7073200310D-01
      0.8737710000D+02  0.2400010105D+00
      0.2567890000D+02  0.5947970261D+00
      0.3740040000D+01  0.2808020123D+00
 SP   3 1.00       0.000000000000
      0.4211750000D+02  0.1138890124D+00  0.3651139738D-01
      0.9628370000D+01  0.9208111006D+00  0.2371529830D+00
      0.2853320000D+01 -0.3274470358D-02  0.8197019412D+00
 SP   1 1.00       0.000000000000
      0.9056610000D+00  0.1000000000D+01  0.1000000000D+01
 SP   1 1.00       0.000000000000
      0.2556110000D+00  0.1000000000D+01  0.1000000000D+01
 SP   1 1.00       0.000000000000
      0.8450000000D-01  0.1000000000D+01  0.1000000000D+01
 D   1 1.00       0.000000000000
      0.1292000000D+01  0.1000000000D+01
 ****
      5 0
 S   6 1.00       0.000000000000
      0.8588500000D+04  0.1895150083D-02
      0.1297230000D+04  0.1438590063D-01
      0.2992960000D+03  0.7073200310D-01
      0.8737710000D+02  0.2400010105D+00
      0.2567890000D+02  0.5947970261D+00
      0.3740040000D+01  0.2808020123D+00
 SP   3 1.00       0.000000000000
      0.4211750000D+02  0.1138890124D+00  0.3651139738D-01
      0.9628370000D+01  0.9208111006D+00  0.2371529830D+00
      0.2853320000D+01 -0.3274470358D-02  0.8197019412D+00
 SP   1 1.00       0.000000000000
      0.9056610000D+00  0.1000000000D+01  0.1000000000D+01
 SP   1 1.00       0.000000000000
      0.2556110000D+00  0.1000000000D+01  0.1000000000D+01
 SP   1 1.00       0.000000000000
      0.8450000000D-01  0.1000000000D+01  0.1000000000D+01
 D   1 1.00       0.000000000000
      0.1292000000D+01  0.1000000000D+01
 ****
      6 0
 S   6 1.00       0.000000000000
      0.4563240000D+04  0.1966650249D-02
      0.6820240000D+03  0.1523060193D-01
      0.1549730000D+03  0.7612690966D-01
      0.4445530000D+02  0.2608010331D+00
      0.1302900000D+02  0.6164620782D+00
      0.1827730000D+01  0.2210060280D+00
 SP   3 1.00       0.000000000000
      0.2096420000D+02  0.1146600807D+00  0.4024869267D-01
      0.4803310000D+01  0.9199996477D+00  0.2375939567D+00
      0.1459330000D+01 -0.3030682134D-02  0.8158538515D+00
 SP   1 1.00       0.000000000000
      0.4834560000D+00  0.1000000000D+01  0.1000000000D+01
 SP   1 1.00       0.000000000000
      0.1455850000D+00  0.1000000000D+01  0.1000000000D+01
 SP   1 1.00       0.000000000000
      0.4380000000D-01  0.1000000000D+01  0.1000000000D+01
 D   1 1.00       0.000000000000
      0.6260000000D+00  0.1000000000D+01
 ****
      7 0
 S   3 1.00       0.000000000000
      0.3386500000D+02  0.2549381454D-01
      0.5094790000D+01  0.1903731086D+00
      0.1158790000D+01  0.8521614860D+00
 S   1 1.00       0.000000000000
      0.3258400000D+00  0.1000000000D+01
 S   1 1.00       0.000000000000
      0.1027410000D+00  0.1000000000D+01
 P   1 1.00       0.000000000000
      0.7500000000D+00  0.1000000000D+01
 ****
      8 0
 S   3 1.00       0.000000000000
      0.3386500000D+02  0.2549381454D-01
      0.5094790000D+01  0.1903731086D+00
      0.1158790000D+01  0.8521614860D+00
 S   1 1.00       0.000000000000
      0.3258400000D+00  0.1000000000D+01
 S   1 1.00       0.000000000000
      0.1027410000D+00  0.1000000000D+01
 P   1 1.00       0.000000000000
      0.7500000000D+00  0.1000000000D+01
 ****
      9 0
 S   3 1.00       0.000000000000
      0.3386500000D+02  0.2549381454D-01
      0.5094790000D+01  0.1903731086D+00
      0.1158790000D+01  0.8521614860D+00
 S   1 1.00       0.000000000000
      0.3258400000D+00  0.1000000000D+01
 S   1 1.00       0.000000000000
      0.1027410000D+00  0.1000000000D+01
 P   1 1.00       0.000000000000
      0.7500000000D+00  0.1000000000D+01
 ****
     10 0
 S   3 1.00       0.000000000000
      0.3386500000D+02  0.2549381454D-01
      0.5094790000D+01  0.1903731086D+00
      0.1158790000D+01  0.8521614860D+00
 S   1 1.00       0.000000000000
      0.3258400000D+00  0.1000000000D+01
 S   1 1.00       0.000000000000
      0.1027410000D+00  0.1000000000D+01
 P   1 1.00       0.000000000000
      0.7500000000D+00  0.1000000000D+01
 ****
     11 0
 S   3 1.00       0.000000000000
      0.3386500000D+02  0.2549381454D-01
      0.5094790000D+01  0.1903731086D+00
      0.1158790000D+01  0.8521614860D+00
 S   1 1.00       0.000000000000
      0.3258400000D+00  0.1000000000D+01
 S   1 1.00       0.000000000000
      0.1027410000D+00  0.1000000000D+01
 P   1 1.00       0.000000000000
      0.7500000000D+00  0.1000000000D+01
 ****

 Integral buffers will be    131072 words long.
 Raffenetti 2 integral format.
 Two-electron integral symmetry is turned off.
   170 basis functions,   270 primitive gaussians,   176 cartesian basis functions
    29 alpha electrons       28 beta electrons
       nuclear repulsion energy       339.9289384058 Hartrees.
 IExCor=1614 DFT=T Ex=B97-1+HF Corr=B97-1 ExCW=0 ScaHFX=  0.210000
 ScaDFX=  1.000000  1.000000  1.000000  1.000000
 IRadAn=      5 IRanWt=     -1 IRanGd=            0 ICorTp=0
 NAtoms=   11 NActive=   11 NUniq=   11 SFac= 7.50D-01 NAtFMM=   80 NAOKFM=F Big=F
 Leave Link  301 at Thu Apr 16 15:33:28 2009, MaxMem=    6291456 cpu:       0.5
 (Enter /opt//g03/l302.exe)
 NPDir=0 NMtPBC=     1 NCelOv=     1 NCel=       1 NClECP=     1 NCelD=      1
         NCelK=      1 NCelE2=     1 NClLst=     1 CellRange=     0.0.
 One-electron integrals computed using PRISM.
 PrsmSu:  requested number of processors reduced to:   7 ShMem   1 Linda.
 NBasis=   170 RedAO= T  NBF=   170
 NBsUse=   170 1.00D-06 NBFU=   170
 Precomputing XC quadrature grid using
 IXCGrd= 2 IRadAn=           5 IRanWt=          -1 IRanGd=           0.
 NRdTot=     934 NPtTot=      250772 NUsed=      257355 NTot=      257387
 NSgBfM=   176   176   176   176.
 Leave Link  302 at Thu Apr 16 15:33:29 2009, MaxMem=    6291456 cpu:       3.5
 (Enter /opt//g03/l303.exe)
 DipDrv:  MaxL=1.
 Leave Link  303 at Thu Apr 16 15:33:29 2009, MaxMem=    6291456 cpu:       0.3
 (Enter /opt//g03/l401.exe)
 SCF N**3 symmetry information disabled.
 Harris functional with IExCor= 1614 diagonalized for initial guess.
 ExpMin= 3.31D-02 ExpMax= 6.94D+04 ExpMxC= 2.33D+03 IAcc=3 IRadAn=         5 AccDes= 0.00D+00
 HarFok:  IExCor=1614 AccDes= 0.00D+00 IRadAn=         5 IDoV=1
 ScaDFX=  1.000000  1.000000  1.000000  1.000000
 CalDSu:  requested number of processors reduced to:   4 ShMem   1 Linda.
 Harris En= -619.072488430176    
 <S**2> of initial guess= 1.0000
 Leave Link  401 at Thu Apr 16 15:33:32 2009, MaxMem=    6291456 cpu:       9.5
 (Enter /opt//g03/l502.exe)
 UHF open shell SCF:
 Requested convergence on RMS density matrix=1.00D-08 within 128 cycles.
 Requested convergence on MAX density matrix=1.00D-06.
 Requested convergence on             energy=1.00D-06.
 No special actions if energy rises.
 Using DIIS extrapolation, IDIIS=  1040.
 Two-electron integral symmetry not used.
       257354 words used for storage of precomputed grid.
 IEnd=    385276 IEndB=    385276 NGot=   6291456 MDV=   5953973
 LenX=   5953973
 Fock matrices will be formed incrementally for  20 cycles.

 Cycle   1  Pass 1  IDiag  1:
 Symmetry not used in FoFDir.
 MinBra= 0 MaxBra= 2 Meth= 1.
 IRaf=       0 NMat=   1 IRICut=       1 DoRegI=T DoRafI=F ISym2E= 0 JSym2E=0.
 PrsmSu:  requested number of processors reduced to:   6 ShMem   1 Linda.
 CalDSu:  requested number of processors reduced to:   5 ShMem   1 Linda.
 E= -631.341077328745    
 DIIS: error= 7.80D-02 at cycle   1 NSaved=   1.
 NSaved= 1 IEnMin= 1 EnMin= -631.341077328745     IErMin= 1 ErrMin= 7.80D-02
 ErrMax= 7.80D-02 EMaxC= 1.00D-01 BMatC= 4.22D+00 BMatP= 4.22D+00
 IDIUse=3 WtCom= 2.20D-01 WtEn= 7.80D-01
 Coeff-Com:  0.100D+01
 Coeff-En:   0.100D+01
 Coeff:      0.100D+01
 Gap=     0.031 Goal=   None    Shift=    0.000
 Gap=     0.060 Goal=   None    Shift=    0.000
 GapD=    0.031 DampG=0.250 DampE=0.500 DampFc=0.2500 IDamp=-1.
 Damping current iteration by 2.50D-01
 RMSDP=2.25D-02 MaxDP=2.31D+00              OVMax= 6.09D-01

 Cycle   2  Pass 1  IDiag  1:
 RMSU=  3.53D-03    CP:  8.53D-01
 PrsmSu:  requested number of processors reduced to:   6 ShMem   1 Linda.
 CalDSu:  requested number of processors reduced to:   5 ShMem   1 Linda.
 E= -631.406389440380     Delta-E=       -0.065312111635 Rises=F Damp=T
 DIIS: error= 5.77D-02 at cycle   2 NSaved=   2.
 NSaved= 2 IEnMin= 2 EnMin= -631.406389440380     IErMin= 2 ErrMin= 5.77D-02
 ErrMax= 5.77D-02 EMaxC= 1.00D-01 BMatC= 2.06D+00 BMatP= 4.22D+00
 IDIUse=3 WtCom= 4.23D-01 WtEn= 5.77D-01
 Coeff-Com: -0.201D+01 0.301D+01
 Coeff-En:   0.000D+00 0.100D+01
 Coeff:     -0.852D+00 0.185D+01
 Gap=     0.154 Goal=   None    Shift=    0.000
 Gap=     0.229 Goal=   None    Shift=    0.000
 RMSDP=1.75D-02 MaxDP=1.78D+00 DE=-6.53D-02 OVMax= 8.67D-02

 Cycle   3  Pass 1  IDiag  1:
 RMSU=  4.01D-03    CP:  3.88D-01  3.00D+00
 PrsmSu:  requested number of processors reduced to:   6 ShMem   1 Linda.
 CalDSu:  requested number of processors reduced to:   5 ShMem   1 Linda.
 E= -631.602279327303     Delta-E=       -0.195889886923 Rises=F Damp=F
 DIIS: error= 7.92D-03 at cycle   3 NSaved=   3.
 NSaved= 3 IEnMin= 3 EnMin= -631.602279327303     IErMin= 3 ErrMin= 7.92D-03
 ErrMax= 7.92D-03 EMaxC= 1.00D-01 BMatC= 6.59D-02 BMatP= 2.06D+00
 IDIUse=3 WtCom= 9.21D-01 WtEn= 7.92D-02
 Coeff-Com: -0.403D+00 0.643D+00 0.760D+00
 Coeff-En:   0.000D+00 0.000D+00 0.100D+01
 Coeff:     -0.371D+00 0.592D+00 0.779D+00
 Gap=     0.172 Goal=   None    Shift=    0.000
 Gap=     0.267 Goal=   None    Shift=    0.000
 RMSDP=1.07D-03 MaxDP=4.50D-02 DE=-1.96D-01 OVMax= 5.65D-02

 Cycle   4  Pass 1  IDiag  1:
 RMSU=  9.62D-04    CP:  3.74D-01  3.00D+00  1.05D+00
 PrsmSu:  requested number of processors reduced to:   6 ShMem   1 Linda.
 CalDSu:  requested number of processors reduced to:   5 ShMem   1 Linda.
 E= -631.609348561168     Delta-E=       -0.007069233865 Rises=F Damp=F
 DIIS: error= 3.64D-03 at cycle   4 NSaved=   4.
 NSaved= 4 IEnMin= 4 EnMin= -631.609348561168     IErMin= 4 ErrMin= 3.64D-03
 ErrMax= 3.64D-03 EMaxC= 1.00D-01 BMatC= 2.10D-02 BMatP= 6.59D-02
 IDIUse=3 WtCom= 9.64D-01 WtEn= 3.64D-02
 Coeff-Com:  0.755D-01-0.936D-01 0.357D+00 0.661D+00
 Coeff-En:   0.000D+00 0.000D+00 0.162D+00 0.838D+00
 Coeff:      0.727D-01-0.902D-01 0.350D+00 0.667D+00
 Gap=     0.181 Goal=   None    Shift=    0.000
 Gap=     0.274 Goal=   None    Shift=    0.000
 RMSDP=3.92D-04 MaxDP=1.27D-02 DE=-7.07D-03 OVMax= 2.24D-02

 Cycle   5  Pass 1  IDiag  1:
 RMSU=  3.58D-04    CP:  3.71D-01  3.00D+00  1.08D+00  1.05D+00
 PrsmSu:  requested number of processors reduced to:   6 ShMem   1 Linda.
 CalDSu:  requested number of processors reduced to:   5 ShMem   1 Linda.
 E= -631.612687962344     Delta-E=       -0.003339401176 Rises=F Damp=F
 DIIS: error= 7.78D-04 at cycle   5 NSaved=   5.
 NSaved= 5 IEnMin= 5 EnMin= -631.612687962344     IErMin= 5 ErrMin= 7.78D-04
 ErrMax= 7.78D-04 EMaxC= 1.00D-01 BMatC= 7.45D-04 BMatP= 2.10D-02
 IDIUse=3 WtCom= 9.92D-01 WtEn= 7.78D-03
 Coeff-Com:  0.329D-01-0.442D-01 0.861D-01 0.224D+00 0.701D+00
 Coeff-En:   0.000D+00 0.000D+00 0.000D+00 0.000D+00 0.100D+01
 Coeff:      0.327D-01-0.438D-01 0.854D-01 0.222D+00 0.703D+00
 Gap=     0.182 Goal=   None    Shift=    0.000
 Gap=     0.272 Goal=   None    Shift=    0.000
 RMSDP=1.21D-04 MaxDP=3.53D-03 DE=-3.34D-03 OVMax= 6.47D-03

 Cycle   6  Pass 1  IDiag  1:
 RMSU=  8.80D-05    CP:  3.70D-01  3.00D+00  1.08D+00  1.13D+00  9.96D-01
 PrsmSu:  requested number of processors reduced to:   6 ShMem   1 Linda.
 CalDSu:  requested number of processors reduced to:   5 ShMem   1 Linda.
 E= -631.612851184605     Delta-E=       -0.000163222261 Rises=F Damp=F
 DIIS: error= 5.44D-04 at cycle   6 NSaved=   6.
 NSaved= 6 IEnMin= 6 EnMin= -631.612851184605     IErMin= 6 ErrMin= 5.44D-04
 ErrMax= 5.44D-04 EMaxC= 1.00D-01 BMatC= 2.43D-04 BMatP= 7.45D-04
 IDIUse=3 WtCom= 9.95D-01 WtEn= 5.44D-03
 Coeff-Com: -0.360D-02 0.347D-02-0.432D-01-0.524D-01 0.361D+00 0.735D+00
 Coeff-En:   0.000D+00 0.000D+00 0.000D+00 0.000D+00 0.000D+00 0.100D+01
 Coeff:     -0.358D-02 0.345D-02-0.430D-01-0.521D-01 0.359D+00 0.736D+00
 Gap=     0.183 Goal=   None    Shift=    0.000
 Gap=     0.274 Goal=   None    Shift=    0.000
 RMSDP=6.78D-05 MaxDP=2.04D-03 DE=-1.63D-04 OVMax= 4.19D-03

 Cycle   7  Pass 1  IDiag  1:
 RMSU=  4.02D-05    CP:  3.70D-01  3.00D+00  1.09D+00  1.17D+00  1.10D+00
                    CP:  9.31D-01
 PrsmSu:  requested number of processors reduced to:   6 ShMem   1 Linda.
 CalDSu:  requested number of processors reduced to:   5 ShMem   1 Linda.
 E= -631.612907245443     Delta-E=       -0.000056060838 Rises=F Damp=F
 DIIS: error= 1.55D-04 at cycle   7 NSaved=   7.
 NSaved= 7 IEnMin= 7 EnMin= -631.612907245443     IErMin= 7 ErrMin= 1.55D-04
 ErrMax= 1.55D-04 EMaxC= 1.00D-01 BMatC= 2.44D-05 BMatP= 2.43D-04
 IDIUse=3 WtCom= 9.98D-01 WtEn= 1.55D-03
 Coeff-Com: -0.553D-02 0.695D-02-0.262D-01-0.472D-01 0.690D-01 0.323D+00
 Coeff-Com:  0.680D+00
 Coeff-En:   0.000D+00 0.000D+00 0.000D+00 0.000D+00 0.000D+00 0.000D+00
 Coeff-En:   0.100D+01
 Coeff:     -0.553D-02 0.694D-02-0.261D-01-0.471D-01 0.689D-01 0.322D+00
 Coeff:      0.681D+00
 Gap=     0.184 Goal=   None    Shift=    0.000
 Gap=     0.274 Goal=   None    Shift=    0.000
 RMSDP=1.99D-05 MaxDP=7.54D-04 DE=-5.61D-05 OVMax= 1.18D-03

 Cycle   8  Pass 1  IDiag  1:
 RMSU=  1.63D-05    CP:  3.70D-01  3.00D+00  1.09D+00  1.17D+00  1.12D+00
                    CP:  9.92D-01  8.75D-01
 PrsmSu:  requested number of processors reduced to:   6 ShMem   1 Linda.
 CalDSu:  requested number of processors reduced to:   5 ShMem   1 Linda.
 E= -631.612913157911     Delta-E=       -0.000005912468 Rises=F Damp=F
 DIIS: error= 3.41D-05 at cycle   8 NSaved=   8.
 NSaved= 8 IEnMin= 8 EnMin= -631.612913157911     IErMin= 8 ErrMin= 3.41D-05
 ErrMax= 3.41D-05 EMaxC= 1.00D-01 BMatC= 1.44D-06 BMatP= 2.44D-05
 IDIUse=1 WtCom= 1.00D+00 WtEn= 0.00D+00
 Coeff-Com:  0.320D-03-0.385D-03 0.107D-03-0.269D-02-0.256D-01-0.152D-01
 Coeff-Com:  0.147D+00 0.897D+00
 Coeff:      0.320D-03-0.385D-03 0.107D-03-0.269D-02-0.256D-01-0.152D-01
 Coeff:      0.147D+00 0.897D+00
 Gap=     0.184 Goal=   None    Shift=    0.000
 Gap=     0.274 Goal=   None    Shift=    0.000
 RMSDP=5.58D-06 MaxDP=1.67D-04 DE=-5.91D-06 OVMax= 2.89D-04

 Cycle   9  Pass 1  IDiag  1:
 RMSU=  4.53D-06    CP:  3.70D-01  3.00D+00  1.09D+00  1.17D+00  1.12D+00
                    CP:  1.01D+00  9.47D-01  9.90D-01
 PrsmSu:  requested number of processors reduced to:   6 ShMem   1 Linda.
 CalDSu:  requested number of processors reduced to:   5 ShMem   1 Linda.
 E= -631.612913472333     Delta-E=       -0.000000314422 Rises=F Damp=F
 DIIS: error= 3.14D-05 at cycle   9 NSaved=   9.
 NSaved= 9 IEnMin= 9 EnMin= -631.612913472333     IErMin= 9 ErrMin= 3.14D-05
 ErrMax= 3.14D-05 EMaxC= 1.00D-01 BMatC= 9.22D-07 BMatP= 1.44D-06
 IDIUse=1 WtCom= 1.00D+00 WtEn= 0.00D+00
 Coeff-Com:  0.113D-02-0.142D-02 0.413D-02 0.567D-02-0.257D-01-0.566D-01
 Coeff-Com: -0.443D-02 0.555D+00 0.522D+00
 Coeff:      0.113D-02-0.142D-02 0.413D-02 0.567D-02-0.257D-01-0.566D-01
 Coeff:     -0.443D-02 0.555D+00 0.522D+00
 Gap=     0.184 Goal=   None    Shift=    0.000
 Gap=     0.274 Goal=   None    Shift=    0.000
 RMSDP=2.51D-06 MaxDP=6.68D-05 DE=-3.14D-07 OVMax= 1.11D-04

 Cycle  10  Pass 1  IDiag  1:
 RMSU=  2.09D-06    CP:  3.70D-01  3.00D+00  1.09D+00  1.17D+00  1.12D+00
                    CP:  1.01D+00  9.57D-01  1.01D+00  7.55D-01
 PrsmSu:  requested number of processors reduced to:   6 ShMem   1 Linda.
 CalDSu:  requested number of processors reduced to:   5 ShMem   1 Linda.
 E= -631.612913639804     Delta-E=       -0.000000167471 Rises=F Damp=F
 DIIS: error= 4.04D-06 at cycle  10 NSaved=  10.
 NSaved=10 IEnMin=10 EnMin= -631.612913639804     IErMin=10 ErrMin= 4.04D-06
 ErrMax= 4.04D-06 EMaxC= 1.00D-01 BMatC= 2.12D-08 BMatP= 9.22D-07
 IDIUse=1 WtCom= 1.00D+00 WtEn= 0.00D+00
 Coeff-Com: -0.659D-04 0.923D-04 0.181D-03 0.422D-03 0.128D-02-0.196D-02
 Coeff-Com: -0.163D-01-0.695D-01 0.772D-01 0.101D+01
 Coeff:     -0.659D-04 0.923D-04 0.181D-03 0.422D-03 0.128D-02-0.196D-02
 Coeff:     -0.163D-01-0.695D-01 0.772D-01 0.101D+01
 Gap=     0.184 Goal=   None    Shift=    0.000
 Gap=     0.274 Goal=   None    Shift=    0.000
 RMSDP=7.29D-07 MaxDP=2.08D-05 DE=-1.67D-07 OVMax= 3.76D-05

 Cycle  11  Pass 1  IDiag  1:
 RMSU=  5.71D-07    CP:  3.70D-01  3.00D+00  1.09D+00  1.17D+00  1.12D+00
                    CP:  1.01D+00  9.57D-01  1.01D+00  8.47D-01  1.02D+00
 PrsmSu:  requested number of processors reduced to:   6 ShMem   1 Linda.
 CalDSu:  requested number of processors reduced to:   5 ShMem   1 Linda.
 E= -631.612913646337     Delta-E=       -0.000000006533 Rises=F Damp=F
 DIIS: error= 1.86D-06 at cycle  11 NSaved=  11.
 NSaved=11 IEnMin=11 EnMin= -631.612913646337     IErMin=11 ErrMin= 1.86D-06
 ErrMax= 1.86D-06 EMaxC= 1.00D-01 BMatC= 1.64D-09 BMatP= 2.12D-08
 IDIUse=1 WtCom= 1.00D+00 WtEn= 0.00D+00
 Coeff-Com: -0.634D-04 0.826D-04-0.120D-03-0.118D-03 0.150D-02 0.194D-02
 Coeff-Com: -0.468D-02-0.454D-01-0.469D-02 0.299D+00 0.752D+00
 Coeff:     -0.634D-04 0.826D-04-0.120D-03-0.118D-03 0.150D-02 0.194D-02
 Coeff:     -0.468D-02-0.454D-01-0.469D-02 0.299D+00 0.752D+00
 Gap=     0.184 Goal=   None    Shift=    0.000
 Gap=     0.274 Goal=   None    Shift=    0.000
 RMSDP=1.76D-07 MaxDP=7.49D-06 DE=-6.53D-09 OVMax= 1.15D-05

 Cycle  12  Pass 1  IDiag  1:
 RMSU=  1.61D-07    CP:  3.70D-01  3.00D+00  1.09D+00  1.17D+00  1.12D+00
                    CP:  1.01D+00  9.57D-01  1.01D+00  8.54D-01  1.03D+00
                    CP:  9.48D-01
 PrsmSu:  requested number of processors reduced to:   6 ShMem   1 Linda.
 CalDSu:  requested number of processors reduced to:   5 ShMem   1 Linda.
 E= -631.612913646792     Delta-E=       -0.000000000454 Rises=F Damp=F
 DIIS: error= 8.06D-07 at cycle  12 NSaved=  12.
 NSaved=12 IEnMin=12 EnMin= -631.612913646792     IErMin=12 ErrMin= 8.06D-07
 ErrMax= 8.06D-07 EMaxC= 1.00D-01 BMatC= 3.55D-10 BMatP= 1.64D-09
 IDIUse=1 WtCom= 1.00D+00 WtEn= 0.00D+00
 Coeff-Com: -0.612D-05 0.604D-05-0.885D-04-0.134D-03 0.437D-03 0.130D-02
 Coeff-Com:  0.964D-03-0.708D-02-0.180D-01-0.589D-01 0.291D+00 0.790D+00
 Coeff:     -0.612D-05 0.604D-05-0.885D-04-0.134D-03 0.437D-03 0.130D-02
 Coeff:      0.964D-03-0.708D-02-0.180D-01-0.589D-01 0.291D+00 0.790D+00
 Gap=     0.184 Goal=   None    Shift=    0.000
 Gap=     0.274 Goal=   None    Shift=    0.000
 RMSDP=7.82D-08 MaxDP=2.82D-06 DE=-4.54D-10 OVMax= 4.89D-06

 Cycle  13  Pass 1  IDiag  1:
 RMSU=  5.32D-08    CP:  3.70D-01  3.00D+00  1.09D+00  1.17D+00  1.12D+00
                    CP:  1.01D+00  9.56D-01  1.01D+00  8.54D-01  1.04D+00
                    CP:  1.02D+00  9.21D-01
 PrsmSu:  requested number of processors reduced to:   6 ShMem   1 Linda.
 CalDSu:  requested number of processors reduced to:   5 ShMem   1 Linda.
 E= -631.612913646900     Delta-E=       -0.000000000108 Rises=F Damp=F
 DIIS: error= 1.29D-07 at cycle  13 NSaved=  13.
 NSaved=13 IEnMin=13 EnMin= -631.612913646900     IErMin=13 ErrMin= 1.29D-07
 ErrMax= 1.29D-07 EMaxC= 1.00D-01 BMatC= 1.47D-11 BMatP= 3.55D-10
 IDIUse=1 WtCom= 1.00D+00 WtEn= 0.00D+00
 Coeff-Com:  0.634D-05-0.875D-05-0.660D-05-0.204D-04-0.496D-04 0.902D-04
 Coeff-Com:  0.609D-03 0.254D-02-0.301D-02-0.382D-01-0.553D-02 0.164D+00
 Coeff-Com:  0.879D+00
 Coeff:      0.634D-05-0.875D-05-0.660D-05-0.204D-04-0.496D-04 0.902D-04
 Coeff:      0.609D-03 0.254D-02-0.301D-02-0.382D-01-0.553D-02 0.164D+00
 Coeff:      0.879D+00
 Gap=     0.184 Goal=   None    Shift=    0.000
 Gap=     0.274 Goal=   None    Shift=    0.000
 RMSDP=2.12D-08 MaxDP=4.62D-07 DE=-1.08D-10 OVMax= 9.57D-07

 Cycle  14  Pass 1  IDiag  1:
 RMSU=  1.75D-08    CP:  3.70D-01  3.00D+00  1.09D+00  1.17D+00  1.12D+00
                    CP:  1.01D+00  9.56D-01  1.01D+00  8.54D-01  1.05D+00
                    CP:  1.03D+00  9.50D-01  9.72D-01
 PrsmSu:  requested number of processors reduced to:   6 ShMem   1 Linda.
 CalDSu:  requested number of processors reduced to:   5 ShMem   1 Linda.
 E= -631.612913646908     Delta-E=       -0.000000000008 Rises=F Damp=F
 DIIS: error= 3.70D-08 at cycle  14 NSaved=  14.
 NSaved=14 IEnMin=14 EnMin= -631.612913646908     IErMin=14 ErrMin= 3.70D-08
 ErrMax= 3.70D-08 EMaxC= 1.00D-01 BMatC= 8.83D-13 BMatP= 1.47D-11
 IDIUse=1 WtCom= 1.00D+00 WtEn= 0.00D+00
 Coeff-Com:  0.921D-06-0.111D-05 0.529D-05 0.683D-05-0.335D-04-0.679D-04
 Coeff-Com:  0.399D-04 0.814D-03 0.878D-03-0.240D-02-0.193D-01-0.286D-01
 Coeff-Com:  0.132D+00 0.916D+00
 Coeff:      0.921D-06-0.111D-05 0.529D-05 0.683D-05-0.335D-04-0.679D-04
 Coeff:      0.399D-04 0.814D-03 0.878D-03-0.240D-02-0.193D-01-0.286D-01
 Coeff:      0.132D+00 0.916D+00
 Gap=     0.184 Goal=   None    Shift=    0.000
 Gap=     0.274 Goal=   None    Shift=    0.000
 RMSDP=7.19D-09 MaxDP=2.68D-07 DE=-7.96D-12 OVMax= 3.26D-07

 SCF Done:  E(UB97-1+HF-B97-1) =  -631.612913647     A.U. after   14 cycles
             Convg  =    0.7187D-08             -V/T =  2.0018
             S**2   =   0.7536
 KE= 6.304766183881D+02 PE=-2.177505476446D+03 EE= 5.754870060055D+02
 Annihilation of the first spin contaminant:
 S**2 before annihilation     0.7536,   after     0.7500
 Leave Link  502 at Thu Apr 16 15:36:23 2009, MaxMem=    6291456 cpu:     998.7
 (Enter /opt//g03/l601.exe)
 Copying SCF densities to generalized density rwf, ISCF=1 IROHF=0.

 **********************************************************************

            Population analysis using the SCF density.

 **********************************************************************

 Alpha  occ. eigenvalues --  -66.18692 -19.17142 -19.15376 -19.15335 -19.15251
 Alpha  occ. eigenvalues --  -10.23203  -5.35204  -3.69911  -3.69878  -3.69862
 Alpha  occ. eigenvalues --   -1.07700  -1.04349  -1.02608  -1.02253  -0.69300
 Alpha  occ. eigenvalues --   -0.59879  -0.55064  -0.54461  -0.51283  -0.47709
 Alpha  occ. eigenvalues --   -0.43693  -0.39920  -0.38908  -0.38544  -0.36611
 Alpha  occ. eigenvalues --   -0.34976  -0.34278  -0.32958  -0.19490
 Alpha virt. eigenvalues --   -0.01137   0.02356   0.02639   0.03125   0.06335
 Alpha virt. eigenvalues --    0.06978   0.08110   0.11358   0.11799   0.12081
 Alpha virt. eigenvalues --    0.13205   0.14596   0.15216   0.15465   0.16066
 Alpha virt. eigenvalues --    0.18534   0.19389   0.19677   0.20514   0.21477
 Alpha virt. eigenvalues --    0.23279   0.23493   0.24814   0.25581   0.27255
 Alpha virt. eigenvalues --    0.28422   0.28688   0.29586   0.30318   0.31119
 Alpha virt. eigenvalues --    0.32767   0.34366   0.35621   0.36627   0.37970
 Alpha virt. eigenvalues --    0.39945   0.42526   0.48649   0.50461   0.54050
 Alpha virt. eigenvalues --    0.56226   0.56879   0.58800   0.63960   0.64532
 Alpha virt. eigenvalues --    0.67028   0.67277   0.74839   0.90562   0.92154
 Alpha virt. eigenvalues --    0.93090   0.95341   1.02639   1.03614   1.05252
 Alpha virt. eigenvalues --    1.06956   1.08225   1.08644   1.09505   1.12988
 Alpha virt. eigenvalues --    1.13462   1.14208   1.15263   1.19486   1.22527
 Alpha virt. eigenvalues --    1.28508   1.30026   1.32510   1.35789   1.38676
 Alpha virt. eigenvalues --    1.39933   1.41558   1.45842   1.47974   1.50925
 Alpha virt. eigenvalues --    1.55943   1.56704   1.63260   1.67057   1.72291
 Alpha virt. eigenvalues --    1.76723   1.78594   1.79700   1.88569   2.00844
 Alpha virt. eigenvalues --    2.06455   2.07028   2.09217   2.10780   2.43310
 Alpha virt. eigenvalues --    2.49022   2.51025   2.52807   2.53933   2.56723
 Alpha virt. eigenvalues --    2.68126   2.72909   2.81128   2.82862   2.93955
 Alpha virt. eigenvalues --    2.94746   2.97432   3.05670   3.07316   3.09040
 Alpha virt. eigenvalues --    3.11597   3.11957   3.12750   3.15141   3.16634
 Alpha virt. eigenvalues --    3.21014   3.41786   3.41951   3.47189   3.75470
 Alpha virt. eigenvalues --    3.80499   3.85437   3.86977   4.01366   4.94810
 Alpha virt. eigenvalues --    4.98192   5.00009   5.00534   5.01871   5.09819
 Alpha virt. eigenvalues --    5.10907   5.12196   5.50981   5.55361   5.56140
 Alpha virt. eigenvalues --    5.56589   5.95257  11.48623  11.53855  11.54383
 Alpha virt. eigenvalues --   23.89945  49.93940  49.95893  49.96727  49.97371
 Alpha virt. eigenvalues --  141.40721
  Beta  occ. eigenvalues --  -66.18689 -19.16810 -19.15368 -19.15333 -19.15252
  Beta  occ. eigenvalues --  -10.22133  -5.35201  -3.69911  -3.69868  -3.69858
  Beta  occ. eigenvalues --   -1.07067  -1.03843  -1.02606  -1.02228  -0.66874
  Beta  occ. eigenvalues --   -0.59437  -0.54988  -0.54424  -0.50279  -0.46751
  Beta  occ. eigenvalues --   -0.41667  -0.39243  -0.38796  -0.38232  -0.36582
  Beta  occ. eigenvalues --   -0.34326  -0.33941  -0.32726
  Beta virt. eigenvalues --   -0.05324  -0.01053   0.02508   0.02878   0.04300
  Beta virt. eigenvalues --    0.06994   0.07754   0.10550   0.11752   0.12098
  Beta virt. eigenvalues --    0.12683   0.13659   0.14991   0.15501   0.15993
  Beta virt. eigenvalues --    0.16625   0.18891   0.19591   0.20168   0.20836
  Beta virt. eigenvalues --    0.21933   0.23558   0.24045   0.25224   0.26360
  Beta virt. eigenvalues --    0.27564   0.28561   0.28850   0.29874   0.30597
  Beta virt. eigenvalues --    0.31323   0.32933   0.34510   0.35665   0.36864
  Beta virt. eigenvalues --    0.38052   0.39979   0.42683   0.49668   0.50704
  Beta virt. eigenvalues --    0.54539   0.56387   0.57024   0.61563   0.64422
  Beta virt. eigenvalues --    0.65322   0.67189   0.68253   0.75215   0.92150
  Beta virt. eigenvalues --    0.92348   0.93190   0.95893   1.03178   1.04107
  Beta virt. eigenvalues --    1.05853   1.07397   1.08525   1.08851   1.10298
  Beta virt. eigenvalues --    1.13063   1.13577   1.14293   1.15438   1.19668
  Beta virt. eigenvalues --    1.23684   1.28593   1.30257   1.32954   1.36918
  Beta virt. eigenvalues --    1.38832   1.40131   1.41780   1.45967   1.48277
  Beta virt. eigenvalues --    1.53085   1.56197   1.57441   1.63469   1.68522
  Beta virt. eigenvalues --    1.72820   1.77236   1.78751   1.80141   1.92035
  Beta virt. eigenvalues --    2.03548   2.06482   2.07087   2.09385   2.11089
  Beta virt. eigenvalues --    2.43722   2.49075   2.51095   2.52826   2.54512
  Beta virt. eigenvalues --    2.57771   2.69194   2.77178   2.81601   2.83317
  Beta virt. eigenvalues --    2.94422   2.95206   2.97608   3.06442   3.07679
  Beta virt. eigenvalues --    3.09220   3.11775   3.12219   3.12822   3.15386
  Beta virt. eigenvalues --    3.18393   3.21917   3.41817   3.42009   3.47640
  Beta virt. eigenvalues --    3.76746   3.81002   3.85574   3.87027   4.02197
  Beta virt. eigenvalues --    4.94993   4.98263   5.00352   5.00991   5.02369
  Beta virt. eigenvalues --    5.09963   5.11091   5.12493   5.51127   5.55383
  Beta virt. eigenvalues --    5.56158   5.57235   5.95291  11.48652  11.53863
  Beta virt. eigenvalues --   11.54388  23.90706  49.94234  49.95900  49.96730
  Beta virt. eigenvalues --   49.97378 141.40725
     Alpha Molecular Orbital Coefficients
                          24        25        26        27        28
                           O         O         O         O         O
     EIGENVALUES --    -0.38544  -0.36611  -0.34976  -0.34278  -0.32958
   1 1   Si 1S          0.00289   0.00190   0.00241  -0.00273  -0.00125
   2        2S          0.00795   0.00521   0.00662  -0.00749  -0.00341
   3        3S         -0.01823  -0.01183  -0.01517   0.01703   0.00772
   4        4S         -0.03080  -0.02080  -0.02616   0.03023   0.01404
   5        5S          0.05991   0.04270   0.05722  -0.06703  -0.03333
   6        6S          0.02697  -0.01432   0.01090  -0.01441   0.02311
   7        7PX        -0.01614   0.00571  -0.00360   0.00064  -0.00451
   8        7PY         0.02306   0.00175   0.01285   0.00011  -0.00098
   9        7PZ         0.01572  -0.00583  -0.01195   0.01441   0.01449
  10        8PX        -0.02868   0.01106  -0.00641   0.00164  -0.00813
  11        8PY         0.04219   0.00282   0.02296   0.00072  -0.00205
  12        8PZ         0.02753  -0.01004  -0.02125   0.02632   0.02648
  13        9PX         0.03613  -0.02372   0.00791  -0.00763   0.01188
  14        9PY        -0.06667  -0.00047  -0.03071  -0.00680   0.00492
  15        9PZ        -0.03027   0.00920   0.02747  -0.04046  -0.04128
  16       10PX         0.07329   0.02311   0.01865   0.02817   0.01114
  17       10PY        -0.03300  -0.02494  -0.04852   0.03296  -0.00534
  18       10PZ        -0.09184   0.04275   0.06074  -0.04442  -0.03113
  19       11PX         0.06416   0.08165  -0.01759   0.06492  -0.11170
  20       11PY         0.13610  -0.06409   0.09168   0.10301   0.00546
  21       11PZ        -0.09080   0.03490   0.05201  -0.06086   0.15428
  22       12S         -0.03061  -0.02553   0.00800  -0.01387   0.01146
  23       12PX        -0.00659   0.00563   0.00939   0.00039   0.01485
  24       12PY         0.00499   0.00119  -0.01707  -0.00093  -0.00593
  25       12PZ        -0.01366   0.00036   0.00124   0.00392  -0.01308
  26       13D 0        0.02850  -0.04038  -0.02000  -0.05048  -0.02377
  27       13D+1       -0.02292  -0.01017   0.02450   0.04143   0.00429
  28       13D-1        0.02361   0.01951  -0.01640   0.05716  -0.00428
  29       13D+2       -0.01473  -0.09105   0.02549  -0.00433   0.00143
  30       13D-2        0.06690  -0.02942  -0.00807   0.02090  -0.02809
  31 2   O  1S         -0.00534   0.00752   0.00621  -0.01140  -0.01099
  32        2S         -0.00863   0.01228   0.01019  -0.01872  -0.01800
  33        2PX        -0.03811  -0.01119  -0.08628   0.03222   0.03688
  34        2PY         0.01498  -0.02488  -0.06305   0.12719   0.11539
  35        2PZ        -0.00518   0.02502  -0.02300   0.10294   0.07262
  36        3S          0.02408  -0.03666  -0.03264   0.05837   0.05514
  37        3PX        -0.05609  -0.01645  -0.12818   0.04850   0.05524
  38        3PY         0.02126  -0.03639  -0.09344   0.18878   0.16978
  39        3PZ        -0.00566   0.03672  -0.03789   0.15397   0.10924
  40        4S          0.06268  -0.06977  -0.03728   0.06362   0.07630
  41        4PX        -0.05512  -0.02152  -0.12691   0.04362   0.05319
  42        4PY         0.01623  -0.02661  -0.09341   0.18478   0.17822
  43        4PZ        -0.01912   0.02901  -0.01962   0.12486   0.08850
  44        5S          0.05482  -0.09638  -0.03971   0.06493  -0.15175
  45        5PX        -0.01277  -0.03855   0.00709   0.00450   0.02572
  46        5PY        -0.01577   0.07233  -0.05164   0.02226   0.03133
  47        5PZ         0.01210  -0.04279   0.02478  -0.01151   0.07196
  48        6D 0        0.00069   0.00019   0.00380  -0.00390  -0.00189
  49        6D+1       -0.00071   0.00132   0.00078  -0.00232  -0.00167
  50        6D-1        0.00098  -0.00094   0.00275  -0.00696  -0.00383
  51        6D+2       -0.00013  -0.00222  -0.00159   0.00327   0.00448
  52        6D-2        0.00306  -0.00038   0.00433   0.00069  -0.00019
  53 3   O  1S          0.02304   0.00089   0.00526  -0.00296   0.00538
  54        2S          0.03772   0.00148   0.00864  -0.00489   0.00874
  55        2PX        -0.09698   0.06595   0.08597   0.07614  -0.02902
  56        2PY         0.13815  -0.02922   0.00413  -0.04535   0.04399
  57        2PZ        -0.02734  -0.02105   0.20878   0.10548   0.00887
  58        3S         -0.11505  -0.00468  -0.02632   0.01602  -0.02552
  59        3PX        -0.14519   0.09784   0.12792   0.11124  -0.04317
  60        3PY         0.20174  -0.04465   0.00483  -0.06722   0.06501
  61        3PZ        -0.04095  -0.03064   0.30950   0.15661   0.01296
  62        4S         -0.16945  -0.01921  -0.03751   0.00831  -0.04828
  63        4PX        -0.11328   0.08023   0.12578   0.11222  -0.03702
  64        4PY         0.18690  -0.04574   0.00639  -0.07195   0.06808
  65        4PZ        -0.04639  -0.02860   0.29972   0.15175   0.01003
  66        5S         -0.15127  -0.07451   0.01018  -0.07338   0.12239
  67        5PX        -0.03455   0.00459   0.00031   0.03897  -0.05611
  68        5PY        -0.04756  -0.02930  -0.01738  -0.01854  -0.00475
  69        5PZ         0.00073  -0.02085   0.05164   0.02064   0.01425
  70        6D 0       -0.00726   0.00027   0.00646   0.00499  -0.00236
  71        6D+1       -0.00038   0.00087  -0.00527  -0.00161  -0.00044
  72        6D-1        0.00129  -0.00147   0.00831   0.00423   0.00086
  73        6D+2       -0.00363  -0.00094  -0.00380   0.00022  -0.00163
  74        6D-2       -0.00575   0.00442   0.00507   0.00406  -0.00122
  75 4   O  1S          0.01494   0.00657   0.00911  -0.00105  -0.00279
  76        2S          0.02448   0.01078   0.01490  -0.00172  -0.00457
  77        2PX         0.12359   0.19069   0.06679  -0.01286   0.11145
  78        2PY         0.08696  -0.04599   0.00128   0.11269  -0.10131
  79        2PZ        -0.05151   0.04312  -0.02978  -0.04239   0.08519
  80        3S         -0.07563  -0.03313  -0.04568   0.00552   0.01317
  81        3PX         0.18359   0.28199   0.09932  -0.01935   0.16578
  82        3PY         0.12811  -0.06987   0.00204   0.16562  -0.14883
  83        3PZ        -0.07678   0.06425  -0.04327  -0.06498   0.12491
  84        4S         -0.08703  -0.03843  -0.06448   0.02202   0.02374
  85        4PX         0.16524   0.26478   0.09530  -0.02172   0.16671
  86        4PY         0.10916  -0.07158  -0.00112   0.15470  -0.15013
  87        4PZ        -0.07202   0.05486  -0.04898  -0.06554   0.12481
  88        5S          0.00731  -0.03163   0.06847   0.09616   0.03298
  89        5PX         0.00814   0.02583   0.03051   0.00640   0.04701
  90        5PY         0.03896   0.00569   0.02678   0.03825  -0.03567
  91        5PZ         0.06538   0.03632   0.00053  -0.01503  -0.02553
  92        6D 0       -0.00159  -0.00361   0.00107  -0.00077  -0.00461
  93        6D+1       -0.00577  -0.00336  -0.00255  -0.00181   0.00054
  94        6D-1       -0.00440   0.00314   0.00115  -0.00604   0.00417
  95        6D+2        0.00292   0.00980   0.00247  -0.00337   0.00727
  96        6D-2        0.00789   0.00367   0.00173   0.00266  -0.00004
  97 5   O  1S         -0.00327   0.00376  -0.00732  -0.00332   0.00179
  98        2S         -0.00532   0.00625  -0.01195  -0.00544   0.00295
  99        2PX         0.00268   0.10530  -0.04211   0.06169  -0.11622
 100        2PY         0.12388   0.00482  -0.02875   0.05112  -0.11626
 101        2PZ        -0.06029   0.14730  -0.08189   0.02157  -0.06782
 102        3S          0.01600  -0.02052   0.03586   0.01622  -0.00834
 103        3PX         0.00479   0.15458  -0.06318   0.09167  -0.17214
 104        3PY         0.18398   0.00962  -0.04198   0.07499  -0.17110
 105        3PZ        -0.09098   0.21847  -0.12025   0.03231  -0.10149
 106        4S          0.00784  -0.00020   0.06539   0.02496  -0.01298
 107        4PX         0.01215   0.14383  -0.05704   0.08446  -0.17310
 108        4PY         0.15609   0.01058  -0.04969   0.07640  -0.16599
 109        4PZ        -0.08013   0.20946  -0.11874   0.03206  -0.10260
 110        5S         -0.07179   0.03350  -0.02469  -0.02054  -0.04481
 111        5PX        -0.00930   0.03959  -0.04494  -0.03841  -0.00540
 112        5PY         0.03062  -0.00818   0.01198   0.03203  -0.02933
 113        5PZ        -0.00525   0.01141  -0.01553   0.03146  -0.04779
 114        6D 0       -0.00164   0.00920  -0.00514   0.00227  -0.00593
 115        6D+1       -0.00022   0.00318  -0.00009   0.00378  -0.00518
 116        6D-1        0.00838  -0.00466   0.00057   0.00190  -0.00188
 117        6D+2        0.00438   0.00020  -0.00140   0.00052  -0.00189
 118        6D-2       -0.00292  -0.00295   0.00258  -0.00190   0.00504
 119 6   C  1S          0.00214  -0.00017   0.00384   0.00124   0.00422
 120        2S          0.00354  -0.00020   0.00637   0.00183   0.00677
 121        2PX        -0.02353  -0.00197  -0.03509  -0.02673  -0.00259
 122        2PY        -0.01517   0.02854   0.04080  -0.07183  -0.04772
 123        2PZ         0.01034  -0.00284   0.04238  -0.05884  -0.02462
 124        3S         -0.01094  -0.00332  -0.01840  -0.00380  -0.02234
 125        3PX        -0.03806  -0.00469  -0.05840  -0.04046  -0.00302
 126        3PY        -0.02275   0.04465   0.05850  -0.09951  -0.06483
 127        3PZ         0.01881  -0.00632   0.06368  -0.08581  -0.03706
 128        4S         -0.01187   0.06934  -0.05876   0.01570   0.02390
 129        4PX        -0.02468   0.00133  -0.03962  -0.02623  -0.00753
 130        4PY        -0.01514   0.04781   0.02568  -0.05241  -0.03087
 131        4PZ         0.00523  -0.00768   0.04491  -0.04825  -0.04367
 132        5S          0.02542   0.02623  -0.01153   0.04266  -0.00083
 133        5PX         0.00120  -0.00164  -0.00961  -0.00740  -0.00146
 134        5PY        -0.00021   0.00932  -0.00053   0.00555  -0.00520
 135        5PZ        -0.00687  -0.00811   0.00487  -0.01972  -0.00089
 136        6D 0       -0.00191   0.00322   0.00934  -0.02537  -0.01590
 137        6D+1        0.00220   0.00122   0.00510  -0.00411  -0.00373
 138        6D-1        0.00382  -0.00258   0.00005   0.00358   0.00451
 139        6D+2        0.00068  -0.00081   0.00775  -0.01275  -0.01022
 140        6D-2       -0.00142  -0.00361  -0.00934   0.00603   0.00596
 141 7   H  1S          0.00163   0.00382   0.04115  -0.07682  -0.04330
 142        2S          0.00324  -0.00322   0.06659  -0.12412  -0.06884
 143        3S         -0.00291   0.01628   0.02775  -0.06942  -0.04216
 144        4PX        -0.00178  -0.00030  -0.00362  -0.00023   0.00091
 145        4PY        -0.00110   0.00164   0.00113  -0.00231  -0.00203
 146        4PZ         0.00065   0.00076  -0.00300   0.00553   0.00357
 147 8   H  1S          0.01203  -0.01987  -0.04016   0.08457   0.05062
 148        2S          0.01423  -0.02180  -0.06015   0.12958   0.08076
 149        3S          0.00246  -0.00635  -0.04371   0.06748   0.05085
 150        4PX        -0.00042  -0.00086  -0.00385   0.00230   0.00144
 151        4PY         0.00057  -0.00051  -0.00140   0.00560   0.00199
 152        4PZ         0.00223  -0.00234   0.00155   0.00085  -0.00194
 153 9   H  1S          0.04716   0.01032   0.01555  -0.00891   0.01631
 154        2S          0.05787   0.02586   0.01731   0.00081   0.00766
 155        3S          0.10597   0.04799   0.02872  -0.00639   0.02558
 156        4PX        -0.01825   0.00518   0.00723   0.00763  -0.00247
 157        4PY         0.00546  -0.00539  -0.00269  -0.00346   0.00147
 158        4PZ        -0.00018  -0.00117   0.02196   0.01180   0.00090
 159 10  H  1S          0.02017   0.01207   0.02780  -0.00956  -0.01073
 160        2S          0.01809   0.00815   0.01819  -0.02243  -0.01760
 161        3S          0.08199   0.04777   0.01679  -0.02778  -0.05295
 162        4PX         0.01167   0.02034   0.00389  -0.00055   0.01188
 163        4PY         0.01276  -0.00335  -0.00001   0.01083  -0.01202
 164        4PZ        -0.00182   0.00711   0.00117  -0.00618   0.00620
 165 11  H  1S          0.01300   0.00165  -0.01794  -0.01141   0.00437
 166        2S          0.02410  -0.00684  -0.01829  -0.01526   0.00832
 167        3S          0.01791   0.03002  -0.04196  -0.06093   0.03380
 168        4PX         0.00253   0.01116  -0.00692   0.00507  -0.01044
 169        4PY         0.01280   0.00012  -0.00173   0.00658  -0.01331
 170        4PZ        -0.00834   0.01602  -0.00654   0.00476  -0.00695
                          29        30        31        32        33
                           O         V         V         V         V
     EIGENVALUES --    -0.19490  -0.01137   0.02356   0.02639   0.03125
   1 1   Si 1S         -0.00152   0.00580  -0.00007   0.00055  -0.00193
   2        2S         -0.00418   0.01613  -0.00018   0.00151  -0.00533
   3        3S          0.00956  -0.03904   0.00032  -0.00340   0.01250
   4        4S          0.01754  -0.05774   0.00127  -0.00668   0.02156
   5        5S         -0.04795  -0.05146   0.00197   0.01629  -0.02735
   6        6S          0.02697   1.60153  -0.16995   0.01635  -0.29229
   7        7PX         0.00933  -0.00003  -0.00183  -0.01138  -0.00513
   8        7PY         0.00136   0.00136  -0.01183   0.00030   0.00353
   9        7PZ         0.00591   0.00229   0.00086  -0.00025   0.00399
  10        8PX         0.01622  -0.00019  -0.00344  -0.01746  -0.00805
  11        8PY         0.00234   0.00275  -0.01872   0.00094   0.00637
  12        8PZ         0.01112   0.00374   0.00221  -0.00093   0.00789
  13        9PX        -0.01848   0.00113   0.00730   0.00418   0.00346
  14        9PY        -0.00302  -0.00679   0.00943  -0.00516  -0.00988
  15        9PZ        -0.02039  -0.00300  -0.00824   0.00564  -0.01832
  16       10PX        -0.07308  -0.00287  -0.00572   0.18040   0.07584
  17       10PY        -0.00841   0.00527   0.16726   0.02686  -0.02370
  18       10PZ        -0.01295  -0.02611   0.00807  -0.01874  -0.00281
  19       11PX        -0.05645   0.05399   0.53384  -0.65189  -0.14900
  20       11PY        -0.01184  -0.14930  -0.49465  -0.26714  -0.55126
  21       11PZ         0.04381   0.12636  -0.59534   0.13291  -0.47242
  22       12S          0.01615   2.22506  -0.36769  -0.51294   1.28803
  23       12PX        -0.01557   0.01414  -0.43882   1.31439   0.62495
  24       12PY         0.00205   0.04412   1.33149   0.60041  -0.22076
  25       12PZ         0.00386  -0.01720   0.57419  -0.55005   1.27410
  26       13D 0       -0.01360  -0.00261   0.00962   0.00054   0.00326
  27       13D+1       -0.04848   0.00580   0.00630   0.00053   0.00294
  28       13D-1       -0.00268  -0.00971   0.00399   0.01282  -0.01058
  29       13D+2        0.00794   0.00472  -0.00917   0.00571   0.00135
  30       13D-2       -0.00272  -0.00148  -0.00619  -0.01479  -0.00761
  31 2   O  1S         -0.00071   0.01602   0.00804  -0.00074  -0.00363
  32        2S         -0.00106   0.02674   0.01347  -0.00127  -0.00607
  33        2PX        -0.14935   0.00315   0.00124  -0.03231  -0.00833
  34        2PY         0.01898  -0.00187  -0.01175   0.00403  -0.02540
  35        2PZ         0.02475   0.01998  -0.01846   0.00005   0.00281
  36        3S          0.00145  -0.08868  -0.04596   0.00484   0.02109
  37        3PX        -0.22038   0.00522   0.00110  -0.05331  -0.01326
  38        3PY         0.02838  -0.00474  -0.02142   0.00493  -0.04073
  39        3PZ         0.03781   0.03294  -0.02800   0.00105   0.00245
  40        4S          0.00305  -0.17589  -0.07922   0.01245   0.00104
  41        4PX        -0.25451   0.00013   0.00539  -0.03851  -0.01483
  42        4PY         0.03167   0.02140  -0.00077   0.01062  -0.02926
  43        4PZ         0.03370   0.04982  -0.02188  -0.00867   0.00748
  44        5S         -0.03603  -0.72019   0.24744  -0.06460   0.40850
  45        5PX        -0.12552  -0.01262  -0.07365  -0.01955  -0.02017
  46        5PY         0.01917  -0.04544  -0.07595   0.03613   0.03348
  47        5PZ         0.03362   0.27697  -0.28299   0.03961  -0.23898
  48        6D 0       -0.00536  -0.00171  -0.00253   0.00128  -0.00310
  49        6D+1        0.01354  -0.00022  -0.00057  -0.00157  -0.00164
  50        6D-1        0.00213   0.00015  -0.00204  -0.00194   0.00520
  51        6D+2        0.00235   0.00048  -0.00229  -0.00149   0.00051
  52        6D-2       -0.00551   0.00017  -0.00134   0.00261   0.00094
  53 3   O  1S         -0.00182   0.02352  -0.00442   0.01861   0.00267
  54        2S         -0.00297   0.03924  -0.00740   0.03087   0.00448
  55        2PX        -0.01038   0.00818   0.00824  -0.03266  -0.02150
  56        2PY         0.00754  -0.03302  -0.03067  -0.04583  -0.00619
  57        2PZ         0.02775  -0.00087  -0.01553  -0.00270  -0.01742
  58        3S          0.00963  -0.12992   0.02459  -0.09820  -0.01566
  59        3PX        -0.01353   0.01454   0.01556  -0.04784  -0.03482
  60        3PY         0.01179  -0.04887  -0.05123  -0.06742  -0.00682
  61        3PZ         0.03887  -0.00229  -0.02529  -0.00530  -0.02879
  62        4S          0.02253  -0.25004   0.04736  -0.25956  -0.02666
  63        4PX        -0.01813   0.04064  -0.00903  -0.03458  -0.02644
  64        4PY         0.01135  -0.08969  -0.02593  -0.11777  -0.03157
  65        4PZ         0.05103  -0.01805  -0.01283  -0.01735  -0.02261
  66        5S          0.05847  -0.88261  -0.39635  -0.21245  -0.15928
  67        5PX        -0.02017   0.12819   0.18060  -0.26137  -0.02423
  68        5PY        -0.00089  -0.00092  -0.15666  -0.13072   0.13941
  69        5PZ         0.01424  -0.08267  -0.09222   0.08944   0.00129
  70        6D 0       -0.00055   0.00113   0.00020   0.00069  -0.00090
  71        6D+1        0.00069   0.00169  -0.00029   0.00000   0.00055
  72        6D-1        0.00085  -0.00078  -0.00103  -0.00155  -0.00153
  73        6D+2       -0.00100  -0.00058   0.00235   0.00042   0.00061
  74        6D-2       -0.00042   0.00190  -0.00035   0.00200   0.00011
  75 4   O  1S          0.00153   0.02220  -0.01707  -0.00970  -0.00716
  76        2S          0.00248   0.03702  -0.02836  -0.01620  -0.01181
  77        2PX         0.00365  -0.01738   0.02219  -0.02995  -0.00873
  78        2PY        -0.00334  -0.01374  -0.03209  -0.00663   0.00683
  79        2PZ        -0.00295   0.02837  -0.03760  -0.00473  -0.03407
  80        3S         -0.00723  -0.12264   0.09183   0.05390   0.03541
  81        3PX         0.00531  -0.02666   0.03623  -0.05153  -0.01313
  82        3PY        -0.00382  -0.02356  -0.04825  -0.00999   0.01277
  83        3PZ        -0.00373   0.04268  -0.05464  -0.00645  -0.04955
  84        4S         -0.01944  -0.23341   0.22085   0.10728   0.11947
  85        4PX         0.00644  -0.05746   0.05356  -0.00944  -0.00332
  86        4PY        -0.01282  -0.04447  -0.03442   0.00833   0.01229
  87        4PZ        -0.01055   0.05855  -0.09229  -0.01300  -0.07902
  88        5S         -0.04542  -0.95231   0.30018   0.07766  -0.18384
  89        5PX         0.00719  -0.10094  -0.04682  -0.14878  -0.07180
  90        5PY        -0.00843  -0.14336  -0.10869  -0.14876  -0.09731
  91        5PZ         0.00195   0.03059  -0.04978  -0.08740  -0.03771
  92        6D 0        0.00038   0.00060  -0.00076  -0.00084  -0.00006
  93        6D+1       -0.00066   0.00074  -0.00140   0.00166  -0.00063
  94        6D-1        0.00083   0.00094  -0.00119  -0.00047  -0.00197
  95        6D+2       -0.00009   0.00035   0.00107  -0.00031  -0.00010
  96        6D-2       -0.00044  -0.00238   0.00094   0.00109   0.00123
  97 5   O  1S          0.00023   0.02380   0.01550  -0.00457  -0.00792
  98        2S          0.00040   0.03966   0.02570  -0.00748  -0.01321
  99        2PX         0.01000   0.01654   0.01974  -0.05179  -0.01397
 100        2PY         0.01235   0.00619  -0.02992  -0.01175  -0.01204
 101        2PZ        -0.01210  -0.02016  -0.03958   0.01745  -0.00066
 102        3S         -0.00091  -0.13029  -0.08169   0.02196   0.04346
 103        3PX         0.01494   0.02364   0.02633  -0.07937  -0.02251
 104        3PY         0.01814   0.01164  -0.04482  -0.02239  -0.01946
 105        3PZ        -0.01900  -0.03024  -0.06143   0.02779  -0.00560
 106        4S         -0.01356  -0.26004  -0.21582   0.08519   0.09802
 107        4PX         0.01968   0.02892   0.05320  -0.09050  -0.01813
 108        4PY         0.02295   0.04120  -0.02969  -0.00617  -0.02953
 109        4PZ        -0.02214  -0.06907  -0.08998   0.03409   0.03123
 110        5S         -0.03882  -0.80047  -0.07057   0.29831   0.31259
 111        5PX         0.01950  -0.01129   0.06375  -0.13588  -0.00406
 112        5PY         0.01096   0.09363  -0.19869   0.00701   0.00281
 113        5PZ        -0.02061  -0.04548   0.01110   0.13296  -0.02985
 114        6D 0        0.00012  -0.00045  -0.00145   0.00034  -0.00092
 115        6D+1        0.00048  -0.00062   0.00035  -0.00139  -0.00120
 116        6D-1        0.00012   0.00272   0.00128  -0.00145   0.00024
 117        6D+2       -0.00049   0.00134   0.00081   0.00063  -0.00015
 118        6D-2        0.00043   0.00085  -0.00047   0.00183   0.00020
 119 6   C  1S         -0.01800   0.00499  -0.01396  -0.01091   0.03010
 120        2S         -0.02990   0.00842  -0.02343  -0.01829   0.05070
 121        2PX         0.23814  -0.00597  -0.00216  -0.02294  -0.00188
 122        2PY        -0.03068   0.02494  -0.00954  -0.01196   0.00486
 123        2PZ        -0.05585  -0.01221  -0.01549   0.01194  -0.03088
 124        3S          0.09027  -0.03230   0.07963   0.05969  -0.17691
 125        3PX         0.38085  -0.01095  -0.00280  -0.04054  -0.00170
 126        3PY        -0.04809   0.03468  -0.01407  -0.01534  -0.00839
 127        3PZ        -0.09059  -0.02295  -0.02795   0.02211  -0.05505
 128        4S          0.20186  -0.02097   0.15117   0.14245  -0.24962
 129        4PX         0.42889  -0.00604  -0.00900  -0.05034   0.00903
 130        4PY        -0.04026   0.09113   0.00290  -0.04934   0.09507
 131        4PZ        -0.10881  -0.05080   0.02546   0.00837  -0.06991
 132        5S          0.01640  -0.42200   0.16519   0.24789  -0.63753
 133        5PX         0.11102  -0.00306   0.00685  -0.06410   0.03829
 134        5PY        -0.01205  -0.03853   0.11704   0.08226  -0.36898
 135        5PZ        -0.02182   0.24000  -0.29414  -0.39077   1.17386
 136        6D 0       -0.00506  -0.00083   0.00500  -0.00011  -0.00042
 137        6D+1        0.00523  -0.00195  -0.00045   0.00226   0.00197
 138        6D-1        0.00293   0.00436   0.00194   0.00372  -0.01005
 139        6D+2        0.00633   0.00326   0.00694   0.00115   0.00006
 140        6D-2       -0.01200   0.00094   0.00078  -0.00399  -0.00378
 141 7   H  1S         -0.02746  -0.00373  -0.00231   0.00349  -0.01148
 142        2S         -0.04918   0.00988  -0.04921  -0.03093   0.07511
 143        3S         -0.03354  -0.06814   0.08387   0.11713  -0.25501
 144        4PX         0.02108  -0.00115  -0.00055  -0.00060   0.00082
 145        4PY        -0.00125   0.00375   0.00294  -0.00082  -0.00023
 146        4PZ        -0.00090   0.00160  -0.00032  -0.00327   0.01245
 147 8   H  1S         -0.03356  -0.00570  -0.00066   0.00264  -0.00307
 148        2S         -0.05879  -0.00184  -0.00679  -0.03460   0.03853
 149        3S         -0.03657   0.06332  -0.06544  -0.02020   0.05817
 150        4PX         0.01907  -0.00344   0.00223   0.00288  -0.00163
 151        4PY        -0.00629  -0.00185   0.00776   0.00379  -0.00913
 152        4PZ        -0.00681  -0.00500   0.00215   0.00207   0.00144
 153 9   H  1S          0.00028   0.01734  -0.01103   0.02081   0.00471
 154        2S         -0.00192   0.08638  -0.01852   0.08242   0.02837
 155        3S          0.00438   0.26623   0.12463   0.62173   0.02358
 156        4PX        -0.00147   0.00529   0.00209   0.00726   0.00055
 157        4PY         0.00091   0.01348   0.00253   0.01728   0.00383
 158        4PZ         0.00242   0.00042  -0.00074  -0.00163  -0.00013
 159 10  H  1S          0.00481   0.01581  -0.01703  -0.01560  -0.01184
 160        2S          0.00206   0.07298  -0.08778  -0.03549  -0.03332
 161        3S          0.01773   0.34490  -0.38567  -0.20096  -0.30306
 162        4PX         0.00028   0.00457  -0.00430  -0.00310  -0.00202
 163        4PY        -0.00072  -0.00436   0.00463   0.00183   0.00240
 164        4PZ        -0.00049  -0.01267   0.01703   0.00319   0.00636
 165 11  H  1S         -0.00642   0.02027   0.01541  -0.00361  -0.00462
 166        2S          0.00567   0.08011   0.07421  -0.02742  -0.01434
 167        3S          0.01788   0.33385   0.38971  -0.43639  -0.12534
 168        4PX         0.00118  -0.01015  -0.01260   0.00715   0.00175
 169        4PY        -0.00089   0.00276   0.00323  -0.00385  -0.00110
 170        4PZ         0.00123   0.00967   0.00957  -0.00756  -0.00169
                          34
                           V
     EIGENVALUES --     0.06335
   1 1   Si 1S          0.00267
   2        2S          0.00734
   3        3S         -0.01684
   4        4S         -0.03135
   5        5S          0.03979
   6        6S          0.19471
   7        7PX         0.00127
   8        7PY         0.00395
   9        7PZ        -0.01245
  10        8PX         0.00278
  11        8PY         0.00596
  12        8PZ        -0.02032
  13        9PX        -0.00810
  14        9PY        -0.00005
  15        9PZ         0.01603
  16       10PX         0.01536
  17       10PY        -0.08407
  18       10PZ         0.15889
  19       11PX        -0.13536
  20       11PY         0.71642
  21       11PZ        -0.38528
  22       12S          0.46366
  23       12PX         0.28771
  24       12PY        -1.15495
  25       12PZ         1.17235
  26       13D 0       -0.00406
  27       13D+1       -0.00340
  28       13D-1        0.00209
  29       13D+2        0.00892
  30       13D-2        0.01432
  31 2   O  1S          0.02327
  32        2S          0.03875
  33        2PX        -0.00414
  34        2PY         0.02767
  35        2PZ        -0.01037
  36        3S         -0.12716
  37        3PX        -0.00865
  38        3PY         0.03705
  39        3PZ        -0.01626
  40        4S         -0.32389
  41        4PX        -0.00330
  42        4PY         0.10435
  43        4PZ         0.01841
  44        5S         -0.61307
  45        5PX        -0.10161
  46        5PY        -0.06391
  47        5PZ        -0.30294
  48        6D 0       -0.00093
  49        6D+1        0.00039
  50        6D-1       -0.00120
  51        6D+2       -0.00045
  52        6D-2        0.00134
  53 3   O  1S          0.00198
  54        2S          0.00348
  55        2PX        -0.00572
  56        2PY         0.02083
  57        2PZ        -0.03774
  58        3S         -0.01475
  59        3PX        -0.00953
  60        3PY         0.03313
  61        3PZ        -0.06133
  62        4S          0.01050
  63        4PX         0.00224
  64        4PY         0.03572
  65        4PZ        -0.05485
  66        5S         -0.20378
  67        5PX        -0.01955
  68        5PY        -0.05099
  69        5PZ        -0.08806
  70        6D 0       -0.00011
  71        6D+1        0.00043
  72        6D-1       -0.00017
  73        6D+2       -0.00157
  74        6D-2       -0.00069
  75 4   O  1S          0.01107
  76        2S          0.01844
  77        2PX        -0.01172
  78        2PY         0.01497
  79        2PZ        -0.00403
  80        3S         -0.05987
  81        3PX        -0.01973
  82        3PY         0.02215
  83        3PZ        -0.00975
  84        4S         -0.13085
  85        4PX        -0.02950
  86        4PY         0.01656
  87        4PZ         0.02078
  88        5S         -0.13702
  89        5PX         0.01669
  90        5PY         0.03577
  91        5PZ        -0.03568
  92        6D 0        0.00261
  93        6D+1       -0.00046
  94        6D-1        0.00238
  95        6D+2       -0.00041
  96        6D-2       -0.00125
  97 5   O  1S         -0.00700
  98        2S         -0.01171
  99        2PX        -0.01592
 100        2PY         0.02433
 101        2PZ        -0.03292
 102        3S          0.03969
 103        3PX        -0.02318
 104        3PY         0.03805
 105        3PZ        -0.05116
 106        4S          0.07481
 107        4PX        -0.03239
 108        4PY         0.02463
 109        4PZ        -0.04028
 110        5S         -0.12302
 111        5PX        -0.13428
 112        5PY         0.19002
 113        5PZ        -0.07852
 114        6D 0       -0.00110
 115        6D+1        0.00154
 116        6D-1       -0.00027
 117        6D+2       -0.00013
 118        6D-2        0.00056
 119 6   C  1S         -0.01290
 120        2S         -0.02118
 121        2PX        -0.01727
 122        2PY         0.01206
 123        2PZ        -0.02083
 124        3S          0.04939
 125        3PX        -0.03877
 126        3PY         0.00639
 127        3PZ        -0.03549
 128        4S          0.30541
 129        4PX        -0.03869
 130        4PY         0.16824
 131        4PZ        -0.14891
 132        5S         -0.72146
 133        5PX         0.05036
 134        5PY         1.13569
 135        5PZ        -0.27549
 136        6D 0       -0.00032
 137        6D+1       -0.00088
 138        6D-1        0.02413
 139        6D+2        0.00934
 140        6D-2        0.01022
 141 7   H  1S          0.00087
 142        2S         -0.02335
 143        3S          0.16084
 144        4PX        -0.00210
 145        4PY         0.01428
 146        4PZ        -0.00204
 147 8   H  1S          0.00918
 148        2S         -0.06655
 149        3S          0.41004
 150        4PX        -0.00560
 151        4PY         0.00421
 152        4PZ        -0.01114
 153 9   H  1S          0.00067
 154        2S         -0.01829
 155        3S          0.04674
 156        4PX        -0.00158
 157        4PY        -0.00308
 158        4PZ         0.00130
 159 10  H  1S          0.02393
 160        2S          0.05614
 161        3S          0.23371
 162        4PX         0.00107
 163        4PY        -0.00417
 164        4PZ        -0.00394
 165 11  H  1S         -0.01469
 166        2S         -0.03430
 167        3S         -0.22935
 168        4PX         0.00211
 169        4PY        -0.00083
 170        4PZ        -0.00247
     Beta Molecular Orbital Coefficients.
                          24        25        26        27        28
                           O         O         O         O         O
     EIGENVALUES --    -0.38232  -0.36582  -0.34326  -0.33941  -0.32726
   1 1   Si 1S         -0.00089   0.00164   0.00110  -0.00283  -0.00194
   2        2S         -0.00243   0.00450   0.00302  -0.00776  -0.00532
   3        3S          0.00552  -0.01019  -0.00690   0.01765   0.01205
   4        4S          0.00971  -0.01803  -0.01208   0.03129   0.02175
   5        5S         -0.01594   0.03681   0.02661  -0.06906  -0.05070
   6        6S         -0.04012  -0.01544   0.01548  -0.02724   0.01363
   7        7PX         0.01781   0.00574  -0.00307   0.00198  -0.00422
   8        7PY        -0.01246   0.00086   0.01154  -0.00224  -0.00242
   9        7PZ        -0.01741  -0.00410  -0.00403   0.01280   0.01760
  10        8PX         0.03200   0.01108  -0.00547   0.00400  -0.00755
  11        8PY        -0.02325   0.00127   0.02083  -0.00346  -0.00453
  12        8PZ        -0.03080  -0.00692  -0.00690   0.02326   0.03209
  13        9PX        -0.04422  -0.02352   0.00672  -0.01034   0.01022
  14        9PY         0.04151   0.00137  -0.03027  -0.00128   0.00717
  15        9PZ         0.03734   0.00474   0.00628  -0.03461  -0.04938
  16       10PX        -0.06231   0.02204   0.01743   0.02091   0.01518
  17       10PY        -0.00799  -0.02038  -0.03001   0.04218   0.00663
  18       10PZ         0.08416   0.03693   0.03745  -0.04946  -0.04547
  19       11PX        -0.02270   0.08050  -0.02472   0.09791  -0.08440
  20       11PY        -0.15249  -0.06661   0.13734   0.07191   0.00355
  21       11PZ         0.05498   0.03628   0.05395  -0.10308   0.13193
  22       12S          0.02910  -0.02710   0.00025  -0.01493   0.01022
  23       12PX         0.00866   0.00487   0.00866  -0.00596   0.01243
  24       12PY        -0.00393   0.00247  -0.01727   0.00405  -0.00323
  25       12PZ         0.01269  -0.00053  -0.00079   0.00684  -0.01163
  26       13D 0       -0.01924  -0.04183  -0.03521  -0.03773  -0.02894
  27       13D+1        0.05793  -0.01284   0.01261   0.03460   0.01188
  28       13D-1       -0.01463   0.02067  -0.00207   0.05796   0.00845
  29       13D+2        0.00846  -0.09135   0.02200  -0.00777  -0.00104
  30       13D-2       -0.06522  -0.02844  -0.00131   0.02789  -0.02235
  31 2   O  1S          0.00914   0.00661  -0.00003  -0.00955  -0.01318
  32        2S          0.01489   0.01077  -0.00008  -0.01568  -0.02158
  33        2PX         0.10297  -0.01205  -0.12559   0.04154   0.05800
  34        2PY        -0.03080  -0.01950  -0.01548   0.10680   0.14216
  35        2PZ        -0.02287   0.03204   0.02127   0.08403   0.08870
  36        3S         -0.04443  -0.03170  -0.00021   0.04892   0.06610
  37        3PX         0.15325  -0.01768  -0.18687   0.06227   0.08676
  38        3PY        -0.04483  -0.02864  -0.02328   0.15893   0.20969
  39        3PZ        -0.03658   0.04752   0.02892   0.12636   0.13364
  40        4S         -0.07591  -0.06366  -0.00154   0.05121   0.08783
  41        4PX         0.15000  -0.02308  -0.19032   0.05843   0.08498
  42        4PY        -0.04006  -0.01859  -0.02327   0.15365   0.21803
  43        4PZ        -0.01913   0.03741   0.03544   0.09934   0.10668
  44        5S         -0.02560  -0.09794  -0.04280   0.10972  -0.12569
  45        5PX         0.02158  -0.03947  -0.00510  -0.00247   0.02685
  46        5PY         0.01203   0.07503  -0.04166   0.02480   0.04121
  47        5PZ        -0.01790  -0.04217   0.03083  -0.03335   0.06246
  48        6D 0       -0.00033  -0.00022   0.00267  -0.00392  -0.00264
  49        6D+1       -0.00073   0.00126   0.00136  -0.00196  -0.00218
  50        6D-1        0.00118  -0.00145  -0.00013  -0.00618  -0.00521
  51        6D+2        0.00068  -0.00198  -0.00077   0.00224   0.00498
  52        6D-2       -0.00726  -0.00028   0.00731  -0.00017  -0.00072
  53 3   O  1S         -0.01842   0.00072   0.00452  -0.00490   0.00422
  54        2S         -0.03016   0.00119   0.00740  -0.00805   0.00684
  55        2PX         0.13413   0.05960   0.08015   0.06087  -0.02256
  56        2PY        -0.13078  -0.02777   0.00395  -0.05252   0.03376
  57        2PZ         0.04224  -0.02777   0.21992   0.05763   0.00547
  58        3S          0.09174  -0.00369  -0.02186   0.02527  -0.01966
  59        3PX         0.19965   0.08841   0.11921   0.08860  -0.03400
  60        3PY        -0.19203  -0.04244   0.00472  -0.07755   0.04996
  61        3PZ         0.06331  -0.04063   0.32574   0.08576   0.00807
  62        4S          0.13157  -0.01810  -0.03571   0.02586  -0.04135
  63        4PX         0.16349   0.07176   0.12056   0.08901  -0.02752
  64        4PY        -0.17770  -0.04374   0.00405  -0.08287   0.05216
  65        4PZ         0.06860  -0.03847   0.31639   0.08342   0.00494
  66        5S          0.12496  -0.07411   0.00100  -0.10333   0.09820
  67        5PX         0.04218   0.00329  -0.00282   0.05073  -0.04508
  68        5PY         0.05181  -0.02957  -0.03211  -0.01077  -0.00301
  69        5PZ         0.00801  -0.02248   0.05411   0.00564   0.01083
  70        6D 0        0.00790  -0.00010   0.00628   0.00399  -0.00200
  71        6D+1        0.00019   0.00105  -0.00523  -0.00042  -0.00019
  72        6D-1       -0.00081  -0.00169   0.00898   0.00222   0.00072
  73        6D+2        0.00226  -0.00078  -0.00363   0.00129  -0.00113
  74        6D-2        0.00840   0.00402   0.00462   0.00306  -0.00094
  75 4   O  1S         -0.00561   0.00584   0.00774  -0.00210  -0.00385
  76        2S         -0.00921   0.00959   0.01266  -0.00344  -0.00631
  77        2PX        -0.06994   0.18709   0.07434  -0.05258   0.09593
  78        2PY        -0.04011  -0.04599   0.01226   0.12947  -0.07643
  79        2PZ         0.01278   0.04561  -0.02526  -0.05476   0.07636
[...]
     23 -0.397075D-01 -0.402131D-01  0.691253D-01
     24  0.936071D-04  0.393176D-03 -0.277350D-03  0.198294D-01
     25 -0.269862D-03 -0.578582D-03  0.132322D-02 -0.904837D-02  0.182019D-01
     26  0.859076D-04 -0.102214D-02  0.969385D-03 -0.903648D-02 -0.550915D-02
     27 -0.404040D-03 -0.159217D-02  0.163637D-02 -0.126328D-01  0.636498D-02
     28 -0.111135D-03  0.975767D-03 -0.723216D-03  0.512178D-02 -0.954016D-02
     29  0.403138D-03  0.768277D-03 -0.904639D-03  0.546233D-02  0.351433D-02
     30  0.208039D-03  0.297086D-03 -0.552867D-03  0.469907D-02 -0.878314D-02
     31  0.323092D-03  0.144452D-04 -0.136958D-03 -0.847722D-02  0.488114D-02
     32 -0.673815D-03  0.124912D-03  0.609854D-03  0.314570D-02  0.422788D-02
     33  0.290614D-04  0.144692D-02 -0.970693D-03  0.404062D-02  0.413907D-02
     34 -0.510725D-03 -0.369256D-03  0.830679D-03 -0.909141D-02  0.443218D-02
     35  0.341244D-03 -0.676245D-03 -0.179374D-04  0.316708D-02 -0.778162D-02
     36 -0.746369D-02 -0.778492D-02  0.447953D-02 -0.147226D-03 -0.680326D-04
     37  0.810943D-02  0.533910D-02 -0.312980D-02  0.267801D-03  0.137670D-02
               26            27            28            29            30
     26  0.193118D-01
     27  0.593347D-02  0.209696D-01
     28  0.415991D-02 -0.998002D-02  0.197281D-01
     29 -0.872018D-02 -0.950935D-02 -0.579678D-02  0.174020D-01
     30  0.564748D-02 -0.989452D-02  0.612998D-02  0.450431D-02  0.187959D-01
     31  0.438804D-02  0.451779D-02 -0.875464D-02  0.490437D-02 -0.589385D-02
     32 -0.902943D-02  0.309932D-02  0.493804D-02 -0.875776D-02 -0.946184D-02
     33 -0.895680D-02 -0.913727D-02  0.505008D-02  0.502032D-02 -0.806225D-02
     34  0.580793D-02  0.472917D-02  0.569916D-02 -0.873958D-02  0.430924D-02
     35  0.489417D-02  0.371295D-02 -0.984170D-02  0.450218D-02  0.525588D-02
     36  0.375685D-04  0.322994D-03 -0.220384D-03 -0.219522D-03 -0.374091D-05
     37  0.370432D-03 -0.899256D-04 -0.838219D-04  0.169377D-03 -0.256050D-03
               31            32            33            34            35
     31  0.169870D-01
     32 -0.907604D-02  0.196739D-01
     33  0.342407D-02  0.574546D-02  0.175388D-01
     34 -0.853415D-02  0.526215D-02 -0.580848D-02  0.185083D-01
     35  0.553865D-02 -0.130894D-01 -0.976612D-02 -0.883625D-02  0.199636D-01
     36 -0.824237D-04  0.584407D-04 -0.373420D-03  0.962165D-04  0.162762D-03
     37  0.352882D-03  0.348282D-03  0.545351D-03  0.190894D-03 -0.655350D-03
               36            37
     36  0.144191D-01
     37 -0.953483D-02  0.137391D-01
 Leave Link  716 at Thu Apr 16 16:55:19 2009, MaxMem=    6291456 cpu:       0.7
 (Enter /opt//g03/l103.exe)

 GradGradGradGradGradGradGradGradGradGradGradGradGradGradGradGradGradGrad
 Berny optimization.
 Internal  Forces:  Max     0.000000431 RMS     0.000000162
 Search for a local minimum.
 Step number   1 out of a maximum of   2
 All quantities printed in internal units (Hartrees-Bohrs-Radians)
 Second derivative matrix not updated -- analytic derivatives used.
     Eigenvalues ---    0.00170   0.00209   0.00235   0.00281   0.00481
     Eigenvalues ---    0.02325   0.05959   0.06375   0.06813   0.08441
     Eigenvalues ---    0.08821   0.09592   0.09844   0.09935   0.11210
     Eigenvalues ---    0.14838   0.16988   0.31271   0.33269   0.33618
     Eigenvalues ---    0.35602   0.36258   0.37783   0.44553   0.55531
     Eigenvalues ---    0.55565   0.556871000.000001000.000001000.00000
     Eigenvalues --- 1000.000001000.000001000.000001000.000001000.00000
     Eigenvalues --- 1000.000001000.00000
 Angle between quadratic step and forces=  74.20 degrees.
 Linear search not attempted -- first point.
 Iteration  1 RMS(Cart)=  0.00001250 RMS(Int)=  0.00000000
 Iteration  2 RMS(Cart)=  0.00000000 RMS(Int)=  0.00000000
 Variable       Old X    -DE/DX   Delta X   Delta X   Delta X     New X
                                 (Linear)    (Quad)   (Total)
    R1        3.13055   0.00000   0.00000   0.00000   0.00000   3.13055
    R2        3.10366   0.00000   0.00000   0.00000   0.00000   3.10366
    R3        3.10336   0.00000   0.00000   0.00000   0.00000   3.10336
    R4        3.10665   0.00000   0.00000   0.00000   0.00000   3.10665
    R5        2.57948   0.00000   0.00000   0.00000   0.00000   2.57948
    R6        1.81287   0.00000   0.00000   0.00000   0.00000   1.81287
    R7        1.81225   0.00000   0.00000   0.00000   0.00000   1.81225
    R8        1.81269   0.00000   0.00000   0.00000   0.00000   1.81269
    R9        2.04609   0.00000   0.00000   0.00000   0.00000   2.04609
   R10        2.05141   0.00000   0.00000   0.00000   0.00000   2.05142
    A1        2.01199   0.00000   0.00000   0.00000   0.00000   2.01199
    A2        1.84934   0.00000   0.00000   0.00000   0.00000   1.84934
    A3        1.84680   0.00000   0.00000   0.00000   0.00000   1.84680
    A4        1.86890   0.00000   0.00000   0.00000   0.00000   1.86890
    A5        1.86732   0.00000   0.00000   0.00000   0.00000   1.86732
    A6        2.02559   0.00000   0.00000   0.00000   0.00000   2.02559
    A7        2.21739   0.00000   0.00000   0.00000   0.00000   2.21739
    A8        2.06024   0.00000   0.00000   0.00000   0.00000   2.06024
    A9        2.06238   0.00000   0.00000   0.00000   0.00000   2.06239
   A10        2.06217   0.00000   0.00000   0.00000   0.00000   2.06217
   A11        1.99724   0.00000   0.00000   0.00000   0.00000   1.99724
   A12        2.06286   0.00000   0.00000   0.00000   0.00000   2.06286
   A13        2.13846   0.00000   0.00000   0.00000   0.00000   2.13846
    D1       -1.37657   0.00000   0.00000  -0.00001  -0.00001  -1.37658
    D2        0.68679   0.00000   0.00000  -0.00001  -0.00001   0.68677
    D3        2.84698   0.00000   0.00000  -0.00001  -0.00001   2.84696
    D4       -1.38808   0.00000   0.00000   0.00000   0.00000  -1.38807
    D5        2.84271   0.00000   0.00000   0.00000   0.00000   2.84271
    D6        0.66005   0.00000   0.00000   0.00000   0.00000   0.66006
    D7       -2.74914   0.00000   0.00000   0.00002   0.00002  -2.74912
    D8       -0.59298   0.00000   0.00000   0.00002   0.00002  -0.59297
    D9        1.49049   0.00000   0.00000   0.00002   0.00002   1.49050
   D10       -0.65930   0.00000   0.00000  -0.00001  -0.00001  -0.65931
   D11       -2.81319   0.00000   0.00000  -0.00001  -0.00001  -2.81320
   D12        1.38566   0.00000   0.00000  -0.00001  -0.00001   1.38565
   D13        3.09348   0.00000   0.00000  -0.00002  -0.00002   3.09346
   D14       -0.46691   0.00000   0.00000  -0.00001  -0.00001  -0.46692
         Item               Value     Threshold  Converged?
 Maximum Force            0.000000     0.000015     YES
 RMS     Force            0.000000     0.000010     YES
 Maximum Displacement     0.000054     0.000060     YES
 RMS     Displacement     0.000013     0.000040     YES
 Predicted change in Energy=-6.225342D-12
 Optimization completed.
    -- Stationary point found.
                           ----------------------------
                           !   Optimized Parameters   !
                           ! (Angstroms and Degrees)  !
 --------------------------                            --------------------------
 ! Name  Definition              Value          Derivative Info.                !
 --------------------------------------------------------------------------------
 ! R1    R(1,2)                  1.6566         -DE/DX =    0.0                 !
 ! R2    R(1,3)                  1.6424         -DE/DX =    0.0                 !
 ! R3    R(1,4)                  1.6422         -DE/DX =    0.0                 !
 ! R4    R(1,5)                  1.644          -DE/DX =    0.0                 !
 ! R5    R(2,6)                  1.365          -DE/DX =    0.0                 !
 ! R6    R(3,9)                  0.9593         -DE/DX =    0.0                 !
 ! R7    R(4,10)                 0.959          -DE/DX =    0.0                 !
 ! R8    R(5,11)                 0.9592         -DE/DX =    0.0                 !
 ! R9    R(6,7)                  1.0827         -DE/DX =    0.0                 !
 ! R10   R(6,8)                  1.0856         -DE/DX =    0.0                 !
 ! A1    A(2,1,3)              115.2787         -DE/DX =    0.0                 !
 ! A2    A(2,1,4)              105.9592         -DE/DX =    0.0                 !
 ! A3    A(2,1,5)              105.814          -DE/DX =    0.0                 !
 ! A4    A(3,1,4)              107.08           -DE/DX =    0.0                 !
 ! A5    A(3,1,5)              106.9895         -DE/DX =    0.0                 !
 ! A6    A(4,1,5)              116.0577         -DE/DX =    0.0                 !
 ! A7    A(1,2,6)              127.0473         -DE/DX =    0.0                 !
 ! A8    A(1,3,9)              118.0428         -DE/DX =    0.0                 !
 ! A9    A(1,4,10)             118.166          -DE/DX =    0.0                 !
 ! A10   A(1,5,11)             118.1534         -DE/DX =    0.0                 !
 ! A11   A(2,6,7)              114.4333         -DE/DX =    0.0                 !
 ! A12   A(2,6,8)              118.1931         -DE/DX =    0.0                 !
 ! A13   A(7,6,8)              122.5247         -DE/DX =    0.0                 !
 ! D1    D(3,1,2,6)            -78.8715         -DE/DX =    0.0                 !
 ! D2    D(4,1,2,6)             39.35           -DE/DX =    0.0                 !
 ! D3    D(5,1,2,6)            163.1198         -DE/DX =    0.0                 !
 ! D4    D(2,1,3,9)            -79.5309         -DE/DX =    0.0                 !
 ! D5    D(4,1,3,9)            162.8753         -DE/DX =    0.0                 !
 ! D6    D(5,1,3,9)             37.8182         -DE/DX =    0.0                 !
 ! D7    D(2,1,4,10)          -157.5142         -DE/DX =    0.0                 !
 ! D8    D(3,1,4,10)           -33.9754         -DE/DX =    0.0                 !
 ! D9    D(5,1,4,10)            85.3986         -DE/DX =    0.0                 !
 ! D10   D(2,1,5,11)           -37.7753         -DE/DX =    0.0                 !
 ! D11   D(3,1,5,11)          -161.1841         -DE/DX =    0.0                 !
 ! D12   D(4,1,5,11)            79.3926         -DE/DX =    0.0                 !
 ! D13   D(1,2,6,7)            177.2434         -DE/DX =    0.0                 !
 ! D14   D(1,2,6,8)            -26.7517         -DE/DX =    0.0                 !
 --------------------------------------------------------------------------------
 GradGradGradGradGradGradGradGradGradGradGradGradGradGradGradGradGradGrad

 Leave Link  103 at Thu Apr 16 16:55:21 2009, MaxMem=    6291456 cpu:       5.8
 (Enter /opt//g03/l9999.exe)
 1\1\GINC-CARAVAGGIO\Freq\UB971\6-311+G(d,p)\C1H5O4Si1(2)\SS663\16-Apr-
 2009\0\\#P Geom=AllCheck Guess=Read SCRF=Check GenChk UB971/6-311+G(d,
 p) Freq\\#NewComb uB971/6-311+G(d,p)\\0,2\Si,0.0025056922,0.0109731199
 ,-0.0050563886\O,0.0191997189,0.0144348103,1.6514690392\O,1.4804095307
 ,-0.0045582521,-0.7212887468\O,-0.761767329,-1.3740702262,-0.446019647
 2\O,-0.7315410978,1.4134932009,-0.4486193947\C,0.2276427374,-1.0547618
 157,2.474024067\H,0.2415669708,-0.8120957537,3.5291300202\H,-0.0296582
 241,-2.043000989,2.1057519058\H,1.9612137084,0.8234127718,-0.781340393
 5\H,-0.5932260035,-1.7247348131,-1.3225514643\H,-1.4708237041,1.723654
 9469,0.0780630029\\Version=AM64L-G03RevE.01\HF=-631.6150436\S2=0.75388
 8\S2-1=0.\S2A=0.750011\RMSD=8.507e-09\RMSF=3.132e-07\ZeroPoint=0.07165
 51\Thermal=0.0805338\Dipole=-0.1454029,0.2317397,-0.1758069\DipoleDeri
 v=2.1941569,0.0505625,-0.0686362,-0.0575334,2.2852348,0.0992607,-0.004
 6713,-0.3731034,2.6026734,-0.4579294,0.1297126,-0.1612281,0.0978669,-1
 .014633,0.5194965,-0.1630375,0.5750902,-1.6602712,-1.1601571,-0.107999
 2,0.2547964,-0.0443383,-0.6081251,0.0202819,0.2267946,0.1120971,-0.884
 3007,-0.7751326,-0.1773893,-0.1643641,-0.1928416,-1.0553841,-0.2516721
 ,-0.140815,-0.118934,-0.7772725,-0.8323628,0.2419738,-0.1191667,0.2985
 869,-1.1629384,0.119913,-0.1195323,0.1398478,-0.7227704,-0.2845838,-0.
 0344175,0.1611344,-0.0514343,0.623012,-0.4884152,0.1560828,-0.3101074,
 0.6475092,0.1732682,0.0013481,0.030619,-0.0009572,0.0135054,-0.0309826
 ,-0.012934,0.0162856,-0.0974072,0.1499547,-0.0684392,-0.0296121,-0.025
 1793,-0.05282,0.0359133,-0.0368787,-0.0416689,0.0050924,0.3682929,-0.0
 08597,-0.0303438,-0.0043372,0.2344401,-0.0350594,-0.0178913,-0.0307609
 ,0.3455941,0.3296961,0.0154546,0.0443785,0.0119268,0.3622783,0.022874,
 0.0505924,0.0321444,0.2551272,0.2947969,-0.0422095,0.0824227,-0.031759
 3,0.37543,-0.01161,0.0622904,-0.0008905,0.2860257\Polar=44.7055387,-0.
 4863773,48.281647,0.0536006,-4.3418759,52.0687647\PG=C01 [X(C1H5O4Si1)
 ]\NImag=0\\0.47579628,0.00198784,0.53936283,-0.04302352,0.00045483,0.4
 7545157,-0.03441799,0.00354004,0.00034385,0.03947738,0.00062128,-0.042
 27351,0.00794436,-0.03591984,0.29948501,-0.00191161,0.00187437,-0.2353
 9448,0.04317725,-0.17347043,0.47440628,-0.23291321,0.00220134,0.092987
 60,-0.00002817,-0.00165593,0.00967488,0.41565729,-0.02289021,-0.049234
 92,0.00796250,-0.00188070,0.00739061,0.00105186,0.24013128,0.45290635,
 0.09184349,-0.00579197,-0.07949832,0.01410539,0.00501420,-0.01368929,-
 0.13474359,-0.03221129,0.08712234,-0.08438582,-0.08243467,-0.02052797,
 0.00399759,-0.00143256,-0.00327224,-0.01603581,-0.02268551,0.00056156,
 0.11467847,-0.09601042,-0.20708989,-0.04820777,-0.00562566,0.00028006,
 -0.01472756,-0.01090578,-0.00489850,0.00007030,0.08074464,0.31756888,-
 0.03518368,-0.07237770,-0.06870793,-0.01088116,-0.01458202,-0.01936251
 ,0.00494053,0.00416413,0.00575839,-0.05525853,0.25871369,0.52420713,-0
 .09651240,0.10308120,-0.02531447,0.00342804,0.00714195,-0.00669253,-0.
 01785718,0.01912994,0.00101231,0.00793186,-0.00199594,-0.00194231,0.42
 296409,0.08783371,-0.20925266,0.05629931,0.00489953,-0.00611055,0.0121
 8842,0.01080942,-0.00256537,-0.00063658,0.00416836,-0.01816710,-0.0007
 6506,-0.25608040,0.30510275,-0.01284757,0.03776550,-0.05293155,-0.0101
 4926,0.02324329,-0.01811936,0.00909029,-0.00638007,0.00589606,0.000843
 01,-0.00467369,0.00817197,-0.20207860,0.03324310,0.22588934,-0.0037849
 4,0.00122265,-0.00158343,-0.01599897,0.02836096,-0.03638486,0.00012355
 ,0.00008969,0.00108562,0.00079459,0.00049785,0.00036949,0.00151957,0.0
 0065858,-0.00104045,0.05163247,0.00191021,0.00099260,0.01782084,0.0406
 0792,-0.23604152,0.13412911,0.00302473,-0.00017438,-0.00542234,-0.0017
 0792,-0.00772301,-0.00551306,-0.00178871,0.00386924,-0.00448795,0.0349
 8171,0.59358477,-0.00495073,0.01374421,-0.04104036,-0.04168670,0.12106
 324,-0.16825487,-0.00244048,-0.00067961,0.00380690,0.00137731,0.005120
 94,0.00369003,0.00115540,-0.00103193,0.00247544,0.08241423,0.04096178,
 0.62121368,0.00133137,0.00006662,-0.00156281,-0.00067452,-0.00115228,-
 0.00521981,-0.00024621,0.00014064,0.00004702,-0.00007998,0.00010689,0.
 00009099,-0.00007040,0.00004204,0.00002217,-0.00679731,0.00201621,0.00
 396889,0.00530137,0.00020502,-0.00300533,-0.00049464,0.00185408,0.0001
 4106,0.03810700,-0.00045494,0.00027836,0.00076526,0.00003090,0.0013889
 6,0.00009852,0.00039079,-0.00062559,0.00102519,-0.00507253,-0.07340604
 ,-0.08603591,0.00101773,0.07370476,-0.00023279,0.00016591,0.00282563,0
 .00004595,0.00589428,-0.02037240,0.00064575,0.00001957,-0.00057463,-0.
 00026526,-0.00043220,-0.00062126,-0.00035925,0.00062727,-0.00065635,-0
 .01236244,-0.07527126,-0.32574665,0.00949640,0.06729987,0.34676080,0.0
 0127859,-0.00066913,-0.00044011,0.00307394,0.00823680,0.00290449,-0.00
 053050,0.00025196,0.00024063,-0.00063733,0.00059620,0.00008543,-0.0001
 9981,-0.00011081,0.00013512,-0.02782481,-0.07847118,-0.04016459,0.0011
 2709,0.00198964,0.00301962,0.02368310,-0.00033184,-0.00338677,-0.00500
 918,-0.00519287,-0.02410292,0.00418667,-0.00022554,0.00035451,0.000519
 33,0.00004767,0.00131452,-0.00035151,0.00042312,-0.00002970,0.00095726
 ,-0.06063490,-0.27993987,-0.09397384,-0.00230236,0.00119173,0.00186171
 ,0.06824218,0.30422088,0.00096700,0.00455487,0.00403492,0.00435941,0.0
 2839368,0.00288607,-0.00001977,-0.00048668,-0.00050742,0.00018434,-0.0
 0073448,0.00035979,-0.00030321,-0.00033589,-0.00077143,-0.03250421,-0.
 10220907,-0.09578913,-0.00678637,-0.02088217,-0.00162540,0.03403355,0.
 09192274,0.09115360,-0.01747447,-0.02164709,0.00471179,0.00015015,0.00
 149745,-0.00210033,-0.14782451,-0.21618255,0.02503703,-0.00233897,-0.0
 0050630,0.00133797,0.00377199,-0.00022887,-0.00104706,0.00011366,-0.00
 068479,0.00059570,0.00008721,0.00008196,-0.00012303,-0.00000749,0.0001
 0487,-0.00008130,0.16301330,0.00536293,-0.00008407,-0.00355527,0.00119
 665,0.00003882,-0.00158978,-0.24615503,-0.40579095,0.03542778,0.000926
 28,0.00205507,-0.00018946,0.00138161,-0.00208697,-0.00032190,0.0001487
 4,-0.00045520,0.00030282,-0.00002373,0.00006436,-0.00004085,-0.0000093
 9,0.00002327,-0.00002871,0.23688358,0.40658721,0.01007472,0.00981441,-
 0.00163415,0.00017057,-0.00175829,-0.00130797,0.01964512,0.02241928,-0
 .00887566,-0.00029846,-0.00099474,0.00159361,-0.00126257,0.00014009,-0
 .00103244,-0.00018837,0.00019213,-0.00007388,-0.00000658,0.00000510,-0
 .00002739,0.00001075,-0.00008197,0.00007125,-0.02890946,-0.03017934,0.
 01109820,0.00027431,-0.01044091,-0.01258636,-0.00030732,-0.00249802,-0
 .00284468,-0.00002657,0.00163799,0.00110618,-0.02339840,0.03572735,0.0
 9649834,-0.00074293,0.00070537,-0.00051632,0.00003311,-0.00070492,0.00
 054382,0.00000062,0.00008161,-0.00001465,0.00003362,0.00010320,0.00002
 426,-0.00001963,0.00012235,0.00056300,0.02409925,0.00035488,-0.0133902
 9,-0.02323693,-0.00111248,-0.00052025,0.00061039,0.00261887,0.00160091
 ,0.00128003,0.02359019,-0.08434043,-0.17086189,-0.00101609,-0.00063063
 ,0.00183332,0.00003520,0.00018681,-0.00024955,0.00001523,0.00013177,0.
 00000581,-0.00015631,0.00027687,-0.00010048,0.00012041,-0.00018548,0.0
 0039048,-0.02459435,0.09673789,0.00294378,0.00089821,-0.00588139,-0.00
 042952,-0.00090909,0.00048801,0.00235916,0.00216383,-0.00080494,0.0773
 1441,-0.19481323,-0.45457917,0.00008129,0.00288404,-0.00035260,0.00003
 522,-0.00061301,0.00043146,0.00000647,0.00008561,0.00004579,0.00021949
 ,0.00007776,0.00006837,0.00027782,0.00009679,0.00033244,-0.08294293,0.
 19031318,0.46031585,-0.00919171,0.00309212,0.00699544,0.00129987,-0.00
 319980,0.00266943,-0.00031869,0.00225747,-0.00029564,-0.00052619,-0.00
 262885,-0.00005707,-0.32423282,0.14730307,0.21758868,0.00018907,0.0008
 1673,-0.00081285,0.00002076,-0.00012426,0.00014970,0.00000360,-0.00023
 352,0.00012630,0.00052876,0.00016600,0.00020127,0.00005395,0.00014446,
 0.00013480,0.33217339,0.02095658,-0.01263798,-0.00997805,-0.00236666,0
 .00171319,-0.00236004,0.00061161,0.00013338,0.00098529,-0.00124736,-0.
 00038857,0.00166436,0.12933252,-0.06950342,-0.08220404,-0.00028796,-0.
 00089339,0.00077785,0.00007301,0.00013597,-0.00013013,0.00010003,0.000
 07749,-0.00009381,0.00056134,-0.00016607,0.00005285,-0.00013968,0.0001
 3284,-0.00018410,-0.14759343,0.08139655,-0.00767910,0.00889737,0.00277
 606,0.00094422,-0.00083322,-0.00127949,-0.00213950,0.00197648,0.001366
 58,-0.00065816,0.00067874,-0.00051004,0.23570394,-0.10261278,-0.168569
 10,0.00015921,0.00041284,-0.00071262,-0.00005638,0.00002618,-0.0000081
 5,-0.00004440,-0.00010896,0.00011939,0.00030088,0.00007791,-0.00014400
 ,0.00016935,0.00001564,-0.00006381,-0.22670006,0.09146982,0.16702519\\
 0.,0.,0.00000025,0.00000005,-0.00000050,0.00000025,0.00000024,0.000000
 05,-0.00000023,-0.00000026,0.00000011,-0.00000025,0.00000013,0.0000006
 6,0.00000026,0.00000005,-0.00000040,-0.00000018,-0.00000002,-0.0000005
 0,-0.00000039,-0.00000021,0.00000004,-0.00000029,-0.00000014,-0.000000
 34,0.00000016,-0.00000044,0.00000066,0.00000003,0.00000060,0.00000020,
 0.00000041\\\@


 LIFE IS A CONTINUAL STRUGGLE AGAINST THE TENDENCY TO PRODUCE ENTROPY.
 Job cpu time:  0 days  1 hours 54 minutes 42.8 seconds.
 File lengths (MBytes):  RWF=     86 Int=      0 D2E=      0 Chk=      8 Scr=      1
 Normal termination of Gaussian 03 at Thu Apr 16 16:55:21 2009.
