<?xml version="1.0" encoding="UTF-8"?>
<module cmlx:templateRef="gaussian.log" xmlns="http://www.xml-cml.org/schema" xmlns:cmlx="http://www.xml-cml.org/schema/cmlx"> Entering Gaussian System, Link 0=/usr/local/Gaussian/g03/g03 Initial command: /usr/local/Gaussian/g03/l1.exe /export/scratch//webmo/3307/Gau-7085.inp -scrdir=/export/scratch//webmo/3307/ Entering Link 1 = /usr/local/Gaussian/g03/l1.exe PID=      7091.  <module cmlx:lineCount="60" cmlx:templateRef="l1.legal"><scalar dataType="xsd:string" dictRef="g:l1.legal">Copyright (c) 1988,1990,1992,1993,1995,1998,2003, Gaussian, Inc.</scalar></module>  <module cmlx:lineCount="20" cmlx:templateRef="l1.citation"><list cmlx:templateRef="citation"><scalar dataType="xsd:string" dictRef="g:l1.citation">Cite this work as:</scalar></list></module> <module cmlx:lineCount="25" cmlx:templateRef="l1.end"><scalar dataType="xsd:string" dictRef="cc:run.date">2-Sep-2006</scalar><scalar dataType="xsd:string" dictRef="cc:program">Gaussian 03</scalar><scalar dataType="xsd:string" dictRef="cc:version">Sun64-SVR4-Unix-G03RevB.04</scalar><scalar dataType="xsd:string" dictRef="cc:program.date">2-Jun-2003</scalar><list cmlx:templateRef="control"><scalar dataType="xsd:string" dictRef="g:control">1/14=-1,18=20,26=3,38=1/1,3</scalar><scalar dataType="xsd:string" dictRef="g:control">2/9=110,17=6,18=5,40=1/2</scalar><scalar dataType="xsd:string" dictRef="g:control">3/5=4,6=6,7=111,11=2,16=1,25=1,30=1,74=-5/1,2,3</scalar><scalar dataType="xsd:string" dictRef="g:control">4//1</scalar><scalar dataType="xsd:string" dictRef="g:control">5/5=2,38=5/2</scalar><scalar dataType="xsd:string" dictRef="g:control">6/7=2,8=2,9=2,10=2,28=1/1</scalar><scalar dataType="xsd:string" dictRef="g:control">7//1,2,3,16</scalar><scalar dataType="xsd:string" dictRef="g:control">1/14=-1,18=20/3(1)</scalar><scalar dataType="xsd:string" dictRef="g:control">99//99</scalar><scalar dataType="xsd:string" dictRef="g:control">2/9=110/2</scalar><scalar dataType="xsd:string" dictRef="g:control">3/5=4,6=6,7=111,11=2,16=1,25=1,30=1,74=-5/1,2,3</scalar><scalar dataType="xsd:string" dictRef="g:control">4/5=5,16=3/1</scalar><scalar dataType="xsd:string" dictRef="g:control">5/5=2,38=5/2</scalar><scalar dataType="xsd:string" dictRef="g:control">7//1,2,3,16</scalar><scalar dataType="xsd:string" dictRef="g:control">1/14=-1,18=20/3(-5)</scalar><scalar dataType="xsd:string" dictRef="g:control">2/9=110/2</scalar><scalar dataType="xsd:string" dictRef="g:control">6/7=2,8=2,9=2,10=2,19=2,28=1/1</scalar><scalar dataType="xsd:string" dictRef="g:control">99/9=1/99</scalar></list></module><module cmlx:lineCount="3" cmlx:templateRef="l101.title"><scalar dataType="xsd:string" dictRef="cc:title" cmlx:templateRef="title">bromobz basis2</scalar></module><module cmlx:lineCount="46" cmlx:templateRef="l101"><list cmlx:templateRef="rest"><scalar dataType="xsd:string" dictRef="x:l101"/></list></module>                    Isotopes and Nuclear Properties:<module cmlx:lineCount="8" cmlx:templateRef="l101.isotope">  Atom         1           2           3           4           5           6           7           8           9          10 IAtWgt=          12          12          12          12          12          12           1           1           1          79 AtmWgt=  12.0000000  12.0000000  12.0000000  12.0000000  12.0000000  12.0000000   1.0078250   1.0078250   1.0078250  78.9183361 IAtSpn=           0           0           0           0           0           0           1           1           1           3 AtZEff=   0.0000000   0.0000000   0.0000000   0.0000000   0.0000000   0.0000000   0.0000000   0.0000000   0.0000000   0.0000000 AtQMom=   0.0000000   0.0000000   0.0000000   0.0000000   0.0000000   0.0000000   0.0000000   0.0000000   0.0000000  29.3000000 AtGFac=   0.0000000   0.0000000   0.0000000   0.0000000   0.0000000   0.0000000   2.7928460   2.7928460   2.7928460   2.1063990</module><module cmlx:lineCount="8" cmlx:templateRef="l101.isotope">  Atom        11          12 IAtWgt=           1           1 AtmWgt=   1.0078250   1.0078250 IAtSpn=           1           1 AtZEff=   0.0000000   0.0000000 AtQMom=   0.0000000   0.0000000 AtGFac=   2.7928460   2.7928460</module><module cmlx:lineCount="67" cmlx:templateRef="l103"><list cmlx:templateRef="berny"><scalar dataType="xsd:string" dictRef="g:optimization">Initialization pass.</scalar></list><module cmlx:lineCount="60" cmlx:templateRef="l103.init"><list cmlx:templateRef="length"><array dataType="xsd:string" size="12" dictRef="g:symbol">R1 R2 R3 R4 R5 R6 R7 R8 R9 R10 R11 R12</array><array dataType="xsd:integer" size="12" dictRef="g:atom1">1 1 1 2 2 3 3 4 4 5 5 6</array><array dataType="xsd:integer" size="12" dictRef="g:atom2">2 6 7 3 8 4 9 5 10 6 11 12</array><array dataType="xsd:double" size="12" dictRef="cc:distance">1.3906 1.3907 1.0835 1.3914 1.0839 1.3891 1.0822 1.3891 1.9139 1.3914 1.0822 1.0839</array><array delimiter="|" dataType="xsd:string" size="12" dictRef="g:deriv">|estimate D2E/DX2|estimate D2E/DX2|estimate D2E/DX2|estimate D2E/DX2|estimate D2E/DX2|estimate D2E/DX2|estimate D2E/DX2|estimate D2E/DX2|estimate D2E/DX2|estimate D2E/DX2|estimate D2E/DX2|estimate D2E/DX2|</array></list><list cmlx:templateRef="angle"><array dataType="xsd:string" size="18" dictRef="g:symbol">A1 A2 A3 A4 A5 A6 A7 A8 A9 A10 A11 A12 A13 A14 A15 A16 A17 A18</array><array dataType="xsd:integer" size="18" dictRef="g:atom1">2 2 6 1 1 3 2 2 4 3 3 5 4 4 6 1 1 5</array><array dataType="xsd:integer" size="18" dictRef="g:atom2">1 1 1 2 2 2 3 3 3 4 4 4 5 5 5 6 6 6</array><array dataType="xsd:integer" size="18" dictRef="g:atom3">6 7 7 3 8 8 4 9 9 5 10 10 6 11 11 5 12 12</array><array dataType="xsd:double" size="18" dictRef="cc:angle">119.7508 120.126 120.1232 120.4666 120.2198 119.3136 118.9828 120.7025 120.3147 121.3522 119.3241 119.3236 118.9838 120.3145 120.7017 120.4639 120.2215 119.3147</array><array delimiter="|" dataType="xsd:string" size="18" dictRef="g:deriv">|estimate D2E/DX2|estimate D2E/DX2|estimate D2E/DX2|estimate D2E/DX2|estimate D2E/DX2|estimate D2E/DX2|estimate D2E/DX2|estimate D2E/DX2|estimate D2E/DX2|estimate D2E/DX2|estimate D2E/DX2|estimate D2E/DX2|estimate D2E/DX2|estimate D2E/DX2|estimate D2E/DX2|estimate D2E/DX2|estimate D2E/DX2|estimate D2E/DX2|</array></list><list cmlx:templateRef="dihed"><array dataType="xsd:string" size="23" dictRef="g:symbol">D1 D2 D3 D4 D5 D6 D7 D8 D9 D10 D11 D12 D13 D14 D15 D16 D17 D18 D19 D20 D21 D22 D23</array><array dataType="xsd:integer" size="23" dictRef="g:atom1">6 6 7 7 2 2 7 7 1 1 8 8 2 2 9 9 3 3 10 10 4 4 11</array><array dataType="xsd:integer" size="23" dictRef="g:atom2">1 1 1 1 1 1 1 1 2 2 2 2 3 3 3 3 4 4 4 4 5 5 5</array><array dataType="xsd:integer" size="23" dictRef="g:atom3">2 2 2 2 6 6 6 6 3 3 3 3 4 4 4 4 5 5 5 5 6 6 6</array><array dataType="xsd:integer" size="23" dictRef="g:atom4">3 8 3 8 5 12 5 12 4 9 4 9 5 10 5 10 6 11 6 11 1 12 1</array><array dataType="xsd:double" size="23" dictRef="cc:dihed">-0.0116 -179.9979 -179.9509 0.0628 0.0165 179.9943 179.9558 -0.0664 -0.0062 179.9823 179.9802 -0.0313 0.0196 179.9465 -179.9689 -0.0421 -0.0148 179.9717 -179.9417 0.0449 -0.0034 -179.9815 -179.9899</array><array delimiter="|" dataType="xsd:string" size="23" dictRef="g:deriv">|estimate D2E/DX2|estimate D2E/DX2|estimate D2E/DX2|estimate D2E/DX2|estimate D2E/DX2|estimate D2E/DX2|estimate D2E/DX2|estimate D2E/DX2|estimate D2E/DX2|estimate D2E/DX2|estimate D2E/DX2|estimate D2E/DX2|estimate D2E/DX2|estimate D2E/DX2|estimate D2E/DX2|estimate D2E/DX2|estimate D2E/DX2|estimate D2E/DX2|estimate D2E/DX2|estimate D2E/DX2|estimate D2E/DX2|estimate D2E/DX2|estimate D2E/DX2|</array></list> ! D24   D(11,5,6,12)            0.032          estimate D2E/DX2                !</module> --------------------------------------------------------------------------------<module cmlx:lineCount="2" cmlx:templateRef="l103.trust"><scalar dataType="xsd:double" dictRef="g:trustrad">0.3</scalar><scalar dataType="xsd:double" dictRef="g:fncerr">1.0E-7</scalar><scalar dataType="xsd:double" dictRef="g:grderr">1.0E-6</scalar><scalar dataType="xsd:integer" dictRef="g:nstep">64</scalar><scalar dataType="xsd:integer" dictRef="g:allowedstep">100</scalar></module> GradGradGradGradGradGradGradGradGradGradGradGradGradGradGradGradGradGrad</module><module cmlx:lineCount="18" cmlx:templateRef="l202.orient"><molecule id="mol.l202.orient" cmlx:templateRef="atom"><atomArray><atom id="a1" elementType="C" x3="0.0" y3="0.0" z3="0.0"><scalar dataType="xsd:integer" dictRef="cc:serial">1</scalar><scalar dataType="xsd:integer" dictRef="g:atomicType">0</scalar><scalar dataType="xsd:integer" dictRef="compchem:atomicNumber">6</scalar></atom><atom id="a2" elementType="C" x3="0.0" y3="0.0" z3="1.390646"><scalar dataType="xsd:integer" dictRef="cc:serial">2</scalar><scalar dataType="xsd:integer" dictRef="g:atomicType">0</scalar><scalar dataType="xsd:integer" dictRef="compchem:atomicNumber">6</scalar></atom><atom id="a3" elementType="C" x3="1.199241" y3="0.0" z3="2.096113"><scalar dataType="xsd:integer" dictRef="cc:serial">3</scalar><scalar dataType="xsd:integer" dictRef="g:atomicType">0</scalar><scalar dataType="xsd:integer" dictRef="compchem:atomicNumber">6</scalar></atom><atom id="a4" elementType="C" x3="2.395498" y3="-1.32E-4" z3="1.390039"><scalar dataType="xsd:integer" dictRef="cc:serial">4</scalar><scalar dataType="xsd:integer" dictRef="g:atomicType">0</scalar><scalar dataType="xsd:integer" dictRef="compchem:atomicNumber">6</scalar></atom><atom id="a5" elementType="C" x3="2.414931" y3="1.43E-4" z3="0.001078"><scalar dataType="xsd:integer" dictRef="cc:serial">5</scalar><scalar dataType="xsd:integer" dictRef="g:atomicType">0</scalar><scalar dataType="xsd:integer" dictRef="compchem:atomicNumber">6</scalar></atom><atom id="a6" elementType="C" x3="1.207368" y3="2.44E-4" z3="-0.69009"><scalar dataType="xsd:integer" dictRef="cc:serial">6</scalar><scalar dataType="xsd:integer" dictRef="g:atomicType">0</scalar><scalar dataType="xsd:integer" dictRef="compchem:atomicNumber">6</scalar></atom><atom id="a7" elementType="H" x3="-0.937157" y3="8.03E-4" z3="-0.543819"><scalar dataType="xsd:integer" dictRef="cc:serial">7</scalar><scalar dataType="xsd:integer" dictRef="g:atomicType">0</scalar><scalar dataType="xsd:integer" dictRef="compchem:atomicNumber">1</scalar></atom><atom id="a8" elementType="H" x3="-0.936633" y3="-2.23E-4" z3="1.936213"><scalar dataType="xsd:integer" dictRef="cc:serial">8</scalar><scalar dataType="xsd:integer" dictRef="g:atomicType">0</scalar><scalar dataType="xsd:integer" dictRef="compchem:atomicNumber">1</scalar></atom><atom id="a9" elementType="H" x3="1.203697" y3="2.88E-4" z3="3.178277"><scalar dataType="xsd:integer" dictRef="cc:serial">9</scalar><scalar dataType="xsd:integer" dictRef="g:atomicType">0</scalar><scalar dataType="xsd:integer" dictRef="compchem:atomicNumber">1</scalar></atom><atom id="a10" elementType="Br" x3="4.050851" y3="0.001426" z3="2.350588"><scalar dataType="xsd:integer" dictRef="cc:serial">10</scalar><scalar dataType="xsd:integer" dictRef="g:atomicType">0</scalar><scalar dataType="xsd:integer" dictRef="compchem:atomicNumber">35</scalar></atom><atom id="a11" elementType="H" x3="3.356683" y3="4.96E-4" z3="-0.532021"><scalar dataType="xsd:integer" dictRef="cc:serial">11</scalar><scalar dataType="xsd:integer" dictRef="g:atomicType">0</scalar><scalar dataType="xsd:integer" dictRef="compchem:atomicNumber">1</scalar></atom><atom id="a12" elementType="H" x3="1.216272" y3="1.53E-4" z3="-1.773979"><scalar dataType="xsd:integer" dictRef="cc:serial">12</scalar><scalar dataType="xsd:integer" dictRef="g:atomicType">0</scalar><scalar dataType="xsd:integer" dictRef="compchem:atomicNumber">1</scalar></atom></atomArray><formula formalCharge="0" concise="C 6 H 5 Br 1"><atomArray elementType="C H Br" count="6.0 5.0 1.0"/></formula><bondArray><bond atomRefs2="a1 a2" id="a1_a2" order="2"/><bond atomRefs2="a1 a6" id="a1_a6" order="S"/><bond atomRefs2="a1 a7" id="a1_a7" order="S"/><bond atomRefs2="a2 a3" id="a2_a3" order="S"/><bond atomRefs2="a2 a8" id="a2_a8" order="S"/><bond atomRefs2="a3 a4" id="a3_a4" order="2"/><bond atomRefs2="a3 a9" id="a3_a9" order="S"/><bond atomRefs2="a4 a5" id="a4_a5" order="S"/><bond atomRefs2="a4 a10" id="a4_a10" order="S"/><bond atomRefs2="a5 a6" id="a5_a6" order="2"/><bond atomRefs2="a5 a11" id="a5_a11" order="S"/><bond atomRefs2="a6 a12" id="a6_a12" order="S"/></bondArray><property dictRef="cml:molmass"><scalar dataType="xsd:double" units="unit:dalton" xmlns:unit="http://www.xml-cml.org/unit/si/">157.0079</scalar></property></molecule></module><module cmlx:lineCount="25" cmlx:templateRef="l202.distmat"><array dataType="xsd:double" size="75" dictRef="cc:distance">0.0 1.390646 0.0 2.414926 1.391353 0.0 2.769588 2.395498 1.389089 0.0 2.414931 2.786179 2.422204 1.389097 0.0 1.390669 2.40566 2.786214 2.395535 1.391374 0.0 1.083515 2.149517 3.396092 3.853103 3.396087 2.149508 0.0 2.150861 1.083939 2.141852 3.376596 3.870107 3.390311 2.480032 0.0 3.398578 2.155113 1.082174 2.148996 3.400248 3.868369 4.293863 2.474619 0.0 4.683445 4.163037 2.862942 1.913857 2.862941 4.163066 5.766959 5.004669 2.965022 0.0 3.398583 3.86833 3.400242 2.148998 1.08217 2.15512 4.293857 4.952247 4.289716 2.965013 2.150888 3.390305 3.870129 3.376623 2.14187 1.083926 2.480031 4.289583 4.952272 5.004686</array></module><module cmlx:lineCount="6" cmlx:templateRef="l202.stoich"><scalar dataType="xsd:string" dictRef="cc:formula" cmlx:templateRef="stoich">C6H5Br</scalar><scalar dataType="xsd:string" dictRef="cc:frameworkgroup" cmlx:templateRef="framework">C1[X(C6H5Br)]</scalar><scalar dataType="xsd:integer" dictRef="cc:degfreedom" cmlx:templateRef="degfreedom">30</scalar><scalar dataType="xsd:string" dictRef="cc:pointgroup">C1</scalar><scalar dataType="xsd:integer" dictRef="cc:operatorcount">1</scalar><scalar dataType="xsd:string" dictRef="cc:largestabelian">C1</scalar><scalar dataType="xsd:integer" dictRef="cc:operatorcount">1</scalar><scalar dataType="xsd:string" dictRef="cc:largestconciseabelian">C1</scalar><scalar dataType="xsd:integer" dictRef="cc:operatorcount">1</scalar></module><module cmlx:lineCount="18" cmlx:templateRef="l202.orient"><molecule id="a12" cmlx:templateRef="atom"><atomArray><atom id="a1" elementType="C" x3="-2.874963" y3="-1.4E-5" z3="2.28E-4"><scalar dataType="xsd:integer" dictRef="cc:serial">1</scalar><scalar dataType="xsd:integer" dictRef="g:atomicType">0</scalar><scalar dataType="xsd:integer" dictRef="compchem:atomicNumber">6</scalar></atom><atom id="a2" elementType="C" x3="-2.177003" y3="-1.202823" z3="9.5E-5"><scalar dataType="xsd:integer" dictRef="cc:serial">2</scalar><scalar dataType="xsd:integer" dictRef="g:atomicType">0</scalar><scalar dataType="xsd:integer" dictRef="compchem:atomicNumber">6</scalar></atom><atom id="a3" elementType="C" x3="-0.785675" y3="-1.211106" z3="-3.52E-4"><scalar dataType="xsd:integer" dictRef="cc:serial">3</scalar><scalar dataType="xsd:integer" dictRef="g:atomicType">0</scalar><scalar dataType="xsd:integer" dictRef="compchem:atomicNumber">6</scalar></atom><atom id="a4" elementType="C" x3="-0.105375" y3="-7.0E-6" z3="-7.95E-4"><scalar dataType="xsd:integer" dictRef="cc:serial">4</scalar><scalar dataType="xsd:integer" dictRef="g:atomicType">0</scalar><scalar dataType="xsd:integer" dictRef="compchem:atomicNumber">6</scalar></atom><atom id="a5" elementType="C" x3="-0.785681" y3="1.211098" z3="-3.93E-4"><scalar dataType="xsd:integer" dictRef="cc:serial">5</scalar><scalar dataType="xsd:integer" dictRef="g:atomicType">0</scalar><scalar dataType="xsd:integer" dictRef="compchem:atomicNumber">6</scalar></atom><atom id="a6" elementType="C" x3="-2.17703" y3="1.202837" z3="1.56E-4"><scalar dataType="xsd:integer" dictRef="cc:serial">6</scalar><scalar dataType="xsd:integer" dictRef="g:atomicType">0</scalar><scalar dataType="xsd:integer" dictRef="compchem:atomicNumber">6</scalar></atom><atom id="a7" elementType="H" x3="-3.958477" y3="-5.0E-6" z3="0.00138"><scalar dataType="xsd:integer" dictRef="cc:serial">7</scalar><scalar dataType="xsd:integer" dictRef="g:atomicType">0</scalar><scalar dataType="xsd:integer" dictRef="compchem:atomicNumber">1</scalar></atom><atom id="a8" elementType="H" x3="-2.713306" y3="-2.144791" z3="1.16E-4"><scalar dataType="xsd:integer" dictRef="cc:serial">8</scalar><scalar dataType="xsd:integer" dictRef="g:atomicType">0</scalar><scalar dataType="xsd:integer" dictRef="compchem:atomicNumber">1</scalar></atom><atom id="a9" elementType="H" x3="-0.238687" y3="-2.144864" z3="-1.69E-4"><scalar dataType="xsd:integer" dictRef="cc:serial">9</scalar><scalar dataType="xsd:integer" dictRef="g:atomicType">0</scalar><scalar dataType="xsd:integer" dictRef="compchem:atomicNumber">1</scalar></atom><atom id="a10" elementType="Br" x3="1.808482" y3="3.0E-6" z3="1.47E-4"><scalar dataType="xsd:integer" dictRef="cc:serial">10</scalar><scalar dataType="xsd:integer" dictRef="g:atomicType">0</scalar><scalar dataType="xsd:integer" dictRef="compchem:atomicNumber">35</scalar></atom><atom id="a11" elementType="H" x3="-0.238693" y3="2.144852" z3="-2.87E-4"><scalar dataType="xsd:integer" dictRef="cc:serial">11</scalar><scalar dataType="xsd:integer" dictRef="g:atomicType">0</scalar><scalar dataType="xsd:integer" dictRef="compchem:atomicNumber">1</scalar></atom><atom id="a12" elementType="H" x3="-2.713328" y3="2.144792" z3="1.66E-4"><scalar dataType="xsd:integer" dictRef="cc:serial">12</scalar><scalar dataType="xsd:integer" dictRef="g:atomicType">0</scalar><scalar dataType="xsd:integer" dictRef="compchem:atomicNumber">1</scalar></atom></atomArray><formula formalCharge="0" concise="C 6 H 5 Br 1"><atomArray elementType="C H Br" count="6.0 5.0 1.0"/></formula><bondArray><bond atomRefs2="a1 a2" id="a1_a2" order="2"/><bond atomRefs2="a1 a6" id="a1_a6" order="S"/><bond atomRefs2="a1 a7" id="a1_a7" order="S"/><bond atomRefs2="a2 a3" id="a2_a3" order="S"/><bond atomRefs2="a2 a8" id="a2_a8" order="S"/><bond atomRefs2="a3 a4" id="a3_a4" order="2"/><bond atomRefs2="a3 a9" id="a3_a9" order="S"/><bond atomRefs2="a4 a5" id="a4_a5" order="S"/><bond atomRefs2="a4 a10" id="a4_a10" order="S"/><bond atomRefs2="a5 a6" id="a5_a6" order="2"/><bond atomRefs2="a5 a11" id="a5_a11" order="S"/><bond atomRefs2="a6 a12" id="a6_a12" order="S"/></bondArray><property dictRef="cml:molmass"><scalar dataType="xsd:double" units="unit:dalton" xmlns:unit="http://www.xml-cml.org/unit/si/">157.0079</scalar></property></molecule></module><module cmlx:lineCount="1" cmlx:templateRef="l202.rotconst"><array dataType="xsd:double" size="3" dictRef="cc:rotconst" cmlx:templateRef="rotconst">5.7123863 0.9862398 0.8410356</array></module><scalar dataType="xsd:integer" dictRef="g:buffer" cmlx:templateRef="buffer">131072</scalar><scalar dataType="xsd:string" dictRef="g:raffenetti" cmlx:templateRef="raff">Raffenetti</scalar><scalar dataType="xsd:string" dictRef="g:twoe" cmlx:templateRef="twoe">Two-electron</scalar><module cmlx:lineCount="12" cmlx:templateRef="l301.basis"><scalar dataType="xsd:string" dictRef="cc:basis">6-311+G(d,p)</scalar><scalar dataType="xsd:string" dictRef="cc:diffuse">(5D, 7F)</scalar><list cmlx:lineCount="1" cmlx:templateRef="symmadapt"><array dataType="xsd:integer" dictRef="cc:adapted" size="1">210</array><array dataType="xsd:string" dictRef="cc:symm" size="1">A</array></list><scalar dataType="xsd:integer" dictRef="cc:basiscount">210</scalar><scalar dataType="xsd:integer" dictRef="g:primbasis">350</scalar><scalar dataType="xsd:integer" dictRef="cc:cartesianbasis">219</scalar><scalar dataType="xsd:integer" dictRef="cc:alphae">38</scalar><scalar dataType="xsd:integer" dictRef="cc:betae">38</scalar> IExCor= 402 DFT=T Ex=B+HF Corr=LYP ExCW=0 ScaHFX=  0.200000 ScaDFX=  0.800000  0.720000  1.000000  0.810000 IRadAn=      0 IRanWt=     -1 IRanGd=            0 ICorTp=0 NAtoms=   12 NActive=   12 NUniq=   12 SFac= 1.00D+00 NAtFMM=   60 Big=F</module> NPDir=0 NMtPBC=     1 NCelOv=     1 NCel=       1 NClECP=     1 NCelD=      1         NCelK=      1 NCelE2=     1 NClLst=     1 CellRange=     0.0.<module cmlx:lineCount="1" cmlx:templateRef="l302.basis"><list cmlx:templateRef="onee"><scalar dataType="xsd:string" dictRef="g:onee">One-electron integrals</scalar></list></module> NBasis=   210 RedAO= T  NBF=   210 NBsUse=   210 1.00D-06 NBFU=   210 Precomputing XC quadrature grid using IXCGrd= 2 IRadAn=           0 IRanWt=          -1 IRanGd=           0. NRdTot=     771 NPtTot=      101480 NUsed=      106926 NTot=      106958 NSgBfM=   219   219   219   219.<module cmlx:lineCount="1" cmlx:templateRef="l303.basis"><list cmlx:templateRef="l303"><scalar dataType="xsd:integer" dictRef="g:dipdrv">1</scalar></list></module> Harris functional with IExCor=  402 diagonalized for initial guess. ExpMin= 3.50D-02 ExpMax= 4.40D+05 ExpMxC= 1.51D+04 IAcc=3 IRadAn=         5 AccDes= 0.00D+00 HarFok:  IExCor= 402 AccDes= 0.00D+00 IRadAn=         5 IDoV=1 ScaDFX=  1.000000  1.000000  1.000000  1.000000 Harris En= -2805.97288446322     Initial guess orbital symmetries:       Occupied  (A) (A) (A) (A) (A) (A) (A) (A) (A) (A) (A) (A)                 (A) (A) (A) (A) (A) (A) (A) (A) (A) (A) (A) (A)                 (A) (A) (A) (A) (A) (A) (A) (A) (A) (A) (A) (A)                 (A) (A)       Virtual   (A) (A) (A) (A) (A) (A) (A) (A) (A) (A) (A) (A)                 (A) (A) (A) (A) (A) (A) (A) (A) (A) (A) (A) (A)                 (A) (A) (A) (A) (A) (A) (A) (A) (A) (A) (A) (A)                 (A) (A) (A) (A) (A) (A) (A) (A) (A) (A) (A) (A)                 (A) (A) (A) (A) (A) (A) (A) (A) (A) (A) (A) (A)                 (A) (A) (A) (A) (A) (A) (A) (A) (A) (A) (A) (A)                 (A) (A) (A) (A) (A) (A) (A) (A) (A) (A) (A) (A)                 (A) (A) (A) (A) (A) (A) (A) (A) (A) (A) (A) (A)                 (A) (A) (A) (A) (A) (A) (A) (A) (A) (A) (A) (A)                 (A) (A) (A) (A) (A) (A) (A) (A) (A) (A) (A) (A)                 (A) (A) (A) (A) (A) (A) (A) (A) (A) (A) (A) (A)                 (A) (A) (A) (A) (A) (A) (A) (A) (A) (A) (A) (A)                 (A) (A) (A) (A) (A) (A) (A) (A) (A) (A) (A) (A)                 (A) (A) (A) (A) (A) (A) (A) (A) (A) (A) (A) (A)                 (A) (A) (A) (A) The electronic state of the initial guess is 1-A.<module cmlx:lineCount="207" cmlx:templateRef="l502"><list cmlx:templateRef="l502.type"><scalar dataType="xsd:string" dictRef="g:l502.type">Closed</scalar></list> Requested convergence on RMS density matrix=1.00D-08 within 128 cycles. Requested convergence on MAX density matrix=1.00D-06. Requested convergence on             energy=1.00D-06. No special actions if energy rises. Using DIIS extrapolation, IDIIS=  1040. Integral symmetry usage will be decided dynamically.       106925 words used for storage of precomputed grid. IEnd=    294505 IEndB=    294505 NGot=   6291456 MDV=   6061772 LenX=   6061772 Fock matrices will be formed incrementally for  20 cycles.<module cmlx:lineCount="190" cmlx:templateRef="l502.cycle"><list cmlx:templateRef="cycle"><list><scalar dataType="xsd:integer" dictRef="cc:cycle">1</scalar><scalar dataType="xsd:integer" dictRef="g:pass">1</scalar><scalar dataType="xsd:integer" dictRef="g:idiag">1</scalar></list></list><module cmlx:lineCount="1" cmlx:templateRef="l502.e"><list cmlx:templateRef="l502.e"><scalar dataType="xsd:double" dictRef="g:l502.e">-2805.60615994374</scalar></list></module> Cycle   2  Pass 1  IDiag  1:<module cmlx:lineCount="1" cmlx:templateRef="l502.ediff"><list cmlx:templateRef="l502.ediff"><list><scalar dataType="xsd:double" dictRef="g:l502.e">-2805.40415787795</scalar><scalar dataType="xsd:double" dictRef="g:l502.deltae">0.20200206579</scalar></list></list></module> Cycle   3  Pass 1  IDiag  1:<module cmlx:lineCount="1" cmlx:templateRef="l502.ediff"><list cmlx:templateRef="l502.ediff"><list><scalar dataType="xsd:double" dictRef="g:l502.e">-2805.84938787048</scalar><scalar dataType="xsd:double" dictRef="g:l502.deltae">-0.445229992539</scalar></list></list></module> Cycle   4  Pass 1  IDiag  1:<module cmlx:lineCount="1" cmlx:templateRef="l502.ediff"><list cmlx:templateRef="l502.ediff"><list><scalar dataType="xsd:double" dictRef="g:l502.e">-2805.85326272693</scalar><scalar dataType="xsd:double" dictRef="g:l502.deltae">-0.003874856441</scalar></list></list></module> Cycle   5  Pass 1  IDiag  1:<module cmlx:lineCount="1" cmlx:templateRef="l502.ediff"><list cmlx:templateRef="l502.ediff"><list><scalar dataType="xsd:double" dictRef="g:l502.e">-2805.85370317364</scalar><scalar dataType="xsd:double" dictRef="g:l502.deltae">-4.40446712E-4</scalar></list></list></module> Cycle   6  Pass 1  IDiag  1:<module cmlx:lineCount="1" cmlx:templateRef="l502.ediff"><list cmlx:templateRef="l502.ediff"><list><scalar dataType="xsd:double" dictRef="g:l502.e">-2805.85381742838</scalar><scalar dataType="xsd:double" dictRef="g:l502.deltae">-1.14254743E-4</scalar></list></list></module> Cycle   7  Pass 1  IDiag  1:                    CP:  8.60D-01<module cmlx:lineCount="1" cmlx:templateRef="l502.ediff"><list cmlx:templateRef="l502.ediff"><list><scalar dataType="xsd:double" dictRef="g:l502.e">-2805.85382177082</scalar><scalar dataType="xsd:double" dictRef="g:l502.deltae">-4.342442E-6</scalar></list></list></module> Cycle   8  Pass 1  IDiag  1:                    CP:  8.74D-01  8.60D-01<module cmlx:lineCount="1" cmlx:templateRef="l502.ediff"><list cmlx:templateRef="l502.ediff"><list><scalar dataType="xsd:double" dictRef="g:l502.e">-2805.85382238584</scalar><scalar dataType="xsd:double" dictRef="g:l502.deltae">-6.15015E-7</scalar></list></list></module> Cycle   9  Pass 1  IDiag  1:                    CP:  8.81D-01  8.92D-01  7.05D-01<module cmlx:lineCount="1" cmlx:templateRef="l502.ediff"><list cmlx:templateRef="l502.ediff"><list><scalar dataType="xsd:double" dictRef="g:l502.e">-2805.85382246678</scalar><scalar dataType="xsd:double" dictRef="g:l502.deltae">-8.0947E-8</scalar></list></list></module> Cycle  10  Pass 1  IDiag  1:                    CP:  8.85D-01  8.84D-01  6.86D-01  1.15D+00<module cmlx:lineCount="1" cmlx:templateRef="l502.ediff"><list cmlx:templateRef="l502.ediff"><list><scalar dataType="xsd:double" dictRef="g:l502.e">-2805.85382246789</scalar><scalar dataType="xsd:double" dictRef="g:l502.deltae">-1.11E-9</scalar></list></list></module> Cycle  11  Pass 1  IDiag  1:                    CP:  8.85D-01  8.88D-01  6.89D-01  1.18D+00  8.93D-01<module cmlx:lineCount="1" cmlx:templateRef="l502.ediff"><list cmlx:templateRef="l502.ediff"><list><scalar dataType="xsd:double" dictRef="g:l502.e">-2805.85382246807</scalar><scalar dataType="xsd:double" dictRef="g:l502.deltae">-1.72E-10</scalar></list></list></module> Cycle  12  Pass 1  IDiag  1:                    CP:  8.86D-01  8.89D-01  6.93D-01  1.19D+00  9.75D-01                    CP:  9.85D-01<module cmlx:lineCount="1" cmlx:templateRef="l502.ediff"><list cmlx:templateRef="l502.ediff"><list><scalar dataType="xsd:double" dictRef="g:l502.e">-2805.85382246811</scalar><scalar dataType="xsd:double" dictRef="g:l502.deltae">-4.6E-11</scalar></list></list></module> Cycle  13  Pass 1  IDiag  1:                    CP:  8.86D-01  8.90D-01  6.93D-01  1.19D+00  9.93D-01                    CP:  1.00D+00  9.56D-01<module cmlx:lineCount="1" cmlx:templateRef="l502.ediff"><list cmlx:templateRef="l502.ediff"><list><scalar dataType="xsd:double" dictRef="g:l502.e">-2805.85382246811</scalar><scalar dataType="xsd:double" dictRef="g:l502.deltae">-1.0E-12</scalar></list></list></module> RMSDP=3.73D-09 MaxDP=1.92D-07 DE=-9.09D-13 OVMax= 7.31D-08</module><module cmlx:lineCount="4" cmlx:templateRef="l502.footer"><list cmlx:templateRef="l502"><scalar dataType="xsd:string" dictRef="g:l502">SCF Done:  E(RB+HF-LYP) =  -2805.85382247     A.U. after   13 cycles</scalar><scalar dataType="xsd:string" dictRef="g:l502">Convg  =    0.3726D-08             -V/T =  2.0015</scalar><scalar dataType="xsd:string" dictRef="g:l502">S**2   =   0.0000</scalar><scalar dataType="xsd:string" dictRef="g:l502">KE= 2.801757945460D+03 PE=-7.551275841150D+03 EE= 1.513060713846D+03</scalar></list></module></module> Copying SCF densities to generalized density rwf, ISCF=0 IROHF=0.<module cmlx:lineCount="147" cmlx:templateRef="l601.popanal"> Orbital symmetries:<module cmlx:lineCount="4" cmlx:templateRef="l4601.occupied"><list cmlx:templateRef="occ"><scalar dataType="xsd:string" dictRef="g:occorbs">(A) (A) (A) (A) (A) (A) (A) (A) (A) (A) (A) (A)</scalar></list><list cmlx:templateRef="occ"><scalar dataType="xsd:string" dictRef="g:occorbs">(A) (A) (A) (A) (A) (A) (A) (A) (A) (A) (A) (A)</scalar><scalar dataType="xsd:string" dictRef="g:occorbs">(A) (A) (A) (A) (A) (A) (A) (A) (A) (A) (A) (A)</scalar><scalar dataType="xsd:string" dictRef="g:occorbs">(A) (A)</scalar></list></module><module cmlx:lineCount="15" cmlx:templateRef="l4601.virtual"><list cmlx:templateRef="virt"><scalar dataType="xsd:string" dictRef="g:virtorbs">(A) (A) (A) (A) (A) (A) (A) (A) (A) (A) (A) (A)</scalar></list><list cmlx:templateRef="virt"><scalar dataType="xsd:string" dictRef="g:virtorbs">(A) (A) (A) (A) (A) (A) (A) (A) (A) (A) (A) (A)</scalar><scalar dataType="xsd:string" dictRef="g:virtorbs">(A) (A) (A) (A) (A) (A) (A) (A) (A) (A) (A) (A)</scalar><scalar dataType="xsd:string" dictRef="g:virtorbs">(A) (A) (A) (A) (A) (A) (A) (A) (A) (A) (A) (A)</scalar><scalar dataType="xsd:string" dictRef="g:virtorbs">(A) (A) (A) (A) (A) (A) (A) (A) (A) (A) (A) (A)</scalar><scalar dataType="xsd:string" dictRef="g:virtorbs">(A) (A) (A) (A) (A) (A) (A) (A) (A) (A) (A) (A)</scalar><scalar dataType="xsd:string" dictRef="g:virtorbs">(A) (A) (A) (A) (A) (A) (A) (A) (A) (A) (A) (A)</scalar><scalar dataType="xsd:string" dictRef="g:virtorbs">(A) (A) (A) (A) (A) (A) (A) (A) (A) (A) (A) (A)</scalar><scalar dataType="xsd:string" dictRef="g:virtorbs">(A) (A) (A) (A) (A) (A) (A) (A) (A) (A) (A) (A)</scalar><scalar dataType="xsd:string" dictRef="g:virtorbs">(A) (A) (A) (A) (A) (A) (A) (A) (A) (A) (A) (A)</scalar><scalar dataType="xsd:string" dictRef="g:virtorbs">(A) (A) (A) (A) (A) (A) (A) (A) (A) (A) (A) (A)</scalar><scalar dataType="xsd:string" dictRef="g:virtorbs">(A) (A) (A) (A) (A) (A) (A) (A) (A) (A) (A) (A)</scalar><scalar dataType="xsd:string" dictRef="g:virtorbs">(A) (A) (A) (A) (A) (A) (A) (A) (A) (A) (A) (A)</scalar><scalar dataType="xsd:string" dictRef="g:virtorbs">(A) (A) (A) (A) (A) (A) (A) (A) (A) (A) (A) (A)</scalar><scalar dataType="xsd:string" dictRef="g:virtorbs">(A) (A) (A) (A)</scalar></list></module><module cmlx:lineCount="1" cmlx:templateRef="l601.state"><scalar dataType="xsd:string" dictRef="g:l601.state">1-A.</scalar></module><array dataType="xsd:double" size="38" dictRef="g:alphaocc">-482.83228 -62.48518 -56.30551 -56.30167 -56.30155 -10.23923 -10.19462 -10.1946 -10.19293 -10.19289 -10.18958 -8.69489 -6.52625 -6.51342 -6.51317 -2.6372 -2.63351 -2.63335 -2.62315 -2.62314 -0.88689 -0.81391 -0.76981 -0.73656 -0.62903 -0.61026 -0.53514 -0.478 -0.47211 -0.44457 -0.42967 -0.3993 -0.37024 -0.36349 -0.32266 -0.2958 -0.27555 -0.25411</array><array dataType="xsd:double" size="172" dictRef="g:alphavirt">-0.03154 -0.03106 -0.01893 0.00124 0.01826 0.01915 0.04448 0.04545 0.0459 0.05324 0.07221 0.07286 0.07954 0.08381 0.09994 0.11311 0.1179 0.12145 0.1316 0.13355 0.13818 0.1521 0.15536 0.16334 0.17568 0.18356 0.18926 0.19188 0.19342 0.20192 0.21203 0.22525 0.23188 0.23862 0.24015 0.25434 0.27397 0.29415 0.30532 0.31143 0.3158 0.39292 0.41911 0.42464 0.44485 0.48558 0.50821 0.51921 0.52678 0.52918 0.53013 0.53992 0.56096 0.5823 0.59071 0.5916 0.59892 0.59912 0.6353 0.64925 0.6728 0.67741 0.70666 0.70815 0.71666 0.72807 0.73557 0.77333 0.81454 0.81578 0.81986 0.82098 0.84827 0.8509 0.86559 0.89996 0.96634 0.97501 0.98933 0.99394 1.06058 1.06353 1.09124 1.09709 1.12336 1.2556 1.29033 1.33503 1.46331 1.48703 1.49986 1.52913 1.55609 1.55641 1.60595 1.63603 1.63807 1.66875 1.71168 1.72642 1.7604 1.80392 1.84354 1.9107 1.91169 1.92173 1.93108 1.93888 1.9619 1.9837 2.01332 2.01911 2.02929 2.06852 2.1216 2.24789 2.27721 2.33101 2.33495 2.36244 2.38123 2.39037 2.49696 2.60822 2.63941 2.64356 2.66966 2.69665 2.72795 2.73796 2.74219 2.77076 2.77488 2.77696 2.83635 2.86777 2.87331 2.91893 3.06548 3.1075 3.11578 3.32773 3.34685 3.47328 3.48596 3.6244 3.74273 3.96895 4.03114 4.10944 4.12932 4.13907 4.1897 4.21623 4.37159 4.57144 4.83257 6.72344 7.55322 7.67277 7.72671 23.51492 23.91148 23.95454 24.06745 24.08809 24.18924 47.98561 289.75101 289.87236 289.94954102 0.78807</array><module cmlx:lineCount="43" cmlx:templateRef="l601.alphabetaeigen"/><module cmlx:lineCount="26" cmlx:templateRef="l601.condensed"><array dataType="xsd:double" size="12" dictRef="x:floatArr">5.114113 0.399647 0.176186 -0.399922 0.176152 0.399635 0.354209 -0.017193 -0.008582 0.059699 -0.008581 -0.017197</array><array dataType="xsd:double" size="12" dictRef="x:floatArr">0.399647 5.302533 0.218312 0.068637 -0.501588 0.089687 0.01882 0.409972 0.014729 0.004751 0.009314 4.23E-4</array><array dataType="xsd:double" size="12" dictRef="x:floatArr">0.176186 0.218312 6.088119 0.083925 -0.039279 -0.501558 -0.031027 -0.046702 0.363989 0.13792 -0.017123 -0.006337</array><array dataType="xsd:double" size="12" dictRef="x:floatArr">-0.399922 0.068637 0.083925 5.664143 0.083953 0.068641 0.02238 0.010602 -0.009339 -0.203455 -0.009341 0.0106</array><array dataType="xsd:double" size="12" dictRef="x:floatArr">0.176152 -0.501588 -0.039279 0.083953 6.088061 0.218373 -0.031024 -0.006335 -0.017118 0.13792 0.363995 -0.0467</array><array dataType="xsd:double" size="12" dictRef="x:floatArr">0.399635 0.089687 -0.501558 0.068641 0.218373 5.30247 0.018812 4.21E-4 0.009312 0.004751 0.014727 0.409977</array><array dataType="xsd:double" size="12" dictRef="x:floatArr">0.354209 0.01882 -0.031027 0.02238 -0.031024 0.018812 0.533788 -0.007816 -2.05E-4 -3.28E-4 -2.05E-4 -0.007816</array><array dataType="xsd:double" size="12" dictRef="x:floatArr">-0.017193 0.409972 -0.046702 0.010602 -0.006335 4.21E-4 -0.007816 0.530859 -0.007755 -3.5E-5 5.9E-5 -2.94E-4</array><array dataType="xsd:double" size="12" dictRef="x:floatArr">-0.008582 0.014729 0.363989 -0.009339 -0.017118 0.009312 -2.05E-4 -0.007755 0.517926 -0.007438 -1.48E-4 5.9E-5</array><array dataType="xsd:double" size="12" dictRef="x:floatArr">0.059699 0.004751 0.13792 -0.203455 0.13792 0.004751 -3.28E-4 -3.5E-5 -0.007438 35.019366 -0.007437 -3.4E-5</array><array dataType="xsd:double" size="12" dictRef="x:floatArr">-0.008581 0.009314 -0.017123 -0.009341 0.363995 0.014727 -2.05E-4 5.9E-5 -1.48E-4 -0.007437 0.517925 -0.007754</array><array dataType="xsd:double" size="6" dictRef="x:floatArr" cmlx:idx="12">-0.017197 4.23E-4 -0.006337 0.0106 -0.0467 0.409977</array></module><list cmlx:templateRef="popanal"><scalar dataType="xsd:string" dictRef="x:popanal">12  H   -0.007816  -0.000294   0.000059  -0.000034  -0.007754   0.530852</scalar></list><module cmlx:lineCount="32" cmlx:templateRef="mulliken"><module cmlx:lineCount="15" cmlx:templateRef="l601.mullik"><scalar dataType="xsd:string" dictRef="g:title">Mulliken atomic charges:</scalar><scalar dataType="xsd:integer" dictRef="cc:serial">1</scalar><list cmlx:lineCount="12" cmlx:templateRef="row"><array dataType="xsd:integer" dictRef="cc:serial" size="12">1 2 3 4 5 6 7 8 9 10 11 12</array><array dataType="xsd:string" dictRef="cc:elementType" size="12">C C C C C C H H H Br H H</array><array dataType="xsd:double" dictRef="x:charge" size="12">-0.228165 -0.035235 -0.426425 0.609176 -0.426409 -0.035248 0.130412 0.134217 0.144569 -0.14568 0.144569 0.13422</array></list><scalar dataType="xsd:string" dictRef="x:type">Mulliken</scalar><scalar dataType="xsd:double" dictRef="x:charge.sum">0.0</scalar></module><module cmlx:lineCount="15" cmlx:templateRef="l601.mullik"><scalar dataType="xsd:string" dictRef="g:title">Atomic charges with hydrogens summed into heavy atoms:</scalar><scalar dataType="xsd:integer" dictRef="cc:serial">1</scalar><list cmlx:lineCount="12" cmlx:templateRef="row"><array dataType="xsd:integer" dictRef="cc:serial" size="12">1 2 3 4 5 6 7 8 9 10 11 12</array><array dataType="xsd:string" dictRef="cc:elementType" size="12">C C C C C C H H H Br H H</array><array dataType="xsd:double" dictRef="x:charge" size="12">-0.097754 0.098982 -0.281856 0.609176 -0.28184 0.098972 0.0 0.0 0.0 -0.14568 0.0 0.0</array></list><scalar dataType="xsd:string" dictRef="x:type">Mulliken</scalar><scalar dataType="xsd:double" dictRef="x:charge.sum">0.0</scalar></module><scalar dataType="xsd:double" dictRef="g:electextent2">1230.9838</scalar> Charge=     0.0000 electrons</module><module cmlx:lineCount="18" cmlx:templateRef="multipole"><array dataType="xsd:double" size="3" dictRef="cc:dipole">-1.8464 0.0 0.0011</array><scalar dataType="xsd:double" dictRef="x:dipole">1.8464</scalar><array dataType="xsd:double" size="3" dictRef="cc:quadrupole">-49.4433 -48.5683 -57.7484</array><array dataType="xsd:double" size="3" dictRef="cc:quadrupole">-2.0E-4 -0.0028 -2.0E-4</array><array dataType="xsd:double" size="6" dictRef="cc:quadrupole">2.4767 3.3517 -5.8284 -2.0E-4 -0.0028 -2.0E-4</array><array dataType="xsd:double" size="10" dictRef="cc:octapole">43.6972 2.0E-4 0.0077 11.8113 7.0E-4 0.0246 25.3761 0.0 0.0028 -1.0E-4</array><array dataType="xsd:double" size="15" dictRef="cc:hexadecapole">-1034.2249 -288.0832 -70.7032 -0.0019 -0.049 -9.0E-4 -0.0011 0.0076 -2.0E-4 -227.6182 -221.628 -71.5321 4.0E-4 0.0010 1.0E-4</array></module></module><module cmlx:lineCount="2" cmlx:templateRef="l601.nonmr"> Leave Link  601 at Sat Sep  2 09:37:58 2006, MaxMem=    6291456 cpu:       1.3</module><module cmlx:lineCount="1" cmlx:templateRef="l701"/> ... and contract with generalized density number  0.<module cmlx:lineCount="1" cmlx:templateRef="l702"/><module cmlx:lineCount="1" cmlx:templateRef="l701"/> Integral derivatives from FoFDir, PRISM(SPDF). Symmetry not used in FoFDir. MinBra= 0 MaxBra= 2 Meth= 1. IRaf=       0 NMat=   1 IRICut=       1 DoRegI=T DoRafI=F ISym2E= 0 JSym2E=0.<module cmlx:lineCount="2" cmlx:templateRef="l716.dipole"><array dataType="xsd:double" size="3" dictRef="x:d" cmlx:templateRef="dipole">-0.726434533 3.44971324E-6 4.19085459E-4</array> ***** Axes restored to original set *****</module> ------------------------------------------------------------------- Center     Atomic                   Forces (Hartrees/Bohr) Number     Number              X              Y              Z -------------------------------------------------------------------    1          6          -0.002417701    0.000073038   -0.001425793    2          6          -0.002343439   -0.000035701    0.001328484    3          6           0.000226370   -0.000017598    0.002852387    4          6           0.000309234    0.000085259    0.000172374    5          6           0.002574649   -0.000011163   -0.001225971    6          6          -0.000006113   -0.000048978   -0.002656320    7          1          -0.000154556   -0.000041067   -0.000086554    8          1          -0.000150021    0.000018473    0.000091217    9          1          -0.000062905   -0.000010166    0.000217147   10         35           0.001860150   -0.000024679    0.001079557   11          1           0.000159935   -0.000008188   -0.000163013   12          1           0.000004397    0.000020772   -0.000183514 ------------------------------------------------------------------- Cartesian Forces:  Max     0.002852387 RMS     0.001098990<module cmlx:lineCount="86" cmlx:templateRef="l103"><list cmlx:templateRef="berny"><scalar dataType="xsd:string" dictRef="g:optimization">Internal  Forces:  Max     0.002935962 RMS     0.001009048</scalar></list> Search for a local minimum. Step number   1 out of a maximum of  64 All quantities printed in internal units (Hartrees-Bohrs-Radians) Second derivative matrix not updated -- first step.     Eigenvalues ---    0.02207   0.02207   0.02210   0.02211   0.02212     Eigenvalues ---    0.02217   0.02220   0.02228   0.02233   0.16000     Eigenvalues ---    0.16000   0.16000   0.16000   0.16000   0.17590     Eigenvalues ---    0.22000   0.22000   0.23498   0.25000   0.35523     Eigenvalues ---    0.35524   0.35573   0.35733   0.35733   0.42709     Eigenvalues ---    0.42968   0.47082   0.47179   0.47343   0.47422     Eigenvalues --- 1000.000001000.000001000.000001000.000001000.00000     Eigenvalues --- 1000.000001000.000001000.000001000.000001000.00000     Eigenvalues --- 1000.000001000.000001000.000001000.000001000.00000     Eigenvalues --- 1000.000001000.000001000.000001000.000001000.00000     Eigenvalues --- 1000.000001000.000001000.000001000.00000<module cmlx:lineCount="5" cmlx:templateRef="rfo"><list cmlx:templateRef="rfo"><scalar dataType="xsd:double" dictRef="g:lambda">-1.33324393E-4</scalar></list><list cmlx:templateRef="nolinear"><scalar dataType="xsd:string" dictRef="g:linear">Linear search</scalar></list><list cmlx:lineCount="3" cmlx:templateRef="iteration"><array dataType="xsd:integer" dictRef="cc:serial" size="3">1 2 3</array><array dataType="xsd:double" dictRef="g:rmscart" size="3">0.00376687 1.02E-6 0.0</array><array dataType="xsd:double" dictRef="g:rmsint" size="3">1.1E-6 1.1E-7 1.1E-7</array></list></module><module cmlx:lineCount="56" cmlx:templateRef="l103.deltas"><list cmlx:lineCount="54" cmlx:templateRef="delta"><array dataType="xsd:string" dictRef="cc:variable" size="54">R1 R2 R3 R4 R5 R6 R7 R8 R9 R10 R11 R12 A1 A2 A3 A4 A5 A6 A7 A8 A9 A10 A11 A12 A13 A14 A15 A16 A17 A18 D1 D2 D3 D4 D5 D6 D7 D8 D9 D10 D11 D12 D13 D14 D15 D16 D17 D18 D19 D20 D21 D22 D23 D24</array><array dataType="xsd:double" dictRef="g:lastval" size="54">2.62794 2.62798 2.04755 2.62928 2.04835 2.625 2.04501 2.62501 3.61667 2.62932 2.04501 2.04832 2.09005 2.09659 2.09655 2.10254 2.09823 2.08242 2.07664 2.10666 2.09989 2.118 2.0826 2.08259 2.07666 2.09988 2.10664 2.10249 2.09826 2.08243 -2.0E-4 -3.14156 -3.14074 0.0011 2.9E-4 3.14149 3.14082 -0.00116 -1.1E-4 3.14128 3.14125 -5.5E-4 3.4E-4 3.14066 -3.14105 -7.3E-4 -2.6E-4 3.1411 -3.14057 7.8E-4 -6.0E-5 -3.14127 -3.14142 5.6E-4</array><array dataType="xsd:double" dictRef="cc:deriv" size="54">0.00293 0.00292 1.8E-4 0.00294 1.8E-4 0.00282 2.2E-4 0.00281 0.00215 0.00292 2.2E-4 1.8E-4 -3.0E-5 1.0E-5 2.0E-5 1.0E-5 0.0 -1.0E-5 -7.0E-5 -3.0E-5 1.0E-4 1.4E-4 -7.0E-5 -7.0E-5 -7.0E-5 1.0E-4 -3.0E-5 3.0E-5 -1.0E-5 -2.0E-5 1.0E-5 1.0E-5 -2.0E-5 -2.0E-5 -1.0E-5 0.0 1.0E-5 2.0E-5 0.0 1.0E-5 1.0E-5 1.0E-5 -1.0E-5 2.0E-5 -2.0E-5 2.0E-5 1.0E-5 2.0E-5 -2.0E-5 -2.0E-5 0.0 -1.0E-5 0.0 -1.0E-5</array><array dataType="xsd:double" dictRef="cc:delta.linear" size="54">0.0 0.0 0.0 0.0 0.0 0.0 0.0 0.0 0.0 0.0 0.0 0.0 0.0 0.0 0.0 0.0 0.0 0.0 0.0 0.0 0.0 0.0 0.0 0.0 0.0 0.0 0.0 0.0 0.0 0.0 0.0 0.0 0.0 0.0 0.0 0.0 0.0 0.0 0.0 0.0 0.0 0.0 0.0 0.0 0.0 0.0 0.0 0.0 0.0 0.0 0.0 0.0 0.0 0.0</array><array dataType="xsd:double" dictRef="cc:delta.quad" size="54">0.00621 0.00618 5.0E-4 0.00624 4.9E-4 0.00593 6.1E-4 0.00591 0.01222 0.0062 6.1E-4 5.2E-4 -1.0E-4 3.0E-5 7.0E-5 1.0E-4 -3.0E-5 -7.0E-5 -3.3E-4 -2.4E-4 5.7E-4 5.4E-4 -2.7E-4 -2.7E-4 -3.4E-4 5.7E-4 -2.3E-4 1.4E-4 -5.0E-5 -9.0E-5 3.8E-4 2.3E-4 -7.5E-4 -9.0E-4 -4.9E-4 -1.4E-4 6.4E-4 9.8E-4 1.6E-4 3.4E-4 3.1E-4 4.9E-4 -6.1E-4 9.9E-4 -7.9E-4 8.1E-4 5.0E-4 7.6E-4 -0.00109 -8.4E-4 5.0E-5 -2.9E-4 -2.0E-4 -5.4E-4</array><array dataType="xsd:double" dictRef="cc:delta.total" size="54">0.00621 0.00618 5.0E-4 0.00624 4.9E-4 0.00593 6.1E-4 0.00591 0.01222 0.0062 6.1E-4 5.2E-4 -1.0E-4 3.0E-5 7.0E-5 1.0E-4 -3.0E-5 -7.0E-5 -3.3E-4 -2.4E-4 5.7E-4 5.4E-4 -2.7E-4 -2.7E-4 -3.4E-4 5.7E-4 -2.3E-4 1.4E-4 -5.0E-5 -9.0E-5 3.8E-4 2.2E-4 -7.5E-4 -9.0E-4 -4.9E-4 -1.4E-4 6.4E-4 9.8E-4 1.6E-4 3.4E-4 3.1E-4 4.9E-4 -6.1E-4 9.9E-4 -7.9E-4 8.1E-4 5.0E-4 7.6E-4 -0.00109 -8.4E-4 5.0E-5 -2.9E-4 -2.0E-4 -5.4E-4</array><array dataType="xsd:double" dictRef="cc:newval" size="54">2.63416 2.63417 2.04804 2.63551 2.04884 2.63093 2.04562 2.63093 3.62888 2.63551 2.04562 2.04884 2.08994 2.09663 2.09661 2.10264 2.0982 2.08235 2.07631 2.10641 2.10046 2.11853 2.08233 2.08232 2.07632 2.10046 2.10641 2.10263 2.09821 2.08235 1.8E-4 -3.14133 -3.14148 1.9E-4 -2.0E-4 3.14135 3.14146 -1.8E-4 5.0E-5 -3.14156 3.14156 -5.0E-5 -2.7E-4 -3.14154 3.14135 7.0E-5 2.5E-4 -3.14133 3.14152 -6.0E-5 -1.0E-5 -3.14156 3.14157 2.0E-5</array></list></module><module cmlx:lineCount="5" cmlx:templateRef="l103.itemconverge"><list cmlx:lineCount="4" cmlx:templateRef="row"><array dataType="xsd:string" dictRef="g:item"/><array dataType="xsd:double" dictRef="g:value" size="4">4.5E-4 3.0E-4 0.0018 0.0012</array><array dataType="xsd:double" dictRef="g:threshold" size="4">0.0 0.0 0.0 0.0</array><array dataType="xsd:string" dictRef="g:converged" size="4">NO NO NO NO</array></list></module><module cmlx:lineCount="1" cmlx:templateRef="preddelta"><list cmlx:templateRef="predicted"><scalar dataType="xsd:double" dictRef="g:predchange">-6.668793E-5</scalar></list></module> GradGradGradGradGradGradGradGradGradGradGradGradGradGradGradGradGradGrad</module><module cmlx:lineCount="18" cmlx:templateRef="l202.orient"><molecule id="a12" cmlx:templateRef="atom"><atomArray><atom id="a1" elementType="C" x3="-0.003237" y3="1.98E-4" z3="-0.001885"><scalar dataType="xsd:integer" dictRef="cc:serial">1</scalar><scalar dataType="xsd:integer" dictRef="g:atomicType">0</scalar><scalar dataType="xsd:integer" dictRef="compchem:atomicNumber">6</scalar></atom><atom id="a2" elementType="C" x3="-0.003183" y3="9.2E-5" z3="1.39205"><scalar dataType="xsd:integer" dictRef="cc:serial">2</scalar><scalar dataType="xsd:integer" dictRef="g:atomicType">0</scalar><scalar dataType="xsd:integer" dictRef="compchem:atomicNumber">6</scalar></atom><atom id="a3" elementType="C" x3="1.198861" y3="2.5E-4" z3="2.099261"><scalar dataType="xsd:integer" dictRef="cc:serial">3</scalar><scalar dataType="xsd:integer" dictRef="g:atomicType">0</scalar><scalar dataType="xsd:integer" dictRef="compchem:atomicNumber">6</scalar></atom><atom id="a4" elementType="C" x3="2.397629" y3="5.81E-4" z3="1.391269"><scalar dataType="xsd:integer" dictRef="cc:serial">4</scalar><scalar dataType="xsd:integer" dictRef="g:atomicType">0</scalar><scalar dataType="xsd:integer" dictRef="compchem:atomicNumber">6</scalar></atom><atom id="a5" elementType="C" x3="2.417477" y3="4.36E-4" z3="-8.16E-4"><scalar dataType="xsd:integer" dictRef="cc:serial">5</scalar><scalar dataType="xsd:integer" dictRef="g:atomicType">0</scalar><scalar dataType="xsd:integer" dictRef="compchem:atomicNumber">6</scalar></atom><atom id="a6" elementType="C" x3="1.207016" y3="2.5E-4" z3="-0.693521"><scalar dataType="xsd:integer" dictRef="cc:serial">6</scalar><scalar dataType="xsd:integer" dictRef="g:atomicType">0</scalar><scalar dataType="xsd:integer" dictRef="compchem:atomicNumber">6</scalar></atom><atom id="a7" elementType="H" x3="-0.940625" y3="1.77E-4" z3="-0.545832"><scalar dataType="xsd:integer" dictRef="cc:serial">7</scalar><scalar dataType="xsd:integer" dictRef="g:atomicType">0</scalar><scalar dataType="xsd:integer" dictRef="compchem:atomicNumber">1</scalar></atom><atom id="a8" elementType="H" x3="-0.940036" y3="-1.94E-4" z3="1.937758"><scalar dataType="xsd:integer" dictRef="cc:serial">8</scalar><scalar dataType="xsd:integer" dictRef="g:atomicType">0</scalar><scalar dataType="xsd:integer" dictRef="compchem:atomicNumber">1</scalar></atom><atom id="a9" elementType="H" x3="1.202991" y3="1.4E-4" z3="3.181748"><scalar dataType="xsd:integer" dictRef="cc:serial">9</scalar><scalar dataType="xsd:integer" dictRef="g:atomicType">0</scalar><scalar dataType="xsd:integer" dictRef="compchem:atomicNumber">1</scalar></atom><atom id="a10" elementType="Br" x3="4.058575" y3="7.13E-4" z3="2.355062"><scalar dataType="xsd:integer" dictRef="cc:serial">10</scalar><scalar dataType="xsd:integer" dictRef="g:atomicType">0</scalar><scalar dataType="xsd:integer" dictRef="compchem:atomicNumber">35</scalar></atom><atom id="a11" elementType="H" x3="3.359348" y3="4.53E-4" z3="-0.534365"><scalar dataType="xsd:integer" dictRef="cc:serial">11</scalar><scalar dataType="xsd:integer" dictRef="g:atomicType">0</scalar><scalar dataType="xsd:integer" dictRef="compchem:atomicNumber">1</scalar></atom><atom id="a12" elementType="H" x3="1.215936" y3="1.04E-4" z3="-1.777683"><scalar dataType="xsd:integer" dictRef="cc:serial">12</scalar><scalar dataType="xsd:integer" dictRef="g:atomicType">0</scalar><scalar dataType="xsd:integer" dictRef="compchem:atomicNumber">1</scalar></atom></atomArray><formula formalCharge="0" concise="C 6 H 5 Br 1"><atomArray elementType="C H Br" count="6.0 5.0 1.0"/></formula><bondArray><bond atomRefs2="a1 a2" id="a1_a2" order="2"/><bond atomRefs2="a1 a6" id="a1_a6" order="S"/><bond atomRefs2="a1 a7" id="a1_a7" order="S"/><bond atomRefs2="a2 a3" id="a2_a3" order="S"/><bond atomRefs2="a2 a8" id="a2_a8" order="S"/><bond atomRefs2="a3 a4" id="a3_a4" order="2"/><bond atomRefs2="a3 a9" id="a3_a9" order="S"/><bond atomRefs2="a4 a5" id="a4_a5" order="S"/><bond atomRefs2="a4 a10" id="a4_a10" order="S"/><bond atomRefs2="a5 a6" id="a5_a6" order="2"/><bond atomRefs2="a5 a11" id="a5_a11" order="S"/><bond atomRefs2="a6 a12" id="a6_a12" order="S"/></bondArray><property dictRef="cml:molmass"><scalar dataType="xsd:double" units="unit:dalton" xmlns:unit="http://www.xml-cml.org/unit/si/">157.0079</scalar></property></molecule></module><module cmlx:lineCount="25" cmlx:templateRef="l202.distmat"><array dataType="xsd:double" size="75" dictRef="cc:distance">0.0 1.393935 0.0 2.420713 1.394653 0.0 2.775795 2.400812 1.392227 0.0 2.420714 2.792789 2.428034 1.392227 0.0 1.393941 2.411263 2.792794 2.400815 1.394653 0.0 1.083778 2.152716 3.402046 3.859573 3.402042 2.152712 0.0 2.154022 1.084201 2.144986 3.382109 3.876979 3.396095 2.48359 0.0 3.404483 2.15821 1.082495 2.152434 3.406419 3.875271 4.299993 2.477917 0.0 4.696117 4.174359 2.871132 1.920322 2.871127 4.174357 5.779895 5.016 2.972839 0.0 3.404484 3.875267 3.406419 2.152434 1.082495 2.158209 4.299988 4.959446 4.296437 2.972828 2.154029 3.396095 3.876982 3.382109 2.144984 1.084199 2.483588 4.295663 4.959448 5.015993</array></module><module cmlx:lineCount="6" cmlx:templateRef="l202.stoich"><scalar dataType="xsd:string" dictRef="cc:formula" cmlx:templateRef="stoich">C6H5Br</scalar><scalar dataType="xsd:string" dictRef="cc:frameworkgroup" cmlx:templateRef="framework">C1[X(C6H5Br)]</scalar><scalar dataType="xsd:integer" dictRef="cc:degfreedom" cmlx:templateRef="degfreedom">30</scalar><scalar dataType="xsd:string" dictRef="cc:pointgroup">C1</scalar><scalar dataType="xsd:integer" dictRef="cc:operatorcount">1</scalar><scalar dataType="xsd:string" dictRef="cc:largestabelian">C1</scalar><scalar dataType="xsd:integer" dictRef="cc:operatorcount">1</scalar><scalar dataType="xsd:string" dictRef="cc:largestconciseabelian">C1</scalar><scalar dataType="xsd:integer" dictRef="cc:operatorcount">1</scalar></module><module cmlx:lineCount="18" cmlx:templateRef="l202.orient"><molecule id="a12" cmlx:templateRef="atom"><atomArray><atom id="a1" elementType="C" x3="2.882514" y3="0.0" z3="-8.5E-5"><scalar dataType="xsd:integer" dictRef="cc:serial">1</scalar><scalar dataType="xsd:integer" dictRef="g:atomicType">0</scalar><scalar dataType="xsd:integer" dictRef="compchem:atomicNumber">6</scalar></atom><atom id="a2" elementType="C" x3="2.182862" y3="-1.205629" z3="2.5E-5"><scalar dataType="xsd:integer" dictRef="cc:serial">2</scalar><scalar dataType="xsd:integer" dictRef="g:atomicType">0</scalar><scalar dataType="xsd:integer" dictRef="compchem:atomicNumber">6</scalar></atom><atom id="a3" elementType="C" x3="0.788234" y3="-1.214019" z3="4.3E-5"><scalar dataType="xsd:integer" dictRef="cc:serial">3</scalar><scalar dataType="xsd:integer" dictRef="g:atomicType">0</scalar><scalar dataType="xsd:integer" dictRef="compchem:atomicNumber">6</scalar></atom><atom id="a4" elementType="C" x3="0.10672" y3="-3.0E-6" z3="-1.14E-4"><scalar dataType="xsd:integer" dictRef="cc:serial">4</scalar><scalar dataType="xsd:integer" dictRef="g:atomicType">0</scalar><scalar dataType="xsd:integer" dictRef="compchem:atomicNumber">6</scalar></atom><atom id="a5" elementType="C" x3="0.78823" y3="1.214015" z3="3.0E-5"><scalar dataType="xsd:integer" dictRef="cc:serial">5</scalar><scalar dataType="xsd:integer" dictRef="g:atomicType">0</scalar><scalar dataType="xsd:integer" dictRef="compchem:atomicNumber">6</scalar></atom><atom id="a6" elementType="C" x3="2.182858" y3="1.205634" z3="3.8E-5"><scalar dataType="xsd:integer" dictRef="cc:serial">6</scalar><scalar dataType="xsd:integer" dictRef="g:atomicType">0</scalar><scalar dataType="xsd:integer" dictRef="compchem:atomicNumber">6</scalar></atom><atom id="a7" elementType="H" x3="3.966292" y3="8.0E-6" z3="-2.02E-4"><scalar dataType="xsd:integer" dictRef="cc:serial">7</scalar><scalar dataType="xsd:integer" dictRef="g:atomicType">0</scalar><scalar dataType="xsd:integer" dictRef="compchem:atomicNumber">1</scalar></atom><atom id="a8" elementType="H" x3="2.719287" y3="-2.147828" z3="1.75E-4"><scalar dataType="xsd:integer" dictRef="cc:serial">8</scalar><scalar dataType="xsd:integer" dictRef="g:atomicType">0</scalar><scalar dataType="xsd:integer" dictRef="compchem:atomicNumber">1</scalar></atom><atom id="a9" elementType="H" x3="0.24137" y3="-2.148222" z3="1.57E-4"><scalar dataType="xsd:integer" dictRef="cc:serial">9</scalar><scalar dataType="xsd:integer" dictRef="g:atomicType">0</scalar><scalar dataType="xsd:integer" dictRef="compchem:atomicNumber">1</scalar></atom><atom id="a10" elementType="Br" x3="-1.813603" y3="0.0" z3="-2.0E-6"><scalar dataType="xsd:integer" dictRef="cc:serial">10</scalar><scalar dataType="xsd:integer" dictRef="g:atomicType">0</scalar><scalar dataType="xsd:integer" dictRef="compchem:atomicNumber">35</scalar></atom><atom id="a11" elementType="H" x3="0.241362" y3="2.148215" z3="1.49E-4"><scalar dataType="xsd:integer" dictRef="cc:serial">11</scalar><scalar dataType="xsd:integer" dictRef="g:atomicType">0</scalar><scalar dataType="xsd:integer" dictRef="compchem:atomicNumber">1</scalar></atom><atom id="a12" elementType="H" x3="2.719276" y3="2.147835" z3="1.82E-4"><scalar dataType="xsd:integer" dictRef="cc:serial">12</scalar><scalar dataType="xsd:integer" dictRef="g:atomicType">0</scalar><scalar dataType="xsd:integer" dictRef="compchem:atomicNumber">1</scalar></atom></atomArray><formula formalCharge="0" concise="C 6 H 5 Br 1"><atomArray elementType="C H Br" count="6.0 5.0 1.0"/></formula><bondArray><bond atomRefs2="a1 a2" id="a1_a2" order="2"/><bond atomRefs2="a1 a6" id="a1_a6" order="S"/><bond atomRefs2="a1 a7" id="a1_a7" order="S"/><bond atomRefs2="a2 a3" id="a2_a3" order="S"/><bond atomRefs2="a2 a8" id="a2_a8" order="S"/><bond atomRefs2="a3 a4" id="a3_a4" order="2"/><bond atomRefs2="a3 a9" id="a3_a9" order="S"/><bond atomRefs2="a4 a5" id="a4_a5" order="S"/><bond atomRefs2="a4 a10" id="a4_a10" order="S"/><bond atomRefs2="a5 a6" id="a5_a6" order="2"/><bond atomRefs2="a5 a11" id="a5_a11" order="S"/><bond atomRefs2="a6 a12" id="a6_a12" order="S"/></bondArray><property dictRef="cml:molmass"><scalar dataType="xsd:double" units="unit:dalton" xmlns:unit="http://www.xml-cml.org/unit/si/">157.0079</scalar></property></molecule></module><module cmlx:lineCount="1" cmlx:templateRef="l202.rotconst"><array dataType="xsd:double" size="3" dictRef="cc:rotconst" cmlx:templateRef="rotconst">5.6875091 0.9808731 0.8365935</array></module><scalar dataType="xsd:integer" dictRef="g:buffer" cmlx:templateRef="buffer">131072</scalar><scalar dataType="xsd:string" dictRef="g:raffenetti" cmlx:templateRef="raff">Raffenetti</scalar><scalar dataType="xsd:string" dictRef="g:twoe" cmlx:templateRef="twoe">Two-electron</scalar><module cmlx:lineCount="12" cmlx:templateRef="l301.basis"><scalar dataType="xsd:string" dictRef="cc:basis">6-311+G(d,p)</scalar><scalar dataType="xsd:string" dictRef="cc:diffuse">(5D, 7F)</scalar><list cmlx:lineCount="1" cmlx:templateRef="symmadapt"><array dataType="xsd:integer" dictRef="cc:adapted" size="1">210</array><array dataType="xsd:string" dictRef="cc:symm" size="1">A</array></list><scalar dataType="xsd:integer" dictRef="cc:basiscount">210</scalar><scalar dataType="xsd:integer" dictRef="g:primbasis">350</scalar><scalar dataType="xsd:integer" dictRef="cc:cartesianbasis">219</scalar><scalar dataType="xsd:integer" dictRef="cc:alphae">38</scalar><scalar dataType="xsd:integer" dictRef="cc:betae">38</scalar> IExCor= 402 DFT=T Ex=B+HF Corr=LYP ExCW=0 ScaHFX=  0.200000 ScaDFX=  0.800000  0.720000  1.000000  0.810000 IRadAn=      0 IRanWt=     -1 IRanGd=            0 ICorTp=0 NAtoms=   12 NActive=   12 NUniq=   12 SFac= 1.00D+00 NAtFMM=   60 Big=F</module> NPDir=0 NMtPBC=     1 NCelOv=     1 NCel=       1 NClECP=     1 NCelD=      1         NCelK=      1 NCelE2=     1 NClLst=     1 CellRange=     0.0.<module cmlx:lineCount="1" cmlx:templateRef="l302.basis"><list cmlx:templateRef="onee"><scalar dataType="xsd:string" dictRef="g:onee">One-electron integrals</scalar></list></module> NBasis=   210 RedAO= T  NBF=   210 NBsUse=   210 1.00D-06 NBFU=   210 Precomputing XC quadrature grid using IXCGrd= 2 IRadAn=           0 IRanWt=          -1 IRanGd=           0. NRdTot=     771 NPtTot=      101480 NUsed=      106926 NTot=      106958 NSgBfM=   219   219   219   219.<module cmlx:lineCount="1" cmlx:templateRef="l303.basis"><list cmlx:templateRef="l303"><scalar dataType="xsd:integer" dictRef="g:dipdrv">1</scalar></list></module> Initial guess read from the read-write file: Guess basis will be translated and rotated to current coordinates. Initial guess orbital symmetries:       Occupied  (A) (A) (A) (A) (A) (A) (A) (A) (A) (A) (A) (A)                 (A) (A) (A) (A) (A) (A) (A) (A) (A) (A) (A) (A)                 (A) (A) (A) (A) (A) (A) (A) (A) (A) (A) (A) (A)                 (A) (A)       Virtual   (A) (A) (A) (A) (A) (A) (A) (A) (A) (A) (A) (A)                 (A) (A) (A) (A) (A) (A) (A) (A) (A) (A) (A) (A)                 (A) (A) (A) (A) (A) (A) (A) (A) (A) (A) (A) (A)                 (A) (A) (A) (A) (A) (A) (A) (A) (A) (A) (A) (A)                 (A) (A) (A) (A) (A) (A) (A) (A) (A) (A) (A) (A)                 (A) (A) (A) (A) (A) (A) (A) (A) (A) (A) (A) (A)                 (A) (A) (A) (A) (A) (A) (A) (A) (A) (A) (A) (A)                 (A) (A) (A) (A) (A) (A) (A) (A) (A) (A) (A) (A)                 (A) (A) (A) (A) (A) (A) (A) (A) (A) (A) (A) (A)                 (A) (A) (A) (A) (A) (A) (A) (A) (A) (A) (A) (A)                 (A) (A) (A) (A) (A) (A) (A) (A) (A) (A) (A) (A)                 (A) (A) (A) (A) (A) (A) (A) (A) (A) (A) (A) (A)                 (A) (A) (A) (A) (A) (A) (A) (A) (A) (A) (A) (A)                 (A) (A) (A) (A) (A) (A) (A) (A) (A) (A) (A) (A)                 (A) (A) (A) (A) The electronic state of the initial guess is 1-A.<module cmlx:lineCount="209" cmlx:templateRef="l502"><list cmlx:templateRef="l502.type"><scalar dataType="xsd:string" dictRef="g:l502.type">Closed</scalar></list> Requested convergence on RMS density matrix=1.00D-08 within 128 cycles. Requested convergence on MAX density matrix=1.00D-06. Requested convergence on             energy=1.00D-06. No special actions if energy rises. Using DIIS extrapolation, IDIIS=  1040. Integral symmetry usage will be decided dynamically.       106925 words used for storage of precomputed grid. IEnd=    294505 IEndB=    294505 NGot=   6291456 MDV=   6061772 LenX=   6061772 Fock matrices will be formed incrementally for  20 cycles.<module cmlx:lineCount="192" cmlx:templateRef="l502.cycle"><list cmlx:templateRef="cycle"><list><scalar dataType="xsd:integer" dictRef="cc:cycle">1</scalar><scalar dataType="xsd:integer" dictRef="g:pass">1</scalar><scalar dataType="xsd:integer" dictRef="g:idiag">1</scalar></list></list><module cmlx:lineCount="1" cmlx:templateRef="l502.e"><list cmlx:templateRef="l502.e"><scalar dataType="xsd:double" dictRef="g:l502.e">-2801.02787916717</scalar></list></module> Cycle   2  Pass 1  IDiag  1:<module cmlx:lineCount="1" cmlx:templateRef="l502.ediff"><list cmlx:templateRef="l502.ediff"><list><scalar dataType="xsd:double" dictRef="g:l502.e">-2803.34226260219</scalar><scalar dataType="xsd:double" dictRef="g:l502.deltae">-2.314383435017</scalar></list></list></module> Cycle   3  Pass 1  IDiag  1:<module cmlx:lineCount="1" cmlx:templateRef="l502.ediff"><list cmlx:templateRef="l502.ediff"><list><scalar dataType="xsd:double" dictRef="g:l502.e">-2805.76463301412</scalar><scalar dataType="xsd:double" dictRef="g:l502.deltae">-2.422370411935</scalar></list></list></module> Cycle   4  Pass 1  IDiag  1:<module cmlx:lineCount="1" cmlx:templateRef="l502.ediff"><list cmlx:templateRef="l502.ediff"><list><scalar dataType="xsd:double" dictRef="g:l502.e">-2805.77669802488</scalar><scalar dataType="xsd:double" dictRef="g:l502.deltae">-0.012065010763</scalar></list></list></module> Cycle   5  Pass 1  IDiag  1:<module cmlx:lineCount="1" cmlx:templateRef="l502.ediff"><list cmlx:templateRef="l502.ediff"><list><scalar dataType="xsd:double" dictRef="g:l502.e">-2805.85292095361</scalar><scalar dataType="xsd:double" dictRef="g:l502.deltae">-0.076222928727</scalar></list></list></module> Cycle   6  Pass 1  IDiag  1:<module cmlx:lineCount="1" cmlx:templateRef="l502.ediff"><list cmlx:templateRef="l502.ediff"><list><scalar dataType="xsd:double" dictRef="g:l502.e">-2805.85375944896</scalar><scalar dataType="xsd:double" dictRef="g:l502.deltae">-8.38495351E-4</scalar></list></list></module> Cycle   7  Pass 1  IDiag  1:                    CP:  7.60D-01<module cmlx:lineCount="1" cmlx:templateRef="l502.ediff"><list cmlx:templateRef="l502.ediff"><list><scalar dataType="xsd:double" dictRef="g:l502.e">-2805.8538572325</scalar><scalar dataType="xsd:double" dictRef="g:l502.deltae">-9.7783535E-5</scalar></list></list></module> Cycle   8  Pass 1  IDiag  1:                    CP:  8.39D-01  7.60D-01<module cmlx:lineCount="1" cmlx:templateRef="l502.ediff"><list cmlx:templateRef="l502.ediff"><list><scalar dataType="xsd:double" dictRef="g:l502.e">-2805.85388111004</scalar><scalar dataType="xsd:double" dictRef="g:l502.deltae">-2.3877547E-5</scalar></list></list></module> Cycle   9  Pass 1  IDiag  1:                    CP:  8.34D-01  7.70D-01  1.06D+00<module cmlx:lineCount="1" cmlx:templateRef="l502.ediff"><list cmlx:templateRef="l502.ediff"><list><scalar dataType="xsd:double" dictRef="g:l502.e">-2805.85388162141</scalar><scalar dataType="xsd:double" dictRef="g:l502.deltae">-5.11363E-7</scalar></list></list></module> Cycle  10  Pass 1  IDiag  1:                    CP:  8.34D-01  7.68D-01  1.09D+00  9.05D-01<module cmlx:lineCount="1" cmlx:templateRef="l502.ediff"><list cmlx:templateRef="l502.ediff"><list><scalar dataType="xsd:double" dictRef="g:l502.e">-2805.85388164175</scalar><scalar dataType="xsd:double" dictRef="g:l502.deltae">-2.0341E-8</scalar></list></list></module> Cycle  11  Pass 1  IDiag  1:                    CP:  8.34D-01  7.73D-01  1.08D+00  9.81D-01  8.72D-01<module cmlx:lineCount="1" cmlx:templateRef="l502.ediff"><list cmlx:templateRef="l502.ediff"><list><scalar dataType="xsd:double" dictRef="g:l502.e">-2805.85388164421</scalar><scalar dataType="xsd:double" dictRef="g:l502.deltae">-2.465E-9</scalar></list></list></module> Cycle  12  Pass 1  IDiag  1:                    CP:  8.34D-01  7.72D-01  1.09D+00  9.71D-01  8.96D-01                    CP:  7.76D-01<module cmlx:lineCount="1" cmlx:templateRef="l502.ediff"><list cmlx:templateRef="l502.ediff"><list><scalar dataType="xsd:double" dictRef="g:l502.e">-2805.85388164429</scalar><scalar dataType="xsd:double" dictRef="g:l502.deltae">-7.8E-11</scalar></list></list></module> Cycle  13  Pass 1  IDiag  1:                    CP:  8.34D-01  7.72D-01  1.09D+00  9.72D-01  9.03D-01                    CP:  8.01D-01  9.96D-01<module cmlx:lineCount="1" cmlx:templateRef="l502.ediff"><list cmlx:templateRef="l502.ediff"><list><scalar dataType="xsd:double" dictRef="g:l502.e">-2805.8538816443</scalar><scalar dataType="xsd:double" dictRef="g:l502.deltae">-1.1E-11</scalar></list></list></module> RMSDP=8.42D-09 MaxDP=2.13D-07 DE=-1.09D-11 OVMax= 2.78D-07</module><module cmlx:lineCount="4" cmlx:templateRef="l502.footer"><list cmlx:templateRef="l502"><scalar dataType="xsd:string" dictRef="g:l502">SCF Done:  E(RB+HF-LYP) =  -2805.85388164     A.U. after   13 cycles</scalar><scalar dataType="xsd:string" dictRef="g:l502">Convg  =    0.8423D-08             -V/T =  2.0015</scalar><scalar dataType="xsd:string" dictRef="g:l502">S**2   =   0.0000</scalar><scalar dataType="xsd:string" dictRef="g:l502">KE= 2.801698038640D+03 PE=-7.549060823435D+03 EE= 1.511987784126D+03</scalar></list></module></module><module cmlx:lineCount="1" cmlx:templateRef="l701"/> ... and contract with generalized density number  0.<module cmlx:lineCount="1" cmlx:templateRef="l702"/><module cmlx:lineCount="1" cmlx:templateRef="l701"/> Integral derivatives from FoFDir, PRISM(SPDF). Symmetry not used in FoFDir. MinBra= 0 MaxBra= 2 Meth= 1. IRaf=       0 NMat=   1 IRICut=       1 DoRegI=T DoRafI=F ISym2E= 0 JSym2E=0.<module cmlx:lineCount="2" cmlx:templateRef="l716.dipole"><array dataType="xsd:double" size="3" dictRef="x:d" cmlx:templateRef="dipole">0.732432406 2.41452778E-6 1.2404509E-4</array> ***** Axes restored to original set *****</module> ------------------------------------------------------------------- Center     Atomic                   Forces (Hartrees/Bohr) Number     Number              X              Y              Z -------------------------------------------------------------------    1          6           0.000171932   -0.000006122    0.000094369    2          6           0.000141947    0.000000088   -0.000180242    3          6           0.000349394    0.000008679    0.000074854    4          6          -0.000599091   -0.000024081   -0.000347428    5          6           0.000238109    0.000004863    0.000264326    6          6          -0.000087839    0.000003989    0.000217855    7          1           0.000054945   -0.000005009    0.000032762    8          1           0.000060070    0.000005362   -0.000017810    9          1          -0.000008501    0.000001563   -0.000062739   10         35          -0.000275993    0.000003815   -0.000159781   11          1          -0.000058807    0.000002308    0.000023945   12          1           0.000013834    0.000004545    0.000059890 ------------------------------------------------------------------- Cartesian Forces:  Max     0.000599091 RMS     0.000166875<module cmlx:lineCount="86" cmlx:templateRef="l103"><list cmlx:templateRef="berny"><scalar dataType="xsd:string" dictRef="g:optimization">Internal  Forces:  Max     0.000473202 RMS     0.000139300</scalar></list> Search for a local minimum. Step number   2 out of a maximum of  64 All quantities printed in internal units (Hartrees-Bohrs-Radians) Update second derivatives using D2CorX and points  1  2<module cmlx:lineCount="1" cmlx:templateRef="l103.trust"> Trust test= 8.87D-01 RLast= 1.96D-02 DXMaxT set to 3.00D-01</module>     Eigenvalues ---    0.02207   0.02207   0.02210   0.02211   0.02212     Eigenvalues ---    0.02217   0.02220   0.02228   0.02233   0.15993     Eigenvalues ---    0.16000   0.16000   0.16000   0.16001   0.18059     Eigenvalues ---    0.21994   0.22000   0.23360   0.25000   0.35523     Eigenvalues ---    0.35536   0.35583   0.35733   0.35759   0.42671     Eigenvalues ---    0.42726   0.46972   0.47179   0.47422   0.51889     Eigenvalues --- 1000.000001000.000001000.000001000.000001000.00000     Eigenvalues --- 1000.000001000.000001000.000001000.000001000.00000     Eigenvalues --- 1000.000001000.000001000.000001000.000001000.00000     Eigenvalues --- 1000.000001000.000001000.000001000.000001000.00000     Eigenvalues --- 1000.000001000.000001000.000001000.00000<module cmlx:lineCount="4" cmlx:templateRef="rfo"> Quartic linear search produced a step of -0.09877. Iteration  1 RMS(Cart)=  0.00057795 RMS(Int)=  0.00000017 Iteration  2 RMS(Cart)=  0.00000022 RMS(Int)=  0.00000006</module><module cmlx:lineCount="56" cmlx:templateRef="l103.deltas"><list cmlx:lineCount="54" cmlx:templateRef="delta"><array dataType="xsd:string" dictRef="cc:variable" size="54">R1 R2 R3 R4 R5 R6 R7 R8 R9 R10 R11 R12 A1 A2 A3 A4 A5 A6 A7 A8 A9 A10 A11 A12 A13 A14 A15 A16 A17 A18 D1 D2 D3 D4 D5 D6 D7 D8 D9 D10 D11 D12 D13 D14 D15 D16 D17 D18 D19 D20 D21 D22 D23 D24</array><array dataType="xsd:double" dictRef="g:lastval" size="54">2.63416 2.63417 2.04804 2.63551 2.04884 2.63093 2.04562 2.63093 3.62888 2.63551 2.04562 2.04884 2.08994 2.09663 2.09661 2.10264 2.0982 2.08235 2.07631 2.10641 2.10046 2.11853 2.08233 2.08232 2.07632 2.10046 2.10641 2.10263 2.09821 2.08235 1.8E-4 -3.14133 -3.14148 1.9E-4 -2.0E-4 3.14135 3.14146 -1.8E-4 5.0E-5 -3.14156 3.14156 -5.0E-5 -2.7E-4 -3.14154 3.14135 7.0E-5 2.5E-4 -3.14133 3.14152 -6.0E-5 -1.0E-5 -3.14156 3.14157 2.0E-5</array><array dataType="xsd:double" dictRef="cc:deriv" size="54">-2.2E-4 -2.2E-4 -6.0E-5 -2.0E-4 -6.0E-5 -4.7E-4 -6.0E-5 -4.7E-4 -3.2E-4 -2.1E-4 -6.0E-5 -6.0E-5 2.0E-5 -1.0E-5 -1.0E-5 -1.0E-5 2.0E-5 -1.0E-5 -1.8E-4 8.0E-5 1.0E-4 3.6E-4 -1.8E-4 -1.8E-4 -1.8E-4 1.0E-4 8.0E-5 -1.0E-5 2.0E-5 -1.0E-5 0.0 -1.0E-5 0.0 0.0 1.0E-5 1.0E-5 0.0 0.0 0.0 0.0 0.0 0.0 1.0E-5 0.0 1.0E-5 0.0 -1.0E-5 -1.0E-5 0.0 0.0 0.0 0.0 0.0 0.0</array><array dataType="xsd:double" dictRef="cc:delta.linear" size="54">-6.1E-4 -6.1E-4 -5.0E-5 -6.2E-4 -5.0E-5 -5.9E-4 -6.0E-5 -5.8E-4 -0.00121 -6.1E-4 -6.0E-5 -5.0E-5 1.0E-5 0.0 -1.0E-5 -1.0E-5 0.0 1.0E-5 3.0E-5 2.0E-5 -6.0E-5 -5.0E-5 3.0E-5 3.0E-5 3.0E-5 -6.0E-5 2.0E-5 -1.0E-5 1.0E-5 1.0E-5 -4.0E-5 -2.0E-5 7.0E-5 9.0E-5 5.0E-5 1.0E-5 -6.0E-5 -1.0E-4 -2.0E-5 -3.0E-5 -3.0E-5 -5.0E-5 6.0E-5 -1.0E-4 8.0E-5 -8.0E-5 -5.0E-5 -7.0E-5 1.1E-4 8.0E-5 -1.0E-5 3.0E-5 2.0E-5 5.0E-5</array><array dataType="xsd:double" dictRef="cc:delta.quad" size="54">2.7E-4 2.6E-4 -1.1E-4 2.8E-4 -1.0E-4 -2.7E-4 -9.0E-5 -2.7E-4 -3.3E-4 2.8E-4 -9.0E-5 -1.0E-4 1.6E-4 -9.0E-5 -8.0E-5 2.0E-5 8.0E-5 -1.0E-4 -7.8E-4 3.0E-4 4.8E-4 0.00134 -6.7E-4 -6.7E-4 -7.8E-4 4.8E-4 3.0E-4 3.0E-5 7.0E-5 -1.0E-4 -1.6E-4 -2.3E-4 -1.3E-4 -2.0E-4 1.8E-4 2.2E-4 1.5E-4 1.9E-4 -3.0E-5 1.0E-5 3.0E-5 7.0E-5 2.1E-4 -2.0E-5 1.7E-4 -6.0E-5 -2.0E-4 -1.9E-4 3.0E-5 4.0E-5 0.0 -4.0E-5 -1.0E-5 -4.0E-5</array><array dataType="xsd:double" dictRef="cc:delta.total" size="54">-3.4E-4 -3.5E-4 -1.6E-4 -3.3E-4 -1.5E-4 -8.6E-4 -1.5E-4 -8.6E-4 -0.00153 -3.3E-4 -1.5E-4 -1.5E-4 1.7E-4 -9.0E-5 -8.0E-5 1.0E-5 8.0E-5 -9.0E-5 -7.5E-4 3.2E-4 4.2E-4 0.00129 -6.5E-4 -6.4E-4 -7.5E-4 4.2E-4 3.2E-4 2.0E-5 7.0E-5 -9.0E-5 -2.0E-4 -2.5E-4 -6.0E-5 -1.1E-4 2.3E-4 2.3E-4 9.0E-5 9.0E-5 -5.0E-5 -2.0E-5 0.0 2.0E-5 2.7E-4 -1.1E-4 2.5E-4 -1.4E-4 -2.5E-4 -2.7E-4 1.4E-4 1.2E-4 -1.0E-5 -1.0E-5 1.0E-5 1.0E-5</array><array dataType="xsd:double" dictRef="cc:newval" size="54">2.63382 2.63382 2.04789 2.63518 2.04869 2.63007 2.04547 2.63007 3.62735 2.63518 2.04547 2.04869 2.09012 2.09654 2.09653 2.10265 2.09828 2.08225 2.07557 2.10674 2.10088 2.11982 2.08168 2.08168 2.07557 2.10088 2.10674 2.10265 2.09828 2.08225 -2.0E-5 -3.14158 -3.14154 9.0E-5 3.0E-5 3.14158 3.14155 -9.0E-5 1.0E-5 -3.14159 3.14156 -3.0E-5 1.0E-5 3.14153 -3.14159 -6.0E-5 0.0 3.14159 -3.14153 6.0E-5 -2.0E-5 -3.14157 3.14158 3.0E-5</array></list></module><module cmlx:lineCount="5" cmlx:templateRef="l103.itemconverge"><list cmlx:lineCount="4" cmlx:templateRef="row"><array dataType="xsd:string" dictRef="g:item"/><array dataType="xsd:double" dictRef="g:value" size="4">4.5E-4 3.0E-4 0.0018 0.0012</array><array dataType="xsd:double" dictRef="g:threshold" size="4">0.0 0.0 0.0 0.0</array><array dataType="xsd:string" dictRef="g:converged" size="4">NO YES NO YES</array></list></module><module cmlx:lineCount="1" cmlx:templateRef="preddelta"><list cmlx:templateRef="predicted"><scalar dataType="xsd:double" dictRef="g:predchange">-1.379584E-6</scalar></list></module> GradGradGradGradGradGradGradGradGradGradGradGradGradGradGradGradGradGrad</module><module cmlx:lineCount="18" cmlx:templateRef="l202.orient"><molecule id="a12" cmlx:templateRef="atom"><atomArray><atom id="a1" elementType="C" x3="-0.002848" y3="9.6E-5" z3="-0.001662"><scalar dataType="xsd:integer" dictRef="cc:serial">1</scalar><scalar dataType="xsd:integer" dictRef="g:atomicType">0</scalar><scalar dataType="xsd:integer" dictRef="compchem:atomicNumber">6</scalar></atom><atom id="a2" elementType="C" x3="-0.002917" y3="9.5E-5" z3="1.392093"><scalar dataType="xsd:integer" dictRef="cc:serial">2</scalar><scalar dataType="xsd:integer" dictRef="g:atomicType">0</scalar><scalar dataType="xsd:integer" dictRef="compchem:atomicNumber">6</scalar></atom><atom id="a3" elementType="C" x3="1.198903" y3="2.4E-4" z3="2.099336"><scalar dataType="xsd:integer" dictRef="cc:serial">3</scalar><scalar dataType="xsd:integer" dictRef="g:atomicType">0</scalar><scalar dataType="xsd:integer" dictRef="compchem:atomicNumber">6</scalar></atom><atom id="a4" elementType="C" x3="2.396824" y3="3.93E-4" z3="1.390801"><scalar dataType="xsd:integer" dictRef="cc:serial">4</scalar><scalar dataType="xsd:integer" dictRef="g:atomicType">0</scalar><scalar dataType="xsd:integer" dictRef="compchem:atomicNumber">6</scalar></atom><atom id="a5" elementType="C" x3="2.417564" y3="4.1E-4" z3="-8.19E-4"><scalar dataType="xsd:integer" dictRef="cc:serial">5</scalar><scalar dataType="xsd:integer" dictRef="g:atomicType">0</scalar><scalar dataType="xsd:integer" dictRef="compchem:atomicNumber">6</scalar></atom><atom id="a6" elementType="C" x3="1.207185" y3="2.7E-4" z3="-0.693311"><scalar dataType="xsd:integer" dictRef="cc:serial">6</scalar><scalar dataType="xsd:integer" dictRef="g:atomicType">0</scalar><scalar dataType="xsd:integer" dictRef="compchem:atomicNumber">6</scalar></atom><atom id="a7" elementType="H" x3="-0.940166" y3="3.0E-5" z3="-0.545564"><scalar dataType="xsd:integer" dictRef="cc:serial">7</scalar><scalar dataType="xsd:integer" dictRef="g:atomicType">0</scalar><scalar dataType="xsd:integer" dictRef="compchem:atomicNumber">1</scalar></atom><atom id="a8" elementType="H" x3="-0.939707" y3="-5.3E-5" z3="1.937753"><scalar dataType="xsd:integer" dictRef="cc:serial">8</scalar><scalar dataType="xsd:integer" dictRef="g:atomicType">0</scalar><scalar dataType="xsd:integer" dictRef="compchem:atomicNumber">1</scalar></atom><atom id="a9" elementType="H" x3="1.203272" y3="2.33E-4" z3="3.181741"><scalar dataType="xsd:integer" dictRef="cc:serial">9</scalar><scalar dataType="xsd:integer" dictRef="g:atomicType">0</scalar><scalar dataType="xsd:integer" dictRef="compchem:atomicNumber">1</scalar></atom><atom id="a10" elementType="Br" x3="4.057065" y3="6.96E-4" z3="2.354191"><scalar dataType="xsd:integer" dictRef="cc:serial">10</scalar><scalar dataType="xsd:integer" dictRef="g:atomicType">0</scalar><scalar dataType="xsd:integer" dictRef="compchem:atomicNumber">35</scalar></atom><atom id="a11" elementType="H" x3="3.359483" y3="5.33E-4" z3="-0.534119"><scalar dataType="xsd:integer" dictRef="cc:serial">11</scalar><scalar dataType="xsd:integer" dictRef="g:atomicType">0</scalar><scalar dataType="xsd:integer" dictRef="compchem:atomicNumber">1</scalar></atom><atom id="a12" elementType="H" x3="1.216092" y3="2.58E-4" z3="-1.777395"><scalar dataType="xsd:integer" dictRef="cc:serial">12</scalar><scalar dataType="xsd:integer" dictRef="g:atomicType">0</scalar><scalar dataType="xsd:integer" dictRef="compchem:atomicNumber">1</scalar></atom></atomArray><formula formalCharge="0" concise="C 6 H 5 Br 1"><atomArray elementType="C H Br" count="6.0 5.0 1.0"/></formula><bondArray><bond atomRefs2="a1 a2" id="a1_a2" order="2"/><bond atomRefs2="a1 a6" id="a1_a6" order="S"/><bond atomRefs2="a1 a7" id="a1_a7" order="S"/><bond atomRefs2="a2 a3" id="a2_a3" order="S"/><bond atomRefs2="a2 a8" id="a2_a8" order="S"/><bond atomRefs2="a3 a4" id="a3_a4" order="2"/><bond atomRefs2="a3 a9" id="a3_a9" order="S"/><bond atomRefs2="a4 a5" id="a4_a5" order="S"/><bond atomRefs2="a4 a10" id="a4_a10" order="S"/><bond atomRefs2="a5 a6" id="a5_a6" order="2"/><bond atomRefs2="a5 a11" id="a5_a11" order="S"/><bond atomRefs2="a6 a12" id="a6_a12" order="S"/></bondArray><property dictRef="cml:molmass"><scalar dataType="xsd:double" units="unit:dalton" xmlns:unit="http://www.xml-cml.org/unit/si/">157.0079</scalar></property></molecule></module><module cmlx:lineCount="25" cmlx:templateRef="l202.distmat"><array dataType="xsd:double" size="75" dictRef="cc:distance">0.0 1.393755 0.0 2.420413 1.394476 0.0 2.774415 2.399742 1.391774 0.0 2.420413 2.792657 2.428124 1.391775 0.0 1.393757 2.41107 2.792659 2.399742 1.394476 0.0 1.083695 2.152429 3.401634 3.85811 3.401632 2.152428 0.0 2.153842 1.084121 2.144706 3.381064 3.876768 3.395827 2.483317 0.0 3.40423 2.158178 1.082414 2.152215 3.406346 3.875053 4.299666 2.477875 0.0 4.693926 4.17242 2.869502 1.91951 2.8695 4.172419 5.77762 5.014096 2.971359 0.0 3.40423 3.875052 3.406346 2.152215 1.082414 2.158177 4.299664 4.959152 4.296145 2.971355 2.153844 3.395827 3.876769 3.381064 2.144705 1.084121 2.483315 4.295322 4.959153 5.014093</array></module><module cmlx:lineCount="6" cmlx:templateRef="l202.stoich"><scalar dataType="xsd:string" dictRef="cc:formula" cmlx:templateRef="stoich">C6H5Br</scalar><scalar dataType="xsd:string" dictRef="cc:frameworkgroup" cmlx:templateRef="framework">C1[X(C6H5Br)]</scalar><scalar dataType="xsd:integer" dictRef="cc:degfreedom" cmlx:templateRef="degfreedom">30</scalar><scalar dataType="xsd:string" dictRef="cc:pointgroup">C1</scalar><scalar dataType="xsd:integer" dictRef="cc:operatorcount">1</scalar><scalar dataType="xsd:string" dictRef="cc:largestabelian">C1</scalar><scalar dataType="xsd:integer" dictRef="cc:operatorcount">1</scalar><scalar dataType="xsd:string" dictRef="cc:largestconciseabelian">C1</scalar><scalar dataType="xsd:integer" dictRef="cc:operatorcount">1</scalar></module><module cmlx:lineCount="18" cmlx:templateRef="l202.orient"><molecule id="a12" cmlx:templateRef="atom"><atomArray><atom id="a1" elementType="C" x3="2.881297" y3="0.0" z3="-1.5E-5"><scalar dataType="xsd:integer" dictRef="cc:serial">1</scalar><scalar dataType="xsd:integer" dictRef="g:atomicType">0</scalar><scalar dataType="xsd:integer" dictRef="compchem:atomicNumber">6</scalar></atom><atom id="a2" elementType="C" x3="2.18184" y3="-1.205534" z3="-1.0E-5"><scalar dataType="xsd:integer" dictRef="cc:serial">2</scalar><scalar dataType="xsd:integer" dictRef="g:atomicType">0</scalar><scalar dataType="xsd:integer" dictRef="compchem:atomicNumber">6</scalar></atom><atom id="a3" elementType="C" x3="0.78739" y3="-1.214063" z3="2.4E-5"><scalar dataType="xsd:integer" dictRef="cc:serial">3</scalar><scalar dataType="xsd:integer" dictRef="g:atomicType">0</scalar><scalar dataType="xsd:integer" dictRef="compchem:atomicNumber">6</scalar></atom><atom id="a4" elementType="C" x3="0.106882" y3="-1.0E-6" z3="4.6E-5"><scalar dataType="xsd:integer" dictRef="cc:serial">4</scalar><scalar dataType="xsd:integer" dictRef="g:atomicType">0</scalar><scalar dataType="xsd:integer" dictRef="compchem:atomicNumber">6</scalar></atom><atom id="a5" elementType="C" x3="0.787389" y3="1.214061" z3="2.7E-5"><scalar dataType="xsd:integer" dictRef="cc:serial">5</scalar><scalar dataType="xsd:integer" dictRef="g:atomicType">0</scalar><scalar dataType="xsd:integer" dictRef="compchem:atomicNumber">6</scalar></atom><atom id="a6" elementType="C" x3="2.181839" y3="1.205536" z3="-1.3E-5"><scalar dataType="xsd:integer" dictRef="cc:serial">6</scalar><scalar dataType="xsd:integer" dictRef="g:atomicType">0</scalar><scalar dataType="xsd:integer" dictRef="compchem:atomicNumber">6</scalar></atom><atom id="a7" elementType="H" x3="3.964992" y3="3.0E-6" z3="-8.9E-5"><scalar dataType="xsd:integer" dictRef="cc:serial">7</scalar><scalar dataType="xsd:integer" dictRef="g:atomicType">0</scalar><scalar dataType="xsd:integer" dictRef="compchem:atomicNumber">1</scalar></atom><atom id="a8" elementType="H" x3="2.718234" y3="-2.14766" z3="2.0E-6"><scalar dataType="xsd:integer" dictRef="cc:serial">8</scalar><scalar dataType="xsd:integer" dictRef="g:atomicType">0</scalar><scalar dataType="xsd:integer" dictRef="compchem:atomicNumber">1</scalar></atom><atom id="a9" elementType="H" x3="0.240358" y3="-2.148074" z3="3.5E-5"><scalar dataType="xsd:integer" dictRef="cc:serial">9</scalar><scalar dataType="xsd:integer" dict
[...]
088 2.10674 2.10265 2.09828 2.08225 -2.0E-5 -3.14158 -3.14154 9.0E-5 3.0E-5 3.14158 3.14155 -9.0E-5 1.0E-5 -3.14159 3.14156 -3.0E-5 1.0E-5 3.14153 -3.14159 -6.0E-5 0.0 3.14159 -3.14153 6.0E-5 -2.0E-5 -3.14157 3.14158 3.0E-5</array><array dataType="xsd:double" dictRef="cc:deriv" size="54">-5.0E-5 -5.0E-5 0.0 2.0E-5 0.0 -6.0E-5 -2.0E-5 -6.0E-5 9.0E-5 2.0E-5 -2.0E-5 0.0 1.0E-5 0.0 0.0 0.0 -1.0E-5 1.0E-5 -3.0E-5 1.0E-5 1.0E-5 5.0E-5 -2.0E-5 -2.0E-5 -3.0E-5 1.0E-5 2.0E-5 0.0 -1.0E-5 1.0E-5 0.0 0.0 0.0 0.0 0.0 0.0 0.0 0.0 0.0 0.0 0.0 0.0 0.0 0.0 0.0 0.0 0.0 0.0 0.0 0.0 0.0 0.0 0.0 0.0</array><array dataType="xsd:double" dictRef="cc:delta.linear" size="54">0.0 0.0 0.0 0.0 0.0 0.0 0.0 0.0 0.0 0.0 0.0 0.0 0.0 0.0 0.0 0.0 0.0 0.0 0.0 0.0 0.0 0.0 0.0 0.0 0.0 0.0 0.0 0.0 0.0 0.0 0.0 0.0 0.0 0.0 0.0 0.0 0.0 0.0 0.0 0.0 0.0 0.0 0.0 0.0 0.0 0.0 0.0 0.0 0.0 0.0 0.0 0.0 0.0 0.0</array><array dataType="xsd:double" dictRef="cc:delta.quad" size="54">-1.0E-4 -1.1E-4 -1.0E-5 7.0E-5 0.0 -1.8E-4 -8.0E-5 -1.8E-4 6.5E-4 7.0E-5 -8.0E-5 1.0E-5 8.0E-5 -4.0E-5 -4.0E-5 0.0 -8.0E-5 8.0E-5 -2.1E-4 1.1E-4 1.1E-4 3.5E-4 -1.8E-4 -1.7E-4 -2.1E-4 1.1E-4 1.1E-4 0.0 -8.0E-5 8.0E-5 2.0E-5 -1.0E-5 -5.0E-5 -9.0E-5 -3.0E-5 1.0E-5 5.0E-5 9.0E-5 -1.0E-5 -1.0E-5 3.0E-5 3.0E-5 -1.0E-5 6.0E-5 0.0 6.0E-5 0.0 0.0 -7.0E-5 -6.0E-5 2.0E-5 -3.0E-5 1.0E-5 -3.0E-5</array><array dataType="xsd:double" dictRef="cc:delta.total" size="54">-1.0E-4 -1.1E-4 -1.0E-5 7.0E-5 0.0 -1.8E-4 -8.0E-5 -1.8E-4 6.5E-4 7.0E-5 -8.0E-5 1.0E-5 8.0E-5 -4.0E-5 -4.0E-5 0.0 -8.0E-5 8.0E-5 -2.1E-4 1.1E-4 1.1E-4 3.5E-4 -1.8E-4 -1.7E-4 -2.1E-4 1.1E-4 1.1E-4 0.0 -8.0E-5 8.0E-5 2.0E-5 -1.0E-5 -5.0E-5 -9.0E-5 -3.0E-5 1.0E-5 5.0E-5 9.0E-5 -1.0E-5 -1.0E-5 3.0E-5 3.0E-5 -1.0E-5 6.0E-5 0.0 6.0E-5 0.0 0.0 -7.0E-5 -6.0E-5 2.0E-5 -3.0E-5 1.0E-5 -3.0E-5</array><array dataType="xsd:double" dictRef="cc:newval" size="54">2.63371 2.63371 2.04788 2.63525 2.0487 2.62989 2.04538 2.62989 3.628 2.63525 2.04538 2.0487 2.0902 2.09649 2.09649 2.10265 2.0982 2.08234 2.07535 2.10684 2.10099 2.12017 2.08151 2.08151 2.07535 2.10099 2.10684 2.10265 2.0982 2.08234 0.0 3.14159 3.14159 0.0 0.0 -3.14159 -3.14159 0.0 0.0 -3.14159 3.14159 0.0 0.0 -3.14159 3.14159 0.0 0.0 -3.14159 3.14159 0.0 0.0 3.14159 3.14159 0.0</array></list></module><module cmlx:lineCount="5" cmlx:templateRef="l103.itemconverge"><list cmlx:lineCount="4" cmlx:templateRef="row"><array dataType="xsd:string" dictRef="g:item"/><array dataType="xsd:double" dictRef="g:value" size="4">4.5E-4 3.0E-4 0.0018 0.0012</array><array dataType="xsd:double" dictRef="g:threshold" size="4">0.0 0.0 0.0 0.0</array><array dataType="xsd:string" dictRef="g:converged" size="4">YES YES YES YES</array></list></module><module cmlx:lineCount="1" cmlx:templateRef="preddelta"><list cmlx:templateRef="predicted"><scalar dataType="xsd:double" dictRef="g:predchange">-7.17586E-8</scalar></list></module><module cmlx:lineCount="62" cmlx:templateRef="l103.optimizedparam"><list cmlx:templateRef="completed"><scalar dataType="xsd:string" dictRef="g:optimization">Optimization completed.</scalar><scalar dataType="xsd:string" dictRef="g:optimization">-- Stationary point found.</scalar></list><list cmlx:templateRef="length"><array dataType="xsd:string" size="12" dictRef="g:symbol">R1 R2 R3 R4 R5 R6 R7 R8 R9 R10 R11 R12</array><array dataType="xsd:integer" size="12" dictRef="g:atom1">1 1 1 2 2 3 3 4 4 5 5 6</array><array dataType="xsd:integer" size="12" dictRef="g:atom2">2 6 7 3 8 4 9 5 10 6 11 12</array><array dataType="xsd:double" size="12" dictRef="cc:distance">1.3938 1.3938 1.0837 1.3945 1.0841 1.3918 1.0824 1.3918 1.9195 1.3945 1.0824 1.0841</array><array delimiter="|" dataType="xsd:string" size="12" dictRef="g:deriv">|-DE/DX =    0.0|-DE/DX =    0.0|-DE/DX =    0.0|-DE/DX =    0.0|-DE/DX =    0.0|-DE/DX =   -0.0001|-DE/DX =    0.0|-DE/DX =   -0.0001|-DE/DX =    0.0001|-DE/DX =    0.0|-DE/DX =    0.0|-DE/DX =    0.0|</array></list><list cmlx:templateRef="angle"><array dataType="xsd:string" size="18" dictRef="g:symbol">A1 A2 A3 A4 A5 A6 A7 A8 A9 A10 A11 A12 A13 A14 A15 A16 A17 A18</array><array dataType="xsd:integer" size="18" dictRef="g:atom1">2 2 6 1 1 3 2 2 4 3 3 5 4 4 6 1 1 5</array><array dataType="xsd:integer" size="18" dictRef="g:atom2">1 1 1 2 2 2 3 3 3 4 4 4 5 5 5 6 6 6</array><array dataType="xsd:integer" size="18" dictRef="g:atom3">6 7 7 3 8 8 4 9 9 5 10 10 6 11 11 5 12 12</array><array dataType="xsd:double" size="18" dictRef="cc:angle">119.7549 120.1227 120.1224 120.473 120.2227 119.3043 118.9212 120.7071 120.3718 121.4569 119.2716 119.2715 118.9212 120.3717 120.707 120.4729 120.2228 119.3044</array><array delimiter="|" dataType="xsd:string" size="18" dictRef="g:deriv">|-DE/DX =    0.0|-DE/DX =    0.0|-DE/DX =    0.0|-DE/DX =    0.0|-DE/DX =    0.0|-DE/DX =    0.0|-DE/DX =    0.0|-DE/DX =    0.0|-DE/DX =    0.0|-DE/DX =    0.0|-DE/DX =    0.0|-DE/DX =    0.0|-DE/DX =    0.0|-DE/DX =    0.0|-DE/DX =    0.0|-DE/DX =    0.0|-DE/DX =    0.0|-DE/DX =    0.0|</array></list><list cmlx:templateRef="dihed"><array dataType="xsd:string" size="23" dictRef="g:symbol">D1 D2 D3 D4 D5 D6 D7 D8 D9 D10 D11 D12 D13 D14 D15 D16 D17 D18 D19 D20 D21 D22 D23</array><array dataType="xsd:integer" size="23" dictRef="g:atom1">6 6 7 7 2 2 7 7 1 1 8 8 2 2 9 9 3 3 10 10 4 4 11</array><array dataType="xsd:integer" size="23" dictRef="g:atom2">1 1 1 1 1 1 1 1 2 2 2 2 3 3 3 3 4 4 4 4 5 5 5</array><array dataType="xsd:integer" size="23" dictRef="g:atom3">2 2 2 2 6 6 6 6 3 3 3 3 4 4 4 4 5 5 5 5 6 6 6</array><array dataType="xsd:integer" size="23" dictRef="g:atom4">3 8 3 8 5 12 5 12 4 9 4 9 5 10 5 10 6 11 6 11 1 12 1</array><array dataType="xsd:double" size="23" dictRef="cc:dihed">-0.0013 180.0008 180.0029 0.0049 0.0016 -180.0008 -180.0026 -0.0050 4.0E-4 -179.9996 179.9983 -0.0017 3.0E-4 -180.0035 180.0003 -0.0036 0.0 -180.0002 180.0038 0.0036 -9.0E-4 180.0014 179.9993</array><array delimiter="|" dataType="xsd:string" size="23" dictRef="g:deriv">|-DE/DX =    0.0|-DE/DX =    0.0|-DE/DX =    0.0|-DE/DX =    0.0|-DE/DX =    0.0|-DE/DX =    0.0|-DE/DX =    0.0|-DE/DX =    0.0|-DE/DX =    0.0|-DE/DX =    0.0|-DE/DX =    0.0|-DE/DX =    0.0|-DE/DX =    0.0|-DE/DX =    0.0|-DE/DX =    0.0|-DE/DX =    0.0|-DE/DX =    0.0|-DE/DX =    0.0|-DE/DX =    0.0|-DE/DX =    0.0|-DE/DX =    0.0|-DE/DX =    0.0|-DE/DX =    0.0|</array></list> ! D24   D(11,5,6,12)            0.0016         -DE/DX =    0.0                 !</module> -------------------------------------------------------------------------------- GradGradGradGradGradGradGradGradGradGradGradGradGradGradGradGradGradGrad</module><module cmlx:lineCount="145" cmlx:templateRef="l9999.archive"><scalar dataType="xsd:string" dictRef="cc:hostname">GINC-PUBLIX</scalar><scalar dataType="xsd:string" dictRef="g:operation">Freq</scalar><scalar dataType="xsd:string" dictRef="cc:method">RB3LYP</scalar><scalar dataType="xsd:string" dictRef="cc:basis">6-311+G(d,p)</scalar><scalar dataType="xsd:string" dictRef="cc:jobname">NOBODY</scalar><scalar dataType="xsd:date" dictRef="cc:date">2006-09-02T00:00:00Z</scalar><scalar dataType="xsd:string" dictRef="g:keyword">#P</scalar><scalar dataType="xsd:string" dictRef="g:keyword">GEOM=ALLCHECK</scalar><scalar dataType="xsd:string" dictRef="g:keyword">GUESS=READ</scalar><scalar dataType="xsd:string" dictRef="g:keyword">SCRF=CHECK</scalar><scalar dataType="xsd:string" dictRef="g:keyword">GENCHK</scalar><scalar dataType="xsd:string" dictRef="g:keyword">RB3LYP/6-311+G(D,P)</scalar><scalar dataType="xsd:string" dictRef="g:keyword">FREQ</scalar><scalar dataType="xsd:string" dictRef="cc:title">bromobz basis2</scalar><molecule id="a12"><atomArray><atom id="a1" elementType="C" x3="-2.4921181854" y3="-3.563766E-4" z3="-1.4461055849"><scalar dataType="xsd:integer" dictRef="compchem:atomicNumber">6</scalar></atom><atom id="a2" elementType="C" x3="-2.4921873837" y3="-3.572365E-4" z3="-0.0523505917"><scalar dataType="xsd:integer" dictRef="compchem:atomicNumber">6</scalar></atom><atom id="a3" elementType="C" x3="-1.2903669249" y3="-2.123119E-4" z3="0.6548921268"><scalar dataType="xsd:integer" dictRef="compchem:atomicNumber">6</scalar></atom><atom id="a4" elementType="C" x3="-0.0924460971" y3="-5.95385E-5" z3="-0.0536423893"><scalar dataType="xsd:integer" dictRef="compchem:atomicNumber">6</scalar></atom><atom id="a5" elementType="C" x3="-0.0717058015" y3="-4.25083E-5" z3="-1.4452624483"><scalar dataType="xsd:integer" dictRef="compchem:atomicNumber">6</scalar></atom><atom id="a6" elementType="C" x3="-1.2820850348" y3="-1.82493E-4" z3="-2.1377542653"><scalar dataType="xsd:integer" dictRef="compchem:atomicNumber">6</scalar></atom><atom id="a7" elementType="H" x3="-3.4294357567" y3="-4.225169E-4" z3="-1.9900078917"><scalar dataType="xsd:integer" dictRef="compchem:atomicNumber">1</scalar></atom><atom id="a8" elementType="H" x3="-3.4289770497" y3="-5.047893E-4" z3="0.493309044"><scalar dataType="xsd:integer" dictRef="compchem:atomicNumber">1</scalar></atom><atom id="a9" elementType="H" x3="-1.2859977748" y3="-2.188308E-4" z3="1.7372972502"><scalar dataType="xsd:integer" dictRef="compchem:atomicNumber">1</scalar></atom><atom id="a10" elementType="Br" x3="1.5677952103" y3="2.434903E-4" z3="0.9097469124"><scalar dataType="xsd:integer" dictRef="compchem:atomicNumber">35</scalar></atom><atom id="a11" elementType="H" x3="0.8702130711" y3="8.05525E-5" z3="-1.9785626252"><scalar dataType="xsd:integer" dictRef="compchem:atomicNumber">1</scalar></atom><atom id="a12" elementType="H" x3="-1.273178288" y3="-1.937865E-4" z3="-3.2218387955"><scalar dataType="xsd:integer" dictRef="compchem:atomicNumber">1</scalar></atom></atomArray><formula formalCharge="0" concise="C 6 H 5 Br 1" dictRef="cc:formula.calc"/><bondArray><bond atomRefs2="a1 a2" id="a1_a2" order="2"/><bond atomRefs2="a1 a6" id="a1_a6" order="S"/><bond atomRefs2="a1 a7" id="a1_a7" order="S"/><bond atomRefs2="a2 a3" id="a2_a3" order="S"/><bond atomRefs2="a2 a8" id="a2_a8" order="S"/><bond atomRefs2="a3 a4" id="a3_a4" order="2"/><bond atomRefs2="a3 a9" id="a3_a9" order="S"/><bond atomRefs2="a4 a5" id="a4_a5" order="S"/><bond atomRefs2="a4 a10" id="a4_a10" order="S"/><bond atomRefs2="a5 a6" id="a5_a6" order="2"/><bond atomRefs2="a5 a11" id="a5_a11" order="S"/><bond atomRefs2="a6 a12" id="a6_a12" order="S"/></bondArray><property dictRef="cml:molmass"><scalar dataType="xsd:double" units="unit:dalton" xmlns:unit="http://www.xml-cml.org/unit/si/">157.0079</scalar></property><formula concise="C 6 H 5 Br 1" dictRef="cc:formula.user"/></molecule><scalar dataType="xsd:string" dictRef="cc:version">Sun64-SVR4-Unix-G03RevB.04</scalar><scalar dataType="xsd:string" dictRef="cc:electronicstate">1-A</scalar><scalar dataType="xsd:double" dictRef="cc:hfenergy" units="nonsi:hartree">-2805.8538831</scalar><scalar dataType="xsd:double" dictRef="cc:rmsd" units="nonsi:unknown">4.323E-9</scalar><scalar dataType="xsd:double" dictRef="cc:rmsf" units="nonsi:unknown">4.909E-5</scalar><array dataType="xsd:double" size="3" dictRef="cc:dipole" units="nonsi:debye">-0.6335266 -8.49E-5 -0.3676183</array><array dataType="xsd:double" size="108" dictRef="cc:dipolederiv" units="nonsi:unknown">0.0057534 6.402E-4 0.0430702 0.0040625 -0.1420589 0.0011035 0.0481825 0.002048 -0.043326 0.0831473 -4.302E-4 -0.0661362 -8.752E-4 -0.1160502 -4.764E-4 0.0239846 -4.109E-4 0.0502032 -0.3281893 -8.523E-4 -0.0785408 2.667E-4 -0.1050096 1.219E-4 -0.1553639 -0.0031237 -0.0334576 0.8915104 -4.43E-4 0.5095401 -0.0035531 -0.0524361 -8.721E-4 0.5193028 0.0019852 0.3059752 -0.2021856 7.87E-5 -0.2149545 0.0051418 -0.1033489 0.0016107 -0.1482053 8.988E-4 -0.1539403 0.0388562 -2.64E-4 0.0524291 -0.0058743 -0.1177413 -0.0018893 -0.0443351 -6.461E-4 0.0913152 -0.0517021 1.18E-4 -0.0744507 1.716E-4 0.1418518 1.387E-4 -0.0740353 -1.455E-4 0.0314492 -0.0669337 2.545E-4 0.0564881 -1.336E-4 0.1384509 1.03E-5 0.0563707 -3.409E-4 0.0253586 0.0866182 3.58E-5 -0.0148481 4.982E-4 0.1358058 2.372E-4 1.34E-4 6.432E-4 -0.0307708 -0.5017996 1.422E-4 -0.254381 -7.1E-5 -0.053675 -2.463E-4 -0.2552177 -5.724E-4 -0.2142988 -0.0073307 5.235E-4 0.0525739 3.62E-5 0.1356283 1.47E-4 0.0400174 5.83E-5 0.0651897 0.0522555 1.966E-4 -0.0107901 3.303E-4 0.1385833 1.148E-4 -0.0108347 -3.94E-4 -0.0936976</array><array dataType="xsd:double" size="6" dictRef="cc:polarizability" units="nonsi:unknown">112.7620208 0.0081688 51.8197897 14.2094838 -0.0786445 95.8718018</array><scalar dataType="xsd:string" dictRef="cc:pointgroup">C01 [X(C6H5Br1)]</scalar><array dataType="xsd:double" size="666" dictRef="x:unknown">0.71870421 7.086E-5 0.13350758 0.03732658 -2.138E-5 0.67600214 -0.12841324 -1.592E-5 0.03192392 0.71056449 -1.209E-5 -0.06315871 3.51E-6 8.194E-5 0.134272 -0.03166849 1.433E-5 -0.33105031 -0.03601199 -1.466E-5 0.67680535 0.03264362 4.32E-5 -0.0761889 -0.27565381 -3.333E-5 -0.05449308 0.64008973 3.86E-6 0.00736518 -8.49E-6 -2.764E-5 -0.0610299 -6.0E-6 6.921E-5 0.12860386 -0.02967594 2.764E-5 -0.02595737 -0.1230053 -1.313E-5 -0.18063617 0.00234872 -3.23E-6 0.74715315 -0.01803547 -3.033E-5 0.03215799 -0.06151309 -1.03E-6 -0.0301009 -0.25334665 -2.763E-5 0.1300296 0.50811278 -5.32E-6 -0.00614331 2.161E-5 -4.24E-6 0.00688059 -2.084E-5 -6.226E-5 -0.05964432 -1.757E-5 8.189E-5 0.11094952 0.03218047 -4.32E-5 -0.05490345 0.02790111 9.6E-6 0.06477461 0.06908141 7.14E-6 -0.17667225 -0.07542489 3.582E-5 0.59413622 -0.05721451 2.74E-6 0.02169213 -0.01637863 -3.52E-6 -0.02810172 0.03165248 3.36E-6 0.02739636 -0.1099479 -1.916E-5 0.04803522 0.72301229 7.4E-7 0.00736476 -1.322E-5 -1.074E-5 -0.00454153 1.861E-5 5.029E-5 0.00662693 3.726E-5 -4.491E-5 -0.05964002 -4.782E-5 9.235E-5 0.12860695 -0.02490465 -5.2E-6 0.0638254 -0.02852453 -5.86E-6 -0.05206404 0.07261538 9.85E-6 -0.02549452 -0.01299711 1.62E-6 -0.32023214 -0.04489351 -7.7E-6 0.66442229 -0.28105124 3.43E-6 0.05562527 0.03318839 -3.48E-6 0.0766355 -0.06772058 -5.21E-6 0.00114491 0.03268904 -2.514E-5 -0.08388808 -0.2804555 1.263E-5 -0.05170885 0.65407272 -4.188E-5 -0.06315858 2.251E-5 1.675E-5 0.00753353 -1.253E-5 -6.3E-5 -0.00453827 -3.322E-5 4.755E-5 0.00687607 5.111E-5 -4.212E-5 -0.06103616 -6.72E-6 1.96E-5 0.13428171 0.11917789 2.117E-5 -0.1784085 0.03049681 5.66E-6 -0.02806507 7.603E-4 -1.0E-7 -8.0146E-4 -0.02591744 -7.07E-6 -0.02945289 -0.12028397 -1.058E-5 -0.17579382 -0.00376442 -4.51E-6 0.73328513 -0.26696253 -2.725E-5 -0.12075655 0.00383446 1.87E-6 0.00237685 0.00177264 -9.6E-7 5.565E-4 2.6341E-4 8.42E-6 0.00108445 -0.00298022 -1.198E-5 0.00381511 -0.01839896 1.064E-5 -0.01599337 0.28174327 -1.452E-5 -0.03638866 -5.31E-6 -1.34E-6 0.0030155 -4.5E-7 1.5E-7 0.00691775 -2.77E-6 -1.64E-6 -6.3772E-4 3.9E-7 -1.31E-6 0.00691998 1.55E-6 -2.66E-6 0.00301325 -2.67E-6 2.027E-5 0.02550089 -0.12074297 -1.283E-5 -0.12895341 -0.0287122 -1.29E-6 -0.01061689 0.00111549 -6.0E-8 -0.00545796 0.00111017 3.59E-6 -0.00100508 0.00323596 -4.72E-6 -7.3276E-4 0.01508257 7.9E-6 0.0116282 0.12979383 8.78E-6 0.13338617 0.0038689 -6.93E-6 -0.00231156 -0.26571459 -3.398E-5 0.12074892 -0.01924567 -3.67E-6 0.01536665 -0.0020087 4.96E-6 -0.00304292 1.3541E-4 -7.48E-6 -8.6627E-4 0.00178873 8.02E-6 -4.1616E-4 6.8269E-4 6.5E-7 3.9235E-4 0.28072744 5.3E-7 0.00352758 -1.1E-7 -3.615E-5 -0.03679896 1.946E-5 -3.64E-6 0.00350765 5.0E-8 -5.0E-7 0.00722434 1.36E-6 -2.0E-7 -9.8889E-4 8.0E-8 -1.55E-6 0.00689205 -1.7E-7 6.5E-7 -0.00396038 -5.0E-8 3.908E-5 0.02539808 0.02868441 8.39E-6 -0.01011664 0.12070437 1.878E-5 -0.12902079 -0.01564333 -2.05E-6 0.0110019 -0.00275173 -4.4E-6 -2.1931E-4 -8.6808E-4 4.2E-6 -6.9637E-4 -0.00111678 -4.71E-6 -0.00571505 -3.9886E-4 -3.5E-7 9.9241E-4 -0.12955606 -2.06E-5 0.13367461 -0.00439962 -1.72E-6 -0.00223361 0.00440346 8.0E-8 -0.02787386 -0.05614688 -2.52E-6 -0.00163644 0.0021049 2.7E-7 0.02783397 -0.00471324 -1.81E-6 0.00228472 -0.00117927 3.6E-7 -8.514E-5 4.62E-5 6.0E-8 -0.00132834 9.3492E-4 6.6E-7 4.572E-4 0.05793122 5.3E-7 0.00722136 3.3E-7 -1.37E-6 0.00358844 -1.73E-6 4.5E-7 -0.035655 1.28E-6 -3.64E-6 0.00209761 -5.9E-7 -2.4E-7 0.00596787 1.59E-6 3.42E-6 -0.00104251 -3.0E-7 -9.1E-7 1.6804E-4 -9.4E-7 2.2E-7 -0.00418798 8.0E-8 4.23E-6 0.02457843 -0.00278837 -4.37E-6 8.3396E-4 0.00220324 -9.7E-7 -0.01031843 0.00133787 2.43E-6 -0.34093247 -0.00339903 6.03E-6 -0.01222469 0.00288054 -4.96E-6 7.379E-4 -8.63E-6 4.09E-6 7.3618E-4 1.8533E-4 9.5E-7 -5.5547E-4 -1.8251E-4 4.1E-7 7.9168E-4 4.4423E-4 -1.31E-6 0.36022852 -0.00121107 -1.813E-5 -0.00160852 -3.32E-6 2.63E-6 0.00679226 -0.03446333 -7.44E-6 -0.02174851 -0.097002 3.12E-6 -0.03836895 -0.0155961 -2.555E-5 -0.01030844 0.00345881 2.491E-5 -0.00122291 -9.43E-6 -3.1E-7 -1.4315E-4 -0.00118391 4.6E-7 -9.8979E-4 6.7038E-4 -1.45E-6 -5.5398E-4 0.14497026 -2.55E-6 -8.8601E-4 -6.42E-6 1.75E-6 0.00438636 2.85E-6 -3.16E-6 0.00287018 6.56E-6 -1.379E-5 -0.0172847 -1.303E-5 -2.42E-6 0.00286472 -3.72E-6 6.3E-7 0.00439196 1.4E-6 -4.0E-7 -7.5626E-4 3.7E-7 -9.0E-7 1.2087E-4 8.2E-7 2.3E-7 -0.00219337 -2.81E-6 2.263E-5 0.00855858 -0.00157429 4.66E-6 6.0296E-4 7.261E-4 -5.0E-8 2.6246E-4 4.7921E-4 5.0E-8 0.00272667 -0.0383084 -1.109E-5 -0.05317835 -0.03260156 -1.23E-6 -0.0161541 0.00479985 -4.43E-6 -0.00316649 -1.3762E-4 -1.9E-7 1.6208E-4 1.333E-5 -1.3E-7 -1.2282E-4 7.6577E-4 3.1E-7 0.00124456 0.06788607 1.298E-5 0.06740052 -0.00261762 -1.91E-5 -0.00383963 2.1356E-4 2.82E-6 -8.0244E-4 0.0016488 -1.45E-6 -7.0181E-4 0.00184914 1.735E-5 -0.00328586 -0.27095507 -5.255E-5 0.1240931 -0.01774186 2.106E-5 0.01488257 -9.0233E-4 -2.1E-7 7.2821E-4 -2.94E-5 6.3E-7 8.364E-5 2.4518E-4 -1.52E-6 -1.2425E-4 0.00117861 -1.16E-6 -8.4176E-4 0.28616952 -5.5E-7 0.00722143 2.66E-6 -6.6E-7 -0.00103959 -5.6E-7 -9.6E-7 0.00596532 -4.21E-6 -2.12E-6 0.00209714 2.62E-6 -3.049E-5 -0.0356529 1.724E-5 -2.02E-6 0.00358662 8.9E-7 -8.0E-8 1.6778E-4 -1.2E-7 4.9E-7 -8.7765E-4 -5.0E-7 5.0E-8 3.3451E-4 7.3E-7 6.3E-7 -0.00219276 -9.6E-7 3.474E-5 0.02457799 -0.00324956 8.77E-6 -9.3509E-4 -8.8472E-4 -2.4E-6 -6.673E-4 -0.00133796 6.3E-7 -0.00560711 0.02797441 -4.29E-6 -0.01194131 0.12113287 2.757E-5 -0.12613505 -0.01520771 -1.522E-5 0.01183057 -7.8864E-4 3.8E-7 3.8836E-4 6.67E-5 -1.4E-7 6.026E-5 0.00137832 1.44E-6 -4.7253E-4 4.6908E-4 -1.9E-7 7.1625E-4 -0.13000567 -1.726E-5 0.13198175 0.00468857 -8.4E-7 0.02821289 -0.00452766 -1.92E-6 0.00249894 -0.00123035 1.0E-7 -7.474E-5 -0.00316545 1.0E-7 -0.00210593 0.00344099 -9.8E-7 -0.02860495 -0.05865027 -1.89E-6 0.00236583 9.108E-4 8.6E-7 -5.3191E-4 4.417E-5 4.0E-8 0.001395 1.0276E-4 2.9E-7 5.57E-6 -8.0891E-4 -8.4E-7 -0.00120669 9.4147E-4 9.6E-7 4.5288E-4 0.05825387 4.0E-7 0.00352739 4.3E-6 -2.37E-6 0.00689227 1.52E-6 3.05E-6 -9.8938E-4 1.35E-6 -3.85E-6 0.00722478 -3.4E-6 1.02E-6 0.0035083 -2.72E-6 3.4E-7 -0.03679968 -3.71E-6 -2.6E-7 -0.00396017 -6.3E-7 -4.7E-7 1.4328E-4 3.6E-7 1.1E-7 -8.7741E-4 -2.0E-7 -1.49E-6 1.2044E-4 7.0E-8 -6.0E-7 -0.00418788 7.1E-7 4.13E-6 0.02539805 -0.00276507 2.01E-6 -0.01093967 0.00318321 8.1E-7 5.9657E-4 -7.511E-5 -1.5E-7 6.7758E-4 -0.00237268 -3.41E-6 9.1863E-4 0.00237576 2.6E-6 -0.01168279 0.00240638 -4.27E-6 -0.3360768 2.6297E-4 -2.9E-7 7.6436E-4 -2.1247E-4 -1.6E-7 -6.2987E-4 -6.82E-6 -1.7E-7 -6.922E-5 -2.0315E-4 1.19E-6 -4.9373E-4 -1.861E-4 -5.2E-7 7.8122E-4 -0.0024069 2.36E-6 0.35615371</array><array dataType="xsd:double" size="36" dictRef="x:unknown">-3.912E-5 -6.25E-6 -2.11E-5 3.78E-6 3.92E-6 6.091E-5 -8.38E-5 9.2E-7 -4.836E-5 1.9157E-4 -4.3E-6 1.1131E-4 -8.393E-5 4.4E-7 -4.859E-5 5.569E-5 4.51E-6 -2.81E-5 -3.13E-6 2.69E-6 -2.13E-6 5.58E-6 -1.54E-6 8.23E-6 -1.12E-6 -2.6E-7 2.438E-5 -7.62E-5 1.72E-6 -4.434E-5 2.066E-5 -3.1E-7 -1.314E-5 1.002E-5 -1.53E-6 9.4E-7</array></module> ...THOSE SCIENCES ARE VAIN AND FULL OF ERRORS WHICH  ARE NOT BORN FROM EXPERIMENT, THE MOTHER OF CERTAINTY...                          -- LEONARDO DA VINCI, 1452-1519<module cmlx:lineCount="3" cmlx:templateRef="jobcpu"><scalar dictRef="cc:jobtime" dataType="xsd:string">PT10769.800S</scalar><scalar dataType="xsd:string" dictRef="cc:jobdatetime.end">Sat Sep  2 23:42:39 2006</scalar><scalar dataType="xsd:string" dictRef="cc:program">Gaussian 03</scalar></module></module>
