 Entering Gaussian System, Link 0=/usr/local/Gaussian/g03/g03
 Initial command:
 /usr/local/Gaussian/g03/l1.exe /export/scratch//webmo/3298/Gau-26645.inp -scrdir=/export/scratch//webmo/3298/
 Entering Link 1 = /usr/local/Gaussian/g03/l1.exe PID=     26647.
  
 Copyright (c) 1988,1990,1992,1993,1995,1998,2003, Gaussian, Inc.
                  All Rights Reserved.
  
 This is the Gaussian(R) 03 program.  It is based on the
 the Gaussian(R) 98 system (copyright 1998, Gaussian, Inc.),
 the Gaussian(R) 94 system (copyright 1995, Gaussian, Inc.),
 the Gaussian 92(TM) system (copyright 1992, Gaussian, Inc.),
 the Gaussian 90(TM) system (copyright 1990, Gaussian, Inc.),
 the Gaussian 88(TM) system (copyright 1988, Gaussian, Inc.),
 the Gaussian 86(TM) system (copyright 1986, Carnegie Mellon
 University), and the Gaussian 82(TM) system (copyright 1983,
 Carnegie Mellon University). Gaussian is a federally registered
 trademark of Gaussian, Inc.
  
 This software contains proprietary and confidential information,
 including trade secrets, belonging to Gaussian, Inc.
  
 This software is provided under written license and may be
 used, copied, transmitted, or stored only in accord with that
 written license.
  
 The following legend is applicable only to US Government
 contracts under DFARS:
  
                    RESTRICTED RIGHTS LEGEND
  
 Use, duplication or disclosure by the US Government is subject
 to restrictions as set forth in subparagraph (c)(1)(ii) of the
 Rights in Technical Data and Computer Software clause at DFARS
 252.227-7013.
  
 Gaussian, Inc.
 Carnegie Office Park, Building 6, Pittsburgh, PA 15106 USA
  
 The following legend is applicable only to US Government
 contracts under FAR:
  
                    RESTRICTED RIGHTS LEGEND
  
 Use, reproduction and disclosure by the US Government is subject
 to restrictions as set forth in subparagraph (c) of the
 Commercial Computer Software - Restricted Rights clause at FAR
 52.227-19.
  
 Gaussian, Inc.
 Carnegie Office Park, Building 6, Pittsburgh, PA 15106 USA
  
  
 ---------------------------------------------------------------
 Warning -- This program may not be used in any manner that
 competes with the business of Gaussian, Inc. or will provide
 assistance to any competitor of Gaussian, Inc.  The licensee
 of this program is prohibited from giving any competitor of
 Gaussian, Inc. access to this program.  By using this program,
 the user acknowledges that Gaussian, Inc. is engaged in the
 business of creating and licensing software in the field of
 computational chemistry and represents and warrants to the
 licensee that it is not a competitor of Gaussian, Inc. and that
 it will not use this program in any manner prohibited above.
 ---------------------------------------------------------------
  

 Cite this work as:
 Gaussian 03, Revision B.04,
 M. J. Frisch, G. W. Trucks, H. B. Schlegel, G. E. Scuseria, 
 M. A. Robb, J. R. Cheeseman, J. A. Montgomery, Jr., T. Vreven, 
 K. N. Kudin, J. C. Burant, J. M. Millam, S. S. Iyengar, J. Tomasi, 
 V. Barone, B. Mennucci, M. Cossi, G. Scalmani, N. Rega, 
 G. A. Petersson, H. Nakatsuji, M. Hada, M. Ehara, K. Toyota, 
 R. Fukuda, J. Hasegawa, M. Ishida, T. Nakajima, Y. Honda, O. Kitao, 
 H. Nakai, M. Klene, X. Li, J. E. Knox, H. P. Hratchian, J. B. Cross, 
 C. Adamo, J. Jaramillo, R. Gomperts, R. E. Stratmann, O. Yazyev, 
 A. J. Austin, R. Cammi, C. Pomelli, J. W. Ochterski, P. Y. Ayala, 
 K. Morokuma, G. A. Voth, P. Salvador, J. J. Dannenberg, 
 V. G. Zakrzewski, S. Dapprich, A. D. Daniels, M. C. Strain, 
 O. Farkas, D. K. Malick, A. D. Rabuck, K. Raghavachari, 
 J. B. Foresman, J. V. Ortiz, Q. Cui, A. G. Baboul, S. Clifford, 
 J. Cioslowski, B. B. Stefanov, G. Liu, A. Liashenko, P. Piskorz, 
 I. Komaromi, R. L. Martin, D. J. Fox, T. Keith, M. A. Al-Laham, 
 C. Y. Peng, A. Nanayakkara, M. Challacombe, P. M. W. Gill, 
 B. Johnson, W. Chen, M. W. Wong, C. Gonzalez, and J. A. Pople, 
 Gaussian, Inc., Pittsburgh PA, 2003.
 
 ***************************************************
 Gaussian 03:  Sun64-SVR4-Unix-G03RevB.04 2-Jun-2003
                     22-Aug-2006 
 ***************************************************
 ------------------------------
 #P B3LYP/6-311+G(d,p) OPT FREQ
 ------------------------------
 1/14=-1,18=20,26=3,38=1/1,3;
 2/9=110,17=6,18=5,40=1/2;
 3/5=4,6=6,7=111,11=2,16=1,25=1,30=1,74=-5/1,2,3;
 4//1;
 5/5=2,38=5/2;
 6/7=2,8=2,9=2,10=2,28=1/1;
 7//1,2,3,16;
 1/14=-1,18=20/3(1);
 99//99;
 2/9=110/2;
 3/5=4,6=6,7=111,11=2,16=1,25=1,30=1,74=-5/1,2,3;
 4/5=5,16=3/1;
 5/5=2,38=5/2;
 7//1,2,3,16;
 1/14=-1,18=20/3(-5);
 2/9=110/2;
 6/7=2,8=2,9=2,10=2,19=2,28=1/1;
 99/9=1/99;
 Leave Link    1 at Tue Aug 22 10:13:10 2006, MaxMem=          0 cpu:       0.2
 (Enter /usr/local/Gaussian/g03/l101.exe)
 ------------------------
 aniline/cl complex basis
 ------------------------
 Symbolic Z-matrix:
 Charge =  0 Multiplicity = 2
 C
 C                    1    B1
 C                    1    B2       2    A1
 C                    1    B3       2    A2       3    D1       0
 C                    1    B4       2    A3       3    D2       0
 C                    1    B5       2    A4       3    D3       0
 H                    1    B6       2    A5       3    D4       0
 N                    1    B7       2    A6       3    D5       0
 H                    1    B8       2    A7       3    D6       0
 H                    1    B9       2    A8       3    D7       0
 H                    1    B10      2    A9       3    D8       0
 H                    1    B11      2    A10      3    D9       0
 Cl                   1    B12      2    A11      3    D10      0
 H                    1    B13      2    A12      3    D11      0
 H                    1    B14      2    A13      3    D12      0
       Variables:
  A10                 146.35417                  
  A11                  94.97685                  
  A12                  20.88348                  
  B1                    1.41372                  
  A13                  51.62639                  
  B2                    2.43765                  
  B3                    2.79314                  
  B4                    2.41981                  
  B5                    1.37197                  
  B6                    1.08456                  
  B7                    2.40753                  
  B8                    3.41829                  
  B10                   3.38934                  
  B9                    3.87569                  
  B11                   2.13039                  
  B12                   3.94697                  
  B13                   3.3174                   
  B14                   2.61304                  
  D10                  40.56261                  
  D11                 174.7163                   
  D12                 176.97631                  
  D1                    0.58721                  
  D2                    1.50697                  
  D3                    1.19667                  
  A1                   30.44266                  
  D4                 -179.41655                  
  A2                   59.85881                  
  D5                 -178.86021                  
  A3                   90.18631                  
  A4                  120.24059                  
  D6                   -0.45211                  
  D7                    0.62333                  
  A5                  119.28418                  
  D8                   -0.95576                  
  A6                   29.14553                  
  D9                    1.78173                  
  A7                   21.23949                  
  A8                   60.06801                  
  A9                   99.36219                  
 
                    Isotopes and Nuclear Properties:

  Atom         1           2           3           4           5           6           7           8           9          10
 IAtWgt=          12          12          12          12          12          12           1          14           1           1
 AtmWgt=  12.0000000  12.0000000  12.0000000  12.0000000  12.0000000  12.0000000   1.0078250  14.0030740   1.0078250   1.0078250
 IAtSpn=           0           0           0           0           0           0           1           2           1           1
 AtZEff=   0.0000000   0.0000000   0.0000000   0.0000000   0.0000000   0.0000000   0.0000000   0.0000000   0.0000000   0.0000000
 AtQMom=   0.0000000   0.0000000   0.0000000   0.0000000   0.0000000   0.0000000   0.0000000   1.5600000   0.0000000   0.0000000
 AtGFac=   0.0000000   0.0000000   0.0000000   0.0000000   0.0000000   0.0000000   2.7928460   0.4037610   2.7928460   2.7928460

  Atom        11          12          13          14          15
 IAtWgt=           1           1          35           1           1
 AtmWgt=   1.0078250   1.0078250  34.9688527   1.0078250   1.0078250
 IAtSpn=           1           1           3           1           1
 AtZEff=   0.0000000   0.0000000   0.0000000   0.0000000   0.0000000
 AtQMom=   0.0000000   0.0000000  -8.2490000   0.0000000   0.0000000
 AtGFac=   2.7928460   2.7928460   0.8218740   2.7928460   2.7928460
 Leave Link  101 at Tue Aug 22 10:13:11 2006, MaxMem=    6291456 cpu:       0.2
 (Enter /usr/local/Gaussian/g03/l103.exe)

 GradGradGradGradGradGradGradGradGradGradGradGradGradGradGradGradGradGrad
 Berny optimization.
 Initialization pass.
                           ----------------------------
                           !    Initial Parameters    !
                           ! (Angstroms and Degrees)  !
 --------------------------                            --------------------------
 ! Name  Definition              Value          Derivative Info.                !
 --------------------------------------------------------------------------------
 ! R1    R(1,2)                  1.4137         estimate D2E/DX2                !
 ! R2    R(1,6)                  1.372          estimate D2E/DX2                !
 ! R3    R(1,7)                  1.0846         estimate D2E/DX2                !
 ! R4    R(2,3)                  1.4137         estimate D2E/DX2                !
 ! R5    R(2,8)                  1.36           estimate D2E/DX2                !
 ! R6    R(3,4)                  1.372          estimate D2E/DX2                !
 ! R7    R(3,9)                  1.0846         estimate D2E/DX2                !
 ! R8    R(4,5)                  1.4109         estimate D2E/DX2                !
 ! R9    R(4,10)                 1.0826         estimate D2E/DX2                !
 ! R10   R(4,13)                 3.1279         estimate D2E/DX2                !
 ! R11   R(5,6)                  1.4109         estimate D2E/DX2                !
 ! R12   R(5,11)                 1.0793         estimate D2E/DX2                !
 ! R13   R(5,13)                 2.579          estimate D2E/DX2                !
 ! R14   R(6,12)                 1.0826         estimate D2E/DX2                !
 ! R15   R(6,13)                 3.1275         estimate D2E/DX2                !
 ! R16   R(8,14)                 1.0055         estimate D2E/DX2                !
 ! R17   R(8,15)                 1.0055         estimate D2E/DX2                !
 ! R18   R(11,13)                2.6452         estimate D2E/DX2                !
 ! A1    A(2,1,6)              120.2406         estimate D2E/DX2                !
 ! A2    A(2,1,7)              119.2842         estimate D2E/DX2                !
 ! A3    A(6,1,7)              120.4724         estimate D2E/DX2                !
 ! A4    A(1,2,3)              119.115          estimate D2E/DX2                !
 ! A5    A(1,2,8)              120.4387         estimate D2E/DX2                !
 ! A6    A(3,2,8)              120.4364         estimate D2E/DX2                !
 ! A7    A(2,3,4)              120.2416         estimate D2E/DX2                !
 ! A8    A(2,3,9)              119.2826         estimate D2E/DX2                !
 ! A9    A(4,3,9)              120.473          estimate D2E/DX2                !
 ! A10   A(3,4,5)              120.7988         estimate D2E/DX2                !
 ! A11   A(3,4,10)             119.9736         estimate D2E/DX2                !
 ! A12   A(3,4,13)             117.1373         estimate D2E/DX2                !
 ! A13   A(5,4,10)             119.2141         estimate D2E/DX2                !
 ! A14   A(10,4,13)             96.0678         estimate D2E/DX2                !
 ! A15   A(4,5,6)              118.7488         estimate D2E/DX2                !
 ! A16   A(4,5,11)             120.1664         estimate D2E/DX2                !
 ! A17   A(6,5,11)             120.1656         estimate D2E/DX2                !
 ! A18   A(1,6,5)              120.8            estimate D2E/DX2                !
 ! A19   A(1,6,12)             119.9752         estimate D2E/DX2                !
 ! A20   A(1,6,13)             117.1414         estimate D2E/DX2                !
 ! A21   A(5,6,12)             119.2111         estimate D2E/DX2                !
 ! A22   A(12,6,13)             96.0438         estimate D2E/DX2                !
 ! A23   A(2,8,14)             120.2933         estimate D2E/DX2                !
 ! A24   A(2,8,15)             120.2907         estimate D2E/DX2                !
 ! A25   A(14,8,15)            116.8776         estimate D2E/DX2                !
 ! A26   A(4,13,6)              45.6832         estimate D2E/DX2                !
 ! A27   A(4,13,11)             43.038          estimate D2E/DX2                !
 ! A28   A(6,13,11)             43.0426         estimate D2E/DX2                !
 ! D1    D(6,1,2,3)              1.1967         estimate D2E/DX2                !
 ! D2    D(6,1,2,8)           -179.9431         estimate D2E/DX2                !
 ! D3    D(7,1,2,3)           -179.4165         estimate D2E/DX2                !
 ! D4    D(7,1,2,8)             -0.5563         estimate D2E/DX2                !
 ! D5    D(2,1,6,5)              0.6195         estimate D2E/DX2                !
 ! D6    D(2,1,6,12)           179.2636         estimate D2E/DX2                !
 ! D7    D(2,1,6,13)            63.6524         estimate D2E/DX2                !
 ! D8    D(7,1,6,5)           -178.7599         estimate D2E/DX2                !
 ! D9    D(7,1,6,12)            -0.1158         estimate D2E/DX2                !
 ! D10   D(7,1,6,13)          -115.727          estimate D2E/DX2                !
 ! D11   D(1,2,3,4)             -1.1968         estimate D2E/DX2                !
 ! D12   D(1,2,3,9)            179.4082         estimate D2E/DX2                !
 ! D13   D(8,2,3,4)            179.943          estimate D2E/DX2                !
 ! D14   D(8,2,3,9)              0.5479         estimate D2E/DX2                !
 ! D15   D(1,2,8,14)           171.2351         estimate D2E/DX2                !
 ! D16   D(1,2,8,15)             9.8636         estimate D2E/DX2                !
 ! D17   D(3,2,8,14)            -9.9199         estimate D2E/DX2                !
 ! D18   D(3,2,8,15)          -171.2913         estimate D2E/DX2                !
 ! D19   D(2,3,4,5)             -0.6194         estimate D2E/DX2                !
 ! D20   D(2,3,4,10)          -179.2734         estimate D2E/DX2                !
 ! D21   D(2,3,4,13)           -63.6329         estimate D2E/DX2                !
 ! D22   D(9,3,4,5)            178.7684         estimate D2E/DX2                !
 ! D23   D(9,3,4,10)             0.1144         estimate D2E/DX2                !
 ! D24   D(9,3,4,13)           115.755          estimate D2E/DX2                !
 ! D25   D(3,4,5,6)              2.4067         estimate D2E/DX2                !
 ! D26   D(3,4,5,11)           171.4552         estimate D2E/DX2                !
 ! D27   D(10,4,5,6)          -178.9292         estimate D2E/DX2                !
 ! D28   D(10,4,5,11)           -9.8807         estimate D2E/DX2                !
 ! D29   D(3,4,13,6)            77.7706         estimate D2E/DX2                !
 ! D30   D(3,4,13,11)          140.9636         estimate D2E/DX2                !
 ! D31   D(10,4,13,6)         -153.9827         estimate D2E/DX2                !
 ! D32   D(10,4,13,11)         -90.7896         estimate D2E/DX2                !
 ! D33   D(4,5,6,1)             -2.4068         estimate D2E/DX2                !
 ! D34   D(4,5,6,12)           178.9389         estimate D2E/DX2                !
 ! D35   D(11,5,6,1)          -171.4554         estimate D2E/DX2                !
 ! D36   D(11,5,6,12)            9.8903         estimate D2E/DX2                !
 ! D37   D(1,6,13,4)           -77.7804         estimate D2E/DX2                !
 ! D38   D(1,6,13,11)         -140.9636         estimate D2E/DX2                !
 ! D39   D(12,6,13,4)          153.9863         estimate D2E/DX2                !
 ! D40   D(12,6,13,11)          90.8031         estimate D2E/DX2                !
 --------------------------------------------------------------------------------
 Trust Radius=3.00D-01 FncErr=1.00D-07 GrdErr=1.00D-06
 Number of steps in this run=  96 maximum allowed number of steps= 100.
 GradGradGradGradGradGradGradGradGradGradGradGradGradGradGradGradGradGrad

 Leave Link  103 at Tue Aug 22 10:13:13 2006, MaxMem=    6291456 cpu:       0.0
 (Enter /usr/local/Gaussian/g03/l202.exe)
                          Input orientation:                          
 ---------------------------------------------------------------------
 Center     Atomic     Atomic              Coordinates (Angstroms)
 Number     Number      Type              X           Y           Z
 ---------------------------------------------------------------------
    1          6             0        0.000000    0.000000    0.000000
    2          6             0        0.000000    0.000000    1.413716
    3          6             0        1.235097    0.000000    2.101586
    4          6             0        2.415356   -0.024755    1.402527
    5          6             0        2.418956   -0.063637   -0.007869
    6          6             0        1.185015   -0.024754   -0.690970
    7          1             0       -0.945911    0.009633   -0.530504
    8          7             0       -1.172309    0.023324    2.102706
    9          1             0        1.238295    0.009771    3.186099
   10          1             0        3.358543   -0.036540    1.933858
   11          1             0        3.343727    0.055783   -0.551361
   12          1             0        1.179790   -0.036700   -1.773506
   13         17             0        2.987191   -2.556953   -0.342412
   14          1             0       -1.177524   -0.108898    3.099470
   15          1             0       -2.045719   -0.108060    1.622142
 ---------------------------------------------------------------------
                    Distance matrix (angstroms):
                    1          2          3          4          5
     1  C    0.000000
     2  C    1.413716   0.000000
     3  C    2.437648   1.413730   0.000000
     4  C    2.793142   2.415509   1.371972   0.000000
     5  C    2.419806   2.806474   2.419787   1.410936   0.000000
     6  C    1.371975   2.415487   2.793115   2.428265   1.410939
     7  H    1.084562   2.162136   3.418302   3.877617   3.406001
     8  N    2.407535   1.359985   2.407519   3.655667   4.166445
     9  H    3.418289   2.162132   1.084562   2.137239   3.405991
    10  H    3.875688   3.398778   2.130373   1.082614   2.157281
    11  H    3.389340   3.878808   3.389330   2.164726   1.079281
    12  H    2.130393   3.398769   3.875660   3.407925   2.157251
    13  Cl   3.946970   4.306426   3.947274   3.127913   2.579038
    14  H    3.317399   2.059172   2.613116   3.974353   4.753133
    15  H    2.613042   2.059147   3.317424   4.467255   4.753129
                    6          7          8          9         10
     6  C    0.000000
     7  H    2.137236   0.000000
     8  N    3.655669   2.642960   0.000000
     9  H    3.877589   4.310904   2.642903   0.000000
    10  H    3.407945   4.960195   4.534392   2.462865   0.000000
    11  H    2.164720   4.289937   5.238292   4.289938   2.486977
    12  H    1.082614   2.462885   4.534422   4.960168   4.300176
    13  Cl   3.127518   4.700216   5.471551   4.700756   3.416401
    14  H    4.467227   3.639287   1.005510   2.420283   4.683993
    15  H    3.974302   2.420190   1.005510   3.639313   5.413717
                   11         12         13         14         15
    11  H    0.000000
    12  H    2.486929   0.000000
    13  Cl   2.645216   3.415612   0.000000
    14  H    5.813553   5.413690   5.931643   0.000000
    15  H    5.813527   4.683954   5.931841   1.713553   0.000000
 Stoichiometry    C6H7ClN(2)
 Framework group  C1[X(C6H7ClN)]
 Deg. of freedom    39
 Full point group                 C1      NOp   1
 Largest Abelian subgroup         C1      NOp   1
 Largest concise Abelian subgroup C1      NOp   1
                         Standard orientation:                         
 ---------------------------------------------------------------------
 Center     Atomic     Atomic              Coordinates (Angstroms)
 Number     Number      Type              X           Y           Z
 ---------------------------------------------------------------------
    1          6             0        1.069367   -1.218761    0.176841
    2          6             0        1.701235   -0.000150   -0.161275
    3          6             0        1.069653    1.218887    0.175895
    4          6             0       -0.151800    1.214598    0.800667
    5          6             0       -0.803249    0.000662    1.105160
    6          6             0       -0.152087   -1.213667    0.801612
    7          1             0        1.555960   -2.155552   -0.072005
    8          7             0        2.911469   -0.000510   -0.781672
    9          1             0        1.556557    2.155352   -0.073570
   10          1             0       -0.636967    2.150720    1.046311
   11          1             0       -1.692967    0.000999    1.716101
   12          1             0       -0.637590   -2.149456    1.047862
   13         17             0       -2.560082   -0.000375   -0.782954
   14          1             0        3.298618    0.856011   -1.138795
   15          1             0        3.298791   -0.857541   -1.137380
 ---------------------------------------------------------------------
 Rotational constants (GHZ):      3.1669764      0.9773199      0.9360305
 Leave Link  202 at Tue Aug 22 10:13:14 2006, MaxMem=    6291456 cpu:       0.5
 (Enter /usr/local/Gaussian/g03/l301.exe)
 Standard basis: 6-311+G(d,p) (5D, 7F)
 There are   226 symmetry adapted basis functions of A   symmetry.
 Integral buffers will be    131072 words long.
 Raffenetti 2 integral format.
 Two-electron integral symmetry is turned on.
   226 basis functions,   361 primitive gaussians,   234 cartesian basis functions
    34 alpha electrons       33 beta electrons
       nuclear repulsion energy       394.3449578962 Hartrees.
 IExCor= 402 DFT=T Ex=B+HF Corr=LYP ExCW=0 ScaHFX=  0.200000
 ScaDFX=  0.800000  0.720000  1.000000  0.810000
 IRadAn=      0 IRanWt=     -1 IRanGd=            0 ICorTp=0
 NAtoms=   15 NActive=   15 NUniq=   15 SFac= 1.00D+00 NAtFMM=   60 Big=F
 Leave Link  301 at Tue Aug 22 10:13:15 2006, MaxMem=    6291456 cpu:       0.1
 (Enter /usr/local/Gaussian/g03/l302.exe)
 NPDir=0 NMtPBC=     1 NCelOv=     1 NCel=       1 NClECP=     1 NCelD=      1
         NCelK=      1 NCelE2=     1 NClLst=     1 CellRange=     0.0.
 One-electron integrals computed using PRISM.
 NBasis=   226 RedAO= T  NBF=   226
 NBsUse=   226 1.00D-06 NBFU=   226
 Precomputing XC quadrature grid using
 IXCGrd= 2 IRadAn=           0 IRanWt=          -1 IRanGd=           0.
 NRdTot=     962 NPtTot=      121884 NUsed=      128679 NTot=      128711
 NSgBfM=   233   233   233   233.
 Leave Link  302 at Tue Aug 22 10:13:25 2006, MaxMem=    6291456 cpu:       2.7
 (Enter /usr/local/Gaussian/g03/l303.exe)
 DipDrv:  MaxL=1.
 Leave Link  303 at Tue Aug 22 10:13:27 2006, MaxMem=    6291456 cpu:       0.2
 (Enter /usr/local/Gaussian/g03/l401.exe)
 Harris functional with IExCor=  402 diagonalized for initial guess.
 ExpMin= 4.38D-02 ExpMax= 1.06D+05 ExpMxC= 3.62D+03 IAcc=2 IRadAn=         4 AccDes= 0.00D+00
 HarFok:  IExCor= 402 AccDes= 0.00D+00 IRadAn=         4 IDoV=1
 ScaDFX=  1.000000  1.000000  1.000000  1.000000
 Harris En= -747.985565897183    
 Initial guess orbital symmetries:
 Alpha Orbitals:
       Occupied  (A) (A) (A) (A) (A) (A) (A) (A) (A) (A) (A) (A)
                 (A) (A) (A) (A) (A) (A) (A) (A) (A) (A) (A) (A)
                 (A) (A) (A) (A) (A) (A) (A) (A) (A) (A)
       Virtual   (A) (A) (A) (A) (A) (A) (A) (A) (A) (A) (A) (A)
                 (A) (A) (A) (A) (A) (A) (A) (A) (A) (A) (A) (A)
                 (A) (A) (A) (A) (A) (A) (A) (A) (A) (A) (A) (A)
                 (A) (A) (A) (A) (A) (A) (A) (A) (A) (A) (A) (A)
                 (A) (A) (A) (A) (A) (A) (A) (A) (A) (A) (A) (A)
                 (A) (A) (A) (A) (A) (A) (A) (A) (A) (A) (A) (A)
                 (A) (A) (A) (A) (A) (A) (A) (A) (A) (A) (A) (A)
                 (A) (A) (A) (A) (A) (A) (A) (A) (A) (A) (A) (A)
                 (A) (A) (A) (A) (A) (A) (A) (A) (A) (A) (A) (A)
                 (A) (A) (A) (A) (A) (A) (A) (A) (A) (A) (A) (A)
                 (A) (A) (A) (A) (A) (A) (A) (A) (A) (A) (A) (A)
                 (A) (A) (A) (A) (A) (A) (A) (A) (A) (A) (A) (A)
                 (A) (A) (A) (A) (A) (A) (A) (A) (A) (A) (A) (A)
                 (A) (A) (A) (A) (A) (A) (A) (A) (A) (A) (A) (A)
                 (A) (A) (A) (A) (A) (A) (A) (A) (A) (A) (A) (A)
                 (A) (A) (A) (A) (A) (A) (A) (A) (A) (A) (A) (A)
 Beta  Orbitals:
       Occupied  (A) (A) (A) (A) (A) (A) (A) (A) (A) (A) (A) (A)
                 (A) (A) (A) (A) (A) (A) (A) (A) (A) (A) (A) (A)
                 (A) (A) (A) (A) (A) (A) (A) (A) (A)
       Virtual   (A) (A) (A) (A) (A) (A) (A) (A) (A) (A) (A) (A)
                 (A) (A) (A) (A) (A) (A) (A) (A) (A) (A) (A) (A)
                 (A) (A) (A) (A) (A) (A) (A) (A) (A) (A) (A) (A)
                 (A) (A) (A) (A) (A) (A) (A) (A) (A) (A) (A) (A)
                 (A) (A) (A) (A) (A) (A) (A) (A) (A) (A) (A) (A)
                 (A) (A) (A) (A) (A) (A) (A) (A) (A) (A) (A) (A)
                 (A) (A) (A) (A) (A) (A) (A) (A) (A) (A) (A) (A)
                 (A) (A) (A) (A) (A) (A) (A) (A) (A) (A) (A) (A)
                 (A) (A) (A) (A) (A) (A) (A) (A) (A) (A) (A) (A)
                 (A) (A) (A) (A) (A) (A) (A) (A) (A) (A) (A) (A)
                 (A) (A) (A) (A) (A) (A) (A) (A) (A) (A) (A) (A)
                 (A) (A) (A) (A) (A) (A) (A) (A) (A) (A) (A) (A)
                 (A) (A) (A) (A) (A) (A) (A) (A) (A) (A) (A) (A)
                 (A) (A) (A) (A) (A) (A) (A) (A) (A) (A) (A) (A)
                 (A) (A) (A) (A) (A) (A) (A) (A) (A) (A) (A) (A)
                 (A) (A) (A) (A) (A) (A) (A) (A) (A) (A) (A) (A)
                 (A)
 The electronic state of the initial guess is 2-A.
 <S**2> of initial guess= 0.7500
 Leave Link  401 at Tue Aug 22 10:15:08 2006, MaxMem=    6291456 cpu:      32.1
 (Enter /usr/local/Gaussian/g03/l502.exe)
 UHF open shell SCF:
 Requested convergence on RMS density matrix=1.00D-08 within 128 cycles.
 Requested convergence on MAX density matrix=1.00D-06.
 Requested convergence on             energy=1.00D-06.
 No special actions if energy rises.
 Using DIIS extrapolation, IDIIS=  1040.
 Integral symmetry usage will be decided dynamically.
       128678 words used for storage of precomputed grid.
 IEnd=    340228 IEndB=    340228 NGot=   6291456 MDV=   6022859
 LenX=   6022859
 Fock matrices will be formed incrementally for  20 cycles.

 Cycle   1  Pass 1  IDiag  1:
 Petite list used in FoFDir.
 MinBra= 0 MaxBra= 2 Meth= 1.
 IRaf=       0 NMat=   1 IRICut=       1 DoRegI=T DoRafI=F ISym2E= 1 JSym2E=1.
 E= -747.636003682162    
 DIIS: error= 3.23D-02 at cycle   1 NSaved=   1.
 NSaved= 1 IEnMin= 1 EnMin= -747.636003682162     IErMin= 1 ErrMin= 3.23D-02
 ErrMax= 3.23D-02 EMaxC= 1.00D-01 BMatC= 9.74D-01 BMatP= 9.74D-01
 IDIUse=3 WtCom= 6.77D-01 WtEn= 3.23D-01
 Coeff-Com:  0.100D+01
 Coeff-En:   0.100D+01
 Coeff:      0.100D+01
 Gap=     0.223 Goal=   None    Shift=    0.000
 Gap=     0.107 Goal=   None    Shift=    0.000
 GapD=    0.107 DampG=1.000 DampE=0.500 DampFc=0.5000 IDamp=-1.
 Damping current iteration by 5.00D-01
 RMSDP=2.42D-02 MaxDP=2.17D+00              OVMax= 2.71D-01

 Cycle   2  Pass 1  IDiag  1:
 RMSU=  1.15D-02    CP:  1.11D+00
 E= -747.738377322892     Delta-E=       -0.102373640730 Rises=F Damp=T
 DIIS: error= 7.15D-03 at cycle   2 NSaved=   2.
 NSaved= 2 IEnMin= 2 EnMin= -747.738377322892     IErMin= 2 ErrMin= 7.15D-03
 ErrMax= 7.15D-03 EMaxC= 1.00D-01 BMatC= 5.45D-02 BMatP= 9.74D-01
 IDIUse=3 WtCom= 9.29D-01 WtEn= 7.15D-02
 Coeff-Com:  0.463D-01 0.954D+00
 Coeff-En:   0.146D+00 0.854D+00
 Coeff:      0.534D-01 0.947D+00
 Gap=     0.210 Goal=   None    Shift=    0.000
 Gap=     0.105 Goal=   None    Shift=    0.000
 RMSDP=1.21D-02 MaxDP=1.06D+00 DE=-1.02D-01 OVMax= 1.90D-01

 Cycle   3  Pass 1  IDiag  1:
 RMSU=  6.02D-03    CP:  1.00D+00  1.47D-01
 E= -747.864252613865     Delta-E=       -0.125875290973 Rises=F Damp=F
 DIIS: error= 9.80D-03 at cycle   3 NSaved=   3.
 NSaved= 3 IEnMin= 3 EnMin= -747.864252613865     IErMin= 2 ErrMin= 7.15D-03
 ErrMax= 9.80D-03 EMaxC= 1.00D-01 BMatC= 6.02D-02 BMatP= 5.45D-02
 IDIUse=3 WtCom= 9.17D-02 WtEn= 9.08D-01
 Coeff-Com: -0.262D-01 0.521D+00 0.505D+00
 Coeff-En:   0.000D+00 0.000D+00 0.100D+01
 Coeff:     -0.241D-02 0.478D-01 0.955D+00
 Gap=     0.211 Goal=   None    Shift=    0.000
 Gap=     0.112 Goal=   None    Shift=    0.000
 RMSDP=7.66D-03 MaxDP=6.36D-01 DE=-1.26D-01 OVMax= 1.78D-01

 Cycle   4  Pass 1  IDiag  1:
 RMSU=  3.40D-03    CP:  1.02D+00  5.66D-01  1.91D-01
 E= -747.824132216146     Delta-E=        0.040120397719 Rises=F Damp=F
 DIIS: error= 1.94D-02 at cycle   4 NSaved=   4.
 NSaved= 4 IEnMin= 3 EnMin= -747.864252613865     IErMin= 2 ErrMin= 7.15D-03
 ErrMax= 1.94D-02 EMaxC= 1.00D-01 BMatC= 1.98D-01 BMatP= 5.45D-02
 IDIUse=2 WtCom= 0.00D+00 WtEn= 1.00D+00
 Coeff-En:   0.000D+00 0.000D+00 0.725D+00 0.275D+00
 Coeff:      0.000D+00 0.000D+00 0.725D+00 0.275D+00
 Gap=     0.200 Goal=   None    Shift=    0.000
 Gap=     0.095 Goal=   None    Shift=    0.000
 RMSDP=3.57D-03 MaxDP=3.16D-01 DE= 4.01D-02 OVMax= 1.01D-01

 Cycle   5  Pass 1  IDiag  1:
 RMSU=  8.95D-04    CP:  9.86D-01  3.41D-01  4.82D-01  7.12D-01
 E= -747.878216739350     Delta-E=       -0.054084523204 Rises=F Damp=F
 DIIS: error= 3.56D-03 at cycle   5 NSaved=   5.
 NSaved= 5 IEnMin= 5 EnMin= -747.878216739350     IErMin= 5 ErrMin= 3.56D-03
 ErrMax= 3.56D-03 EMaxC= 1.00D-01 BMatC= 9.80D-03 BMatP= 5.45D-02
 IDIUse=3 WtCom= 9.64D-01 WtEn= 3.56D-02
 Coeff-Com:  0.761D-02-0.703D-02 0.244D+00-0.339D-01 0.790D+00
 Coeff-En:   0.000D+00 0.000D+00 0.174D+00 0.000D+00 0.826D+00
 Coeff:      0.734D-02-0.678D-02 0.241D+00-0.327D-01 0.791D+00
 Gap=     0.186 Goal=   None    Shift=    0.000
 Gap=     0.096 Goal=   None    Shift=    0.000
 RMSDP=1.28D-03 MaxDP=1.06D-01 DE=-5.41D-02 OVMax= 3.25D-02

 Cycle   6  Pass 1  IDiag  1:
 RMSU=  2.43D-04    CP:  9.85D-01  2.74D-01  6.22D-01  5.61D-01  8.55D-01
 E= -747.880904170176     Delta-E=       -0.002687430826 Rises=F Damp=F
 DIIS: error= 8.43D-04 at cycle   6 NSaved=   6.
 NSaved= 6 IEnMin= 6 EnMin= -747.880904170176     IErMin= 6 ErrMin= 8.43D-04
 ErrMax= 8.43D-04 EMaxC= 1.00D-01 BMatC= 3.53D-04 BMatP= 9.80D-03
 IDIUse=3 WtCom= 9.92D-01 WtEn= 8.43D-03
 Coeff-Com:  0.547D-02-0.183D-01 0.118D+00-0.510D-01 0.572D+00 0.373D+00
 Coeff-En:   0.000D+00 0.000D+00 0.000D+00 0.000D+00 0.000D+00 0.100D+01
 Coeff:      0.542D-02-0.182D-01 0.117D+00-0.505D-01 0.568D+00 0.378D+00
 Gap=     0.187 Goal=   None    Shift=    0.000
 Gap=     0.096 Goal=   None    Shift=    0.000
 RMSDP=1.97D-04 MaxDP=1.93D-02 DE=-2.69D-03 OVMax= 9.93D-03

 Cycle   7  Pass 1  IDiag  1:
 RMSU=  1.08D-04    CP:  9.84D-01  2.72D-01  6.03D-01  5.81D-01  9.40D-01
                    CP:  8.34D-01
 E= -747.881015107164     Delta-E=       -0.000110936988 Rises=F Damp=F
 DIIS: error= 1.59D-04 at cycle   7 NSaved=   7.
 NSaved= 7 IEnMin= 7 EnMin= -747.881015107164     IErMin= 7 ErrMin= 1.59D-04
 ErrMax= 1.59D-04 EMaxC= 1.00D-01 BMatC= 1.04D-05 BMatP= 3.53D-04
 IDIUse=3 WtCom= 9.98D-01 WtEn= 1.59D-03
 Coeff-Com:  0.167D-02-0.495D-02 0.588D-02-0.183D-01 0.108D+00 0.132D+00
 Coeff-Com:  0.776D+00
 Coeff-En:   0.000D+00 0.000D+00 0.000D+00 0.000D+00 0.000D+00 0.000D+00
 Coeff-En:   0.100D+01
 Coeff:      0.167D-02-0.494D-02 0.587D-02-0.183D-01 0.107D+00 0.132D+00
 Coeff:      0.777D+00
 Gap=     0.187 Goal=   None    Shift=    0.000
 Gap=     0.096 Goal=   None    Shift=    0.000
 RMSDP=6.99D-05 MaxDP=4.98D-03 DE=-1.11D-04 OVMax= 4.75D-03

 Cycle   8  Pass 1  IDiag  1:
 RMSU=  4.43D-05    CP:  9.83D-01  2.74D-01  6.00D-01  5.91D-01  9.44D-01
                    CP:  9.25D-01  8.85D-01
 E= -747.881020139884     Delta-E=       -0.000005032720 Rises=F Damp=F
 DIIS: error= 1.18D-04 at cycle   8 NSaved=   8.
 NSaved= 8 IEnMin= 8 EnMin= -747.881020139884     IErMin= 8 ErrMin= 1.18D-04
 ErrMax= 1.18D-04 EMaxC= 1.00D-01 BMatC= 8.55D-06 BMatP= 1.04D-05
 IDIUse=3 WtCom= 9.99D-01 WtEn= 1.18D-03
 Coeff-Com: -0.811D-04-0.111D-03-0.203D-01-0.461D-03-0.499D-01-0.287D-01
 Coeff-Com:  0.510D+00 0.590D+00
 Coeff-En:   0.000D+00 0.000D+00 0.000D+00 0.000D+00 0.000D+00 0.000D+00
 Coeff-En:   0.000D+00 0.100D+01
 Coeff:     -0.810D-04-0.111D-03-0.203D-01-0.461D-03-0.498D-01-0.287D-01
 Coeff:      0.509D+00 0.591D+00
 Gap=     0.187 Goal=   None    Shift=    0.000
 Gap=     0.096 Goal=   None    Shift=    0.000
 RMSDP=3.39D-05 MaxDP=1.68D-03 DE=-5.03D-06 OVMax= 6.86D-04

 Cycle   9  Pass 1  IDiag  1:
 RMSU=  1.82D-05    CP:  9.83D-01  2.73D-01  5.98D-01  5.95D-01  9.51D-01
                    CP:  9.71D-01  1.05D+00  1.10D+00
 E= -747.881023055580     Delta-E=       -0.000002915697 Rises=F Damp=F
 DIIS: error= 6.05D-05 at cycle   9 NSaved=   9.
 NSaved= 9 IEnMin= 9 EnMin= -747.881023055580     IErMin= 9 ErrMin= 6.05D-05
 ErrMax= 6.05D-05 EMaxC= 1.00D-01 BMatC= 1.33D-06 BMatP= 8.55D-06
 IDIUse=1 WtCom= 1.00D+00 WtEn= 0.00D+00
 Coeff-Com: -0.565D-03 0.171D-02-0.119D-01 0.679D-02-0.625D-01-0.852D-01
 Coeff-Com:  0.400D-01 0.255D+00 0.856D+00
 Coeff:     -0.565D-03 0.171D-02-0.119D-01 0.679D-02-0.625D-01-0.852D-01
 Coeff:      0.400D-01 0.255D+00 0.856D+00
 Gap=     0.187 Goal=   None    Shift=    0.000
 Gap=     0.096 Goal=   None    Shift=    0.000
 RMSDP=2.23D-05 MaxDP=9.24D-04 DE=-2.92D-06 OVMax= 7.42D-04

 Cycle  10  Pass 1  IDiag  1:
 RMSU=  8.44D-06    CP:  9.83D-01  2.73D-01  5.98D-01  5.97D-01  9.52D-01
                    CP:  1.02D+00  1.15D+00  1.19D+00  1.42D+00
 E= -747.881023930884     Delta-E=       -0.000000875303 Rises=F Damp=F
 DIIS: error= 2.04D-05 at cycle  10 NSaved=  10.
 NSaved=10 IEnMin=10 EnMin= -747.881023930884     IErMin=10 ErrMin= 2.04D-05
 ErrMax= 2.04D-05 EMaxC= 1.00D-01 BMatC= 1.44D-07 BMatP= 1.33D-06
 IDIUse=1 WtCom= 1.00D+00 WtEn= 0.00D+00
 Coeff-Com: -0.183D-03 0.470D-03 0.115D-02 0.170D-02-0.511D-02-0.187D-01
 Coeff-Com: -0.853D-01-0.534D-01 0.220D+00 0.939D+00
 Coeff:     -0.183D-03 0.470D-03 0.115D-02 0.170D-02-0.511D-02-0.187D-01
 Coeff:     -0.853D-01-0.534D-01 0.220D+00 0.939D+00
 Gap=     0.187 Goal=   None    Shift=    0.000
 Gap=     0.096 Goal=   None    Shift=    0.000
 RMSDP=9.84D-06 MaxDP=6.40D-04 DE=-8.75D-07 OVMax= 3.53D-04

 Cycle  11  Pass 1  IDiag  1:
 RMSU=  3.62D-06    CP:  9.83D-01  2.73D-01  5.97D-01  5.98D-01  9.54D-01
                    CP:  1.02D+00  1.16D+00  1.31D+00  1.56D+00  1.16D+00
 E= -747.881024088953     Delta-E=       -0.000000158069 Rises=F Damp=F
 DIIS: error= 1.33D-05 at cycle  11 NSaved=  11.
 NSaved=11 IEnMin=11 EnMin= -747.881024088953     IErMin=11 ErrMin= 1.33D-05
 ErrMax= 1.33D-05 EMaxC= 1.00D-01 BMatC= 4.59D-08 BMatP= 1.44D-07
 IDIUse=1 WtCom= 1.00D+00 WtEn= 0.00D+00
 Coeff-Com:  0.105D-03-0.286D-03 0.331D-02-0.162D-02 0.152D-01 0.214D-01
 Coeff-Com: -0.384D-01-0.643D-01-0.178D+00 0.207D+00 0.103D+01
 Coeff:      0.105D-03-0.286D-03 0.331D-02-0.162D-02 0.152D-01 0.214D-01
 Coeff:     -0.384D-01-0.643D-01-0.178D+00 0.207D+00 0.103D+01
 Gap=     0.187 Goal=   None    Shift=    0.000
 Gap=     0.096 Goal=   None    Shift=    0.000
 RMSDP=4.50D-06 MaxDP=2.03D-04 DE=-1.58D-07 OVMax= 2.27D-04

 Cycle  12  Pass 1  IDiag  1:
 RMSU=  2.13D-06    CP:  9.83D-01  2.73D-01  5.97D-01  5.98D-01  9.54D-01
                    CP:  1.02D+00  1.14D+00  1.34D+00  1.65D+00  1.34D+00
                    CP:  1.41D+00
 E= -747.881024131893     Delta-E=       -0.000000042941 Rises=F Damp=F
 DIIS: error= 4.31D-06 at cycle  12 NSaved=  12.
 NSaved=12 IEnMin=12 EnMin= -747.881024131893     IErMin=12 ErrMin= 4.31D-06
 ErrMax= 4.31D-06 EMaxC= 1.00D-01 BMatC= 1.40D-08 BMatP= 4.59D-08
 IDIUse=1 WtCom= 1.00D+00 WtEn= 0.00D+00
 Coeff-Com:  0.887D-04-0.228D-03 0.160D-02-0.110D-02 0.858D-02 0.146D-01
 Coeff-Com: -0.969D-02-0.198D-01-0.126D+00-0.442D-01 0.523D+00 0.653D+00
 Coeff:      0.887D-04-0.228D-03 0.160D-02-0.110D-02 0.858D-02 0.146D-01
 Coeff:     -0.969D-02-0.198D-01-0.126D+00-0.442D-01 0.523D+00 0.653D+00
 Gap=     0.187 Goal=   None    Shift=    0.000
 Gap=     0.096 Goal=   None    Shift=    0.000
 RMSDP=1.79D-06 MaxDP=1.04D-04 DE=-4.29D-08 OVMax= 6.50D-05

 Cycle  13  Pass 1  IDiag  1:
 RMSU=  5.40D-07    CP:  9.83D-01  2.73D-01  5.98D-01  5.98D-01  9.54D-01
                    CP:  1.02D+00  1.14D+00  1.34D+00  1.63D+00  1.41D+00
                    CP:  1.53D+00  1.30D+00
 E= -747.881024137976     Delta-E=       -0.000000006082 Rises=F Damp=F
 DIIS: error= 1.32D-06 at cycle  13 NSaved=  13.
 NSaved=13 IEnMin=13 EnMin= -747.881024137976     IErMin=13 ErrMin= 1.32D-06
 ErrMax= 1.32D-06 EMaxC= 1.00D-01 BMatC= 1.58D-09 BMatP= 1.40D-08
 IDIUse=1 WtCom= 1.00D+00 WtEn= 0.00D+00
 Coeff-Com:  0.144D-04-0.326D-04-0.111D-03-0.202D-04-0.307D-03 0.806D-03
 Coeff-Com:  0.323D-02 0.940D-02-0.564D-02-0.632D-01-0.487D-01 0.207D+00
 Coeff-Com:  0.897D+00
 Coeff:      0.144D-04-0.326D-04-0.111D-03-0.202D-04-0.307D-03 0.806D-03
 Coeff:      0.323D-02 0.940D-02-0.564D-02-0.632D-01-0.487D-01 0.207D+00
 Coeff:      0.897D+00
 Gap=     0.187 Goal=   None    Shift=    0.000
 Gap=     0.096 Goal=   None    Shift=    0.000
 RMSDP=9.56D-07 MaxDP=8.71D-05 DE=-6.08D-09 OVMax= 3.46D-05

 Cycle  14  Pass 1  IDiag  1:
 RMSU=  3.62D-07    CP:  9.83D-01  2.73D-01  5.98D-01  5.98D-01  9.54D-01
                    CP:  1.02D+00  1.13D+00  1.34D+00  1.64D+00  1.42D+00
                    CP:  1.61D+00  1.38D+00  1.06D+00
 E= -747.881024139038     Delta-E=       -0.000000001062 Rises=F Damp=F
 DIIS: error= 4.91D-07 at cycle  14 NSaved=  14.
 NSaved=14 IEnMin=14 EnMin= -747.881024139038     IErMin=14 ErrMin= 4.91D-07
 ErrMax= 4.91D-07 EMaxC= 1.00D-01 BMatC= 8.49D-11 BMatP= 1.58D-09
 IDIUse=1 WtCom= 1.00D+00 WtEn= 0.00D+00
 Coeff-Com: -0.947D-05 0.210D-04-0.158D-03 0.109D-03-0.875D-03-0.130D-02
 Coeff-Com:  0.624D-03 0.261D-02 0.119D-01-0.319D-03-0.542D-01-0.573D-01
 Coeff-Com:  0.938D-01 0.101D+01
 Coeff:     -0.947D-05 0.210D-04-0.158D-03 0.109D-03-0.875D-03-0.130D-02
 Coeff:      0.624D-03 0.261D-02 0.119D-01-0.319D-03-0.542D-01-0.573D-01
 Coeff:      0.938D-01 0.101D+01
 Gap=     0.187 Goal=   None    Shift=    0.000
 Gap=     0.096 Goal=   None    Shift=    0.000
 RMSDP=2.38D-07 MaxDP=9.18D-06 DE=-1.06D-09 OVMax= 1.48D-05

 Cycle  15  Pass 1  IDiag  1:
 RMSU=  9.52D-08    CP:  9.83D-01  2.73D-01  5.98D-01  5.98D-01  9.54D-01
                    CP:  1.02D+00  1.13D+00  1.34D+00  1.63D+00  1.42D+00
                    CP:  1.62D+00  1.45D+00  1.19D+00  1.10D+00
 E= -747.881024139126     Delta-E=       -0.000000000088 Rises=F Damp=F
 DIIS: error= 1.42D-07 at cycle  15 NSaved=  15.
 NSaved=15 IEnMin=15 EnMin= -747.881024139126     IErMin=15 ErrMin= 1.42D-07
 ErrMax= 1.42D-07 EMaxC= 1.00D-01 BMatC= 1.49D-11 BMatP= 8.49D-11
 IDIUse=1 WtCom= 1.00D+00 WtEn= 0.00D+00
 Coeff-Com: -0.358D-05 0.781D-05-0.178D-04 0.173D-04-0.108D-03-0.190D-03
 Coeff-Com: -0.280D-03-0.258D-03 0.184D-02 0.672D-02-0.252D-02-0.276D-01
 Coeff-Com: -0.967D-01 0.108D+00 0.101D+01
 Coeff:     -0.358D-05 0.781D-05-0.178D-04 0.173D-04-0.108D-03-0.190D-03
 Coeff:     -0.280D-03-0.258D-03 0.184D-02 0.672D-02-0.252D-02-0.276D-01
 Coeff:     -0.967D-01 0.108D+00 0.101D+01
 Gap=     0.187 Goal=   None    Shift=    0.000
 Gap=     0.096 Goal=   None    Shift=    0.000
 RMSDP=9.62D-08 MaxDP=7.18D-06 DE=-8.80D-11 OVMax= 4.32D-06

 Cycle  16  Pass 1  IDiag  1:
 RMSU=  2.90D-08    CP:  9.83D-01  2.73D-01  5.98D-01  5.98D-01  9.54D-01
                    CP:  1.02D+00  1.13D+00  1.34D+00  1.63D+00  1.43D+00
                    CP:  1.63D+00  1.45D+00  1.22D+00  1.22D+00  1.12D+00
 E= -747.881024139137     Delta-E=       -0.000000000011 Rises=F Damp=F
 DIIS: error= 5.60D-08 at cycle  16 NSaved=  16.
 NSaved=16 IEnMin=16 EnMin= -747.881024139137     IErMin=16 ErrMin= 5.60D-08
 ErrMax= 5.60D-08 EMaxC= 1.00D-01 BMatC= 1.53D-12 BMatP= 1.49D-11
 IDIUse=1 WtCom= 1.00D+00 WtEn= 0.00D+00
 Coeff-Com: -0.563D-07 0.155D-06 0.925D-05-0.365D-05 0.455D-04 0.602D-04
 Coeff-Com: -0.135D-03-0.266D-03-0.712D-03 0.192D-02 0.463D-02-0.141D-02
 Coeff-Com: -0.358D-01-0.670D-01 0.274D+00 0.824D+00
 Coeff:     -0.563D-07 0.155D-06 0.925D-05-0.365D-05 0.455D-04 0.602D-04
 Coeff:     -0.135D-03-0.266D-03-0.712D-03 0.192D-02 0.463D-02-0.141D-02
 Coeff:     -0.358D-01-0.670D-01 0.274D+00 0.824D+00
 Gap=     0.187 Goal=   None    Shift=    0.000
 Gap=     0.096 Goal=   None    Shift=    0.000
 RMSDP=3.56D-08 MaxDP=2.84D-06 DE=-1.14D-11 OVMax= 1.45D-06

 Cycle  17  Pass 1  IDiag  1:
 RMSU=  1.28D-08    CP:  9.83D-01  2.73D-01  5.98D-01  5.98D-01  9.54D-01
                    CP:  1.02D+00  1.13D+00  1.34D+00  1.63D+00  1.43D+00
                    CP:  1.63D+00  1.45D+00  1.21D+00  1.24D+00  1.20D+00
                    CP:  1.01D+00
 E= -747.881024139139     Delta-E=       -0.000000000002 Rises=F Damp=F
 DIIS: error= 2.60D-08 at cycle  17 NSaved=  17.
 NSaved=17 IEnMin=17 EnMin= -747.881024139139     IErMin=17 ErrMin= 2.60D-08
 ErrMax= 2.60D-08 EMaxC= 1.00D-01 BMatC= 4.99D-13 BMatP= 1.53D-12
 IDIUse=1 WtCom= 1.00D+00 WtEn= 0.00D+00
 Coeff-Com:  0.571D-06-0.127D-05 0.812D-05-0.468D-05 0.432D-04 0.568D-04
 Coeff-Com: -0.158D-04-0.122D-03-0.667D-03 0.714D-04 0.283D-02 0.269D-02
 Coeff-Com: -0.561D-02-0.481D-01 0.105D-02 0.400D+00 0.648D+00
 Coeff:      0.571D-06-0.127D-05 0.812D-05-0.468D-05 0.432D-04 0.568D-04
 Coeff:     -0.158D-04-0.122D-03-0.667D-03 0.714D-04 0.283D-02 0.269D-02
 Coeff:     -0.561D-02-0.481D-01 0.105D-02 0.400D+00 0.648D+00
 Gap=     0.187 Goal=   None    Shift=    0.000
 Gap=     0.096 Goal=   None    Shift=    0.000
 RMSDP=1.12D-08 MaxDP=5.43D-07 DE=-1.82D-12 OVMax= 6.99D-07

 Cycle  18  Pass 1  IDiag  1:
 RMSU=  5.01D-09    CP:  9.83D-01  2.73D-01  5.98D-01  5.98D-01  9.54D-01
                    CP:  1.02D+00  1.13D+00  1.34D+00  1.64D+00  1.43D+00
                    CP:  1.63D+00  1.45D+00  1.21D+00  1.24D+00  1.23D+00
                    CP:  1.10D+00  1.12D+00
 E= -747.881024139137     Delta-E=        0.000000000002 Rises=F Damp=F
 DIIS: error= 9.76D-09 at cycle  18 NSaved=  18.
 NSaved=18 IEnMin=17 EnMin= -747.881024139139     IErMin=18 ErrMin= 9.76D-09
 ErrMax= 9.76D-09 EMaxC= 1.00D-01 BMatC= 6.66D-14 BMatP= 4.99D-13
 IDIUse=1 WtCom= 1.00D+00 WtEn= 0.00D+00
 Coeff-Com:  0.198D-06-0.428D-06 0.946D-06-0.694D-06 0.490D-05 0.342D-05
 Coeff-Com:  0.186D-04-0.367D-05-0.871D-04-0.263D-03 0.162D-03 0.950D-03
 Coeff-Com:  0.472D-02-0.295D-02-0.481D-01-0.690D-02 0.243D+00 0.810D+00
 Coeff:      0.198D-06-0.428D-06 0.946D-06-0.694D-06 0.490D-05 0.342D-05
 Coeff:      0.186D-04-0.367D-05-0.871D-04-0.263D-03 0.162D-03 0.950D-03
 Coeff:      0.472D-02-0.295D-02-0.481D-01-0.690D-02 0.243D+00 0.810D+00
 Gap=     0.187 Goal=   None    Shift=    0.000
 Gap=     0.096 Goal=   None    Shift=    0.000
 RMSDP=8.36D-09 MaxDP=4.79D-07 DE= 2.05D-12 OVMax= 4.56D-07

 SCF Done:  E(UB+HF-LYP) =  -747.881024139     A.U. after   18 cycles
             Convg  =    0.8357D-08             -V/T =  2.0031
             S**2   =   0.7561
 KE= 7.455452704988D+02 PE=-2.551170923199D+03 EE= 6.633996706651D+02
 Annihilation of the first spin contaminant:
 S**2 before annihilation     0.7561,   after     0.7500
 Leave Link  502 at Tue Aug 22 13:32:11 2006, MaxMem=    6291456 cpu:    3729.4
 (Enter /usr/local/Gaussian/g03/l601.exe)
 Copying SCF densities to generalized density rwf, ISCF=1 IROHF=0.

 **********************************************************************

            Population analysis using the SCF density.

 **********************************************************************

 Orbital symmetries:
 Alpha Orbitals:
       Occupied  (A) (A) (A) (A) (A) (A) (A) (A) (A) (A) (A) (A)
                 (A) (A) (A) (A) (A) (A) (A) (A) (A) (A) (A) (A)
                 (A) (A) (A) (A) (A) (A) (A) (A) (A) (A)
       Virtual   (A) (A) (A) (A) (A) (A) (A) (A) (A) (A) (A) (A)
                 (A) (A) (A) (A) (A) (A) (A) (A) (A) (A) (A) (A)
                 (A) (A) (A) (A) (A) (A) (A) (A) (A) (A) (A) (A)
                 (A) (A) (A) (A) (A) (A) (A) (A) (A) (A) (A) (A)
                 (A) (A) (A) (A) (A) (A) (A) (A) (A) (A) (A) (A)
                 (A) (A) (A) (A) (A) (A) (A) (A) (A) (A) (A) (A)
                 (A) (A) (A) (A) (A) (A) (A) (A) (A) (A) (A) (A)
                 (A) (A) (A) (A) (A) (A) (A) (A) (A) (A) (A) (A)
                 (A) (A) (A) (A) (A) (A) (A) (A) (A) (A) (A) (A)
                 (A) (A) (A) (A) (A) (A) (A) (A) (A) (A) (A) (A)
                 (A) (A) (A) (A) (A) (A) (A) (A) (A) (A) (A) (A)
                 (A) (A) (A) (A) (A) (A) (A) (A) (A) (A) (A) (A)
                 (A) (A) (A) (A) (A) (A) (A) (A) (A) (A) (A) (A)
                 (A) (A) (A) (A) (A) (A) (A) (A) (A) (A) (A) (A)
                 (A) (A) (A) (A) (A) (A) (A) (A) (A) (A) (A) (A)
                 (A) (A) (A) (A) (A) (A) (A) (A) (A) (A) (A) (A)
 Beta  Orbitals:
       Occupied  (A) (A) (A) (A) (A) (A) (A) (A) (A) (A) (A) (A)
                 (A) (A) (A) (A) (A) (A) (A) (A) (A) (A) (A) (A)
                 (A) (A) (A) (A) (A) (A) (A) (A) (A)
       Virtual   (A) (A) (A) (A) (A) (A) (A) (A) (A) (A) (A) (A)
                 (A) (A) (A) (A) (A) (A) (A) (A) (A) (A) (A) (A)
                 (A) (A) (A) (A) (A) (A) (A) (A) (A) (A) (A) (A)
                 (A) (A) (A) (A) (A) (A) (A) (A) (A) (A) (A) (A)
                 (A) (A) (A) (A) (A) (A) (A) (A) (A) (A) (A) (A)
                 (A) (A) (A) (A) (A) (A) (A) (A) (A) (A) (A) (A)
                 (A) (A) (A) (A) (A) (A) (A) (A) (A) (A) (A) (A)
                 (A) (A) (A) (A) (A) (A) (A) (A) (A) (A) (A) (A)
                 (A) (A) (A) (A) (A) (A) (A) (A) (A) (A) (A) (A)
                 (A) (A) (A) (A) (A) (A) (A) (A) (A) (A) (A) (A)
                 (A) (A) (A) (A) (A) (A) (A) (A) (A) (A) (A) (A)
                 (A) (A) (A) (A) (A) (A) (A) (A) (A) (A) (A) (A)
                 (A) (A) (A) (A) (A) (A) (A) (A) (A) (A) (A) (A)
                 (A) (A) (A) (A) (A) (A) (A) (A) (A) (A) (A) (A)
                 (A) (A) (A) (A) (A) (A) (A) (A) (A) (A) (A) (A)
                 (A) (A) (A) (A) (A) (A) (A) (A) (A) (A) (A) (A)
                 (A)
 The electronic state is 2-A.
 Alpha  occ. eigenvalues -- -101.48091 -14.37146 -10.25937 -10.20799 -10.20230
 Alpha  occ. eigenvalues --  -10.20228 -10.19743 -10.19743  -9.39329  -7.16108
 Alpha  occ. eigenvalues --   -7.14822  -7.14811  -0.97438  -0.87430  -0.78003
 Alpha  occ. eigenvalues --   -0.76592  -0.73339  -0.64816  -0.64089  -0.56529
 Alpha  occ. eigenvalues --   -0.55984  -0.51547  -0.46660  -0.46182  -0.45222
 Alpha  occ. eigenvalues --   -0.43053  -0.39353  -0.37103  -0.36613  -0.29022
 Alpha  occ. eigenvalues --   -0.28837  -0.25928  -0.25694  -0.22275
 Alpha virt. eigenvalues --   -0.03561  -0.02951  -0.02007   0.00681   0.00710
 Alpha virt. eigenvalues --    0.03442   0.03691   0.04968   0.05946   0.06460
 Alpha virt. eigenvalues --    0.07234   0.07563   0.08275   0.10016   0.10518
 Alpha virt. eigenvalues --    0.11991   0.12220   0.12355   0.12534   0.12821
 Alpha virt. eigenvalues --    0.12988   0.14745   0.15856   0.15977   0.16267
 Alpha virt. eigenvalues --    0.16512   0.17075   0.18016   0.18683   0.19291
 Alpha virt. eigenvalues --    0.20004   0.20456   0.21326   0.21386   0.22221
 Alpha virt. eigenvalues --    0.23181   0.23883   0.25178   0.25316   0.26296
 Alpha virt. eigenvalues --    0.27065   0.28945   0.30053   0.30269   0.31321
 Alpha virt. eigenvalues --    0.33774   0.35033   0.44299   0.44672   0.47954
 Alpha virt. eigenvalues --    0.50154   0.50178   0.50566   0.52318   0.52999
 Alpha virt. eigenvalues --    0.53287   0.53481   0.54082   0.56829   0.57152
 Alpha virt. eigenvalues --    0.58555   0.61874   0.62342   0.63777   0.65126
 Alpha virt. eigenvalues --    0.65162   0.68341   0.68756   0.70142   0.71798
 Alpha virt. eigenvalues --    0.71803   0.73562   0.78055   0.79180   0.79803
 Alpha virt. eigenvalues --    0.80775   0.81105   0.82022   0.82563   0.83821
 Alpha virt. eigenvalues --    0.84123   0.87382   0.91729   0.92305   0.94102
 Alpha virt. eigenvalues --    0.94816   0.94910   0.96162   0.99309   0.99498
 Alpha virt. eigenvalues --    1.04383   1.05777   1.05986   1.10245   1.12375
 Alpha virt. eigenvalues --    1.14165   1.22078   1.23065   1.31013   1.32325
 Alpha virt. eigenvalues --    1.39153   1.42211   1.47272   1.49972   1.52245
 Alpha virt. eigenvalues --    1.53931   1.54625   1.55487   1.60430   1.61216
 Alpha virt. eigenvalues --    1.63874   1.65567   1.66730   1.68126   1.74675
 Alpha virt. eigenvalues --    1.75241   1.79972   1.80985   1.85087   1.86506
 Alpha virt. eigenvalues --    1.90363   1.90541   1.91932   1.92588   1.93632
 Alpha virt. eigenvalues --    1.94434   1.99681   2.03263   2.06422   2.09250
 Alpha virt. eigenvalues --    2.11395   2.22234   2.24842   2.32126   2.33234
 Alpha virt. eigenvalues --    2.36370   2.37180   2.38725   2.41707   2.42359
 Alpha virt. eigenvalues --    2.44454   2.48987   2.52507   2.54590   2.61167
 Alpha virt. eigenvalues --    2.64078   2.65276   2.69355   2.70643   2.72627
 Alpha virt. eigenvalues --    2.73454   2.75514   2.77129   2.79432   2.80046
 Alpha virt. eigenvalues --    2.85180   2.86071   2.89393   2.92153   2.92197
 Alpha virt. eigenvalues --    2.92366   3.02123   3.05672   3.09893   3.27375
 Alpha virt. eigenvalues --    3.31504   3.38112   3.43134   3.48848   3.51816
 Alpha virt. eigenvalues --    3.61214   3.81130   3.86641   3.96056   4.02846
 Alpha virt. eigenvalues --    4.11882   4.12129   4.73538   4.80086   5.00400
 Alpha virt. eigenvalues --    9.74732  23.57372  23.89092  23.92818  23.99869
 Alpha virt. eigenvalues --   24.11679  24.17618  25.91064  25.92025  26.12443
 Alpha virt. eigenvalues --   35.61899 215.72824
  Beta  occ. eigenvalues -- -101.47689 -14.36908 -10.25753 -10.20541 -10.20118
  Beta  occ. eigenvalues --  -10.20115 -10.19751 -10.19750  -9.38942  -7.14844
  Beta  occ. eigenvalues --   -7.14581  -7.14571  -0.96967  -0.86975  -0.77850
  Beta  occ. eigenvalues --   -0.75793  -0.70704  -0.64540  -0.63788  -0.56380
  Beta  occ. eigenvalues --   -0.55806  -0.51339  -0.46458  -0.45970  -0.45189
  Beta  occ. eigenvalues --   -0.41899  -0.39167  -0.36940  -0.34544  -0.28576
  Beta  occ. eigenvalues --   -0.25188  -0.24866  -0.24699
  Beta virt. eigenvalues --   -0.15115  -0.02773  -0.02075  -0.01342   0.00692
  Beta virt. eigenvalues --    0.00756   0.03482   0.03714   0.05090   0.06074
  Beta virt. eigenvalues --    0.06506   0.07535   0.07588   0.08287   0.10219
  Beta virt. eigenvalues --    0.10548   0.12126   0.12223   0.12406   0.12817
  Beta virt. eigenvalues --    0.13047   0.13068   0.14880   0.15891   0.16049
  Beta virt. eigenvalues --    0.16383   0.16544   0.17226   0.18032   0.18941
  Beta virt. eigenvalues --    0.19370   0.20233   0.20495   0.21367   0.21574
  Beta virt. eigenvalues --    0.22337   0.23226   0.23933   0.25198   0.25482
  Beta virt. eigenvalues --    0.26404   0.27352   0.28975   0.30253   0.30435
  Beta virt. eigenvalues --    0.31479   0.33868   0.35301   0.44333   0.44821
  Beta virt. eigenvalues --    0.49051   0.50398   0.50745   0.50981   0.52396
  Beta virt. eigenvalues --    0.53286   0.53525   0.53802   0.54380   0.56890
  Beta virt. eigenvalues --    0.57867   0.58650   0.62348   0.62941   0.64029
  Beta virt. eigenvalues --    0.65203   0.65944   0.68414   0.69046   0.70391
  Beta virt. eigenvalues --    0.71870   0.71933   0.74111   0.78169   0.79705
  Beta virt. eigenvalues --    0.80037   0.80970   0.81810   0.82320   0.82645
  Beta virt. eigenvalues --    0.83931   0.84423   0.87482   0.92858   0.93239
  Beta virt. eigenvalues --    0.94640   0.95418   0.95756   0.97140   0.99942
  Beta virt. eigenvalues --    1.01671   1.05109   1.06213   1.06844   1.11012
  Beta virt. eigenvalues --    1.13021   1.14619   1.22453   1.24203   1.31205
  Beta virt. eigenvalues --    1.32874   1.39485   1.42294   1.47332   1.50267
  Beta virt. eigenvalues --    1.52479   1.54094   1.54822   1.55743   1.60799
  Beta virt. eigenvalues --    1.61536   1.64112   1.65747   1.66994   1.68177
  Beta virt. eigenvalues --    1.74967   1.75327   1.80193   1.81118   1.85514
  Beta virt. eigenvalues --    1.86692   1.90612   1.90725   1.92259   1.92796
  Beta virt. eigenvalues --    1.94014   1.94541   2.00067   2.03640   2.06678
  Beta virt. eigenvalues --    2.09359   2.11725   2.22746   2.25299   2.32514
  Beta virt. eigenvalues --    2.33752   2.36664   2.37923   2.38780   2.42672
  Beta virt. eigenvalues --    2.43310   2.44590   2.49632   2.52791   2.54821
  Beta virt. eigenvalues --    2.61330   2.64571   2.65486   2.69362   2.70752
  Beta virt. eigenvalues --    2.72710   2.73491   2.75751   2.77193   2.79858
  Beta virt. eigenvalues --    2.80264   2.85880   2.86245   2.89664   2.92409
  Beta virt. eigenvalues --    2.92439   2.92807   3.02393   3.06371   3.10054
  Beta virt. eigenvalues --    3.27596   3.31665   3.38255   3.43338   3.48921
  Beta virt. eigenvalues --    3.51972   3.61379   3.81714   3.87221   3.96178
  Beta virt. eigenvalues --    4.03151   4.12225   4.12297   4.73782   4.80485
  Beta virt. eigenvalues --    5.00691   9.75473  23.57503  23.89166  23.93043
  Beta virt. eigenvalues --   24.00081  24.11741  24.17696  25.91416  25.92360
  Beta virt. eigenvalues --   26.14060  35.62144 215.73194
          Condensed to atoms (all electrons):
              1          2          3          4          5          6
     1  C    8.050967  -1.062107   0.308319  -1.208287   1.098155  -1.447599
     2  C   -1.062107   7.063543  -1.062020   1.292633  -1.399471   1.292357
     3  C    0.308319  -1.062020   8.051242  -1.447902   1.098519  -1.208439
     4  C   -1.208287   1.292633  -1.447902   7.318860  -1.969446   1.812307
     5  C    1.098155  -1.399471   1.098519  -1.969446   8.659487  -1.969069
     6  C   -1.447599   1.292357  -1.208439   1.812307  -1.969069   7.318508
     7  H    0.348563  -0.026119  -0.063807   0.009943  -0.001960   0.095248
     8  N   -0.052539   0.058942  -0.052693   0.006435   0.031126   0.006478
     9  H   -0.063867  -0.026239   0.348756   0.095217  -0.001954   0.009942
    10  H    0.001168   0.019283  -0.057717   0.398930  -0.006240   0.002767
    11  H    0.018369  -0.002388   0.018334  -0.040569   0.408057  -0.040592
    12  H   -0.057707   0.019305   0.001172   0.002769  -0.006268   0.398927
    13  Cl   0.092637  -0.047091   0.092569   0.050975  -0.255876   0.050925
    14  H    0.034554  -0.011363  -0.036603   0.011951  -0.001362  -0.003142
    15  H   -0.036533  -0.011445   0.034551  -0.003140  -0.001358   0.011949
              7          8          9         10         11         12
     1  C    0.348563  -0.052539  -0.063867   0.001168   0.018369  -0.057707
     2  C   -0.026119   0.058942  -0.026239   0.019283  -0.002388   0.019305
     3  C   -0.063807  -0.052693   0.348756  -0.057717   0.018334   0.001172
     4  C    0.009943   0.006435   0.095217   0.398930  -0.040569   0.002769
     5  C   -0.001960   0.031126  -0.001954  -0.006240   0.408057  -0.006268
     6  C    0.095248   0.006478   0.009942   0.002767  -0.040592   0.398927
     7  H    0.547249  -0.016553  -0.000116   0.000043  -0.000253  -0.008621
     8  N   -0.016553   6.663811  -0.016532  -0.001111   0.000041  -0.001112
     9  H   -0.000116  -0.016532   0.547236  -0.008623  -0.000253   0.000043
    10  H    0.000043  -0.001111  -0.008623   0.517145  -0.007459  -0.000220
    11  H   -0.000253   0.000041  -0.000253  -0.007459   0.494378  -0.007459
    12  H   -0.008621  -0.001112   0.000043  -0.000220  -0.007459   0.517119
    13  Cl  -0.001123  -0.000932  -0.001122  -0.001438  -0.030203  -0.001437
    14  H    0.000325   0.364414   0.005166  -0.000006  -0.000001   0.000012
    15  H    0.005170   0.364429   0.000326   0.000012  -0.000001  -0.000006
             13         14         15
     1  C    0.092637   0.034554  -0.036533
     2  C   -0.047091  -0.011363  -0.011445
     3  C    0.092569  -0.036603   0.034551
     4  C    0.050975   0.011951  -0.003140
     5  C   -0.255876  -0.001362  -0.001358
     6  C    0.050925  -0.003142   0.011949
     7  H   -0.001123   0.000325   0.005170
     8  N   -0.000932   0.364414   0.364429
     9  H   -0.001122   0.005166   0.000326
    10  H   -0.001438  -0.000006   0.000012
    11  H   -0.030203  -0.000001  -0.000001
    12  H   -0.001437   0.000012  -0.000006
    13  Cl  17.413336  -0.000002  -0.000002
    14  H   -0.000002   0.411168  -0.027208
    15  H   -0.000002  -0.027208   0.411145
 Mulliken atomic charges:
              1
     1  C   -0.024092
     2  C   -0.097819
     3  C   -0.024282
     4  C   -0.330675
     5  C    0.317661
     6  C   -0.330567
     7  H    0.112012
     8  N   -0.354202
     9  H    0.112022
    10  H    0.143467
    11  H    0.190000
    12  H    0.143482
    13  Cl  -0.361216
    14  H    0.252098
    15  H    0.252111
 Sum of Mulliken charges=   0.00000
 Atomic charges with hydrogens summed into heavy atoms:
              1
     1  C    0.087919
     2  C   -0.097819
     3  C    0.087739
     4  C   -0.187208
     5  C    0.507662
     6  C   -0.187085
     7  H    0.000000
     8  N    0.150007
     9  H    0.000000
    10  H    0.000000
    11  H    0.000000
    12  H    0.000000
    13  Cl  -0.361216
    14  H    0.000000
    15  H    0.000000
 Sum of Mulliken charges=   0.00000
          Atomic-Atomic Spin Densities.
              1          2          3          4          5          6
     1  C    0.148679  -0.140473   0.155594  -0.189324   0.223832  -0.236599
     2  C   -0.140473   0.323325  -0.140769   0.161868  -0.154268   0.161937
     3  C    0.155594  -0.140769   0.149198  -0.236709   0.224008  -0.189549
     4  C   -0.189324   0.161868  -0.236709   0.361354  -0.164597   0.226759
     5  C    0.223832  -0.154268   0.224008  -0.164597   0.125369  -0.164769
     6  C   -0.236599   0.161937  -0.189549   0.226759  -0.164769   0.361628
     7  H   -0.000593   0.000204   0.000941  -0.000593   0.001754  -0.000999
     8  N   -0.003950  -0.059128  -0.003937   0.002045  -0.002120   0.002047
     9  H    0.000941   0.000204  -0.000593  -0.000999   0.001752  -0.000592
    10  H    0.000497  -0.002093   0.001995  -0.004469   0.007114  -0.002030
    11  H   -0.003535   0.000691  -0.003532  -0.002021   0.023304  -0.002018
    12  H    0.001998  -0.002095   0.000499  -0.002034   0.007119  -0.004475
    13  Cl   0.035844  -0.027494   0.035865  -0.078063   0.000799  -0.078105
    14  H   -0.000603   0.001355  -0.002658   0.000321  -0.000208   0.000766
    15  H   -0.002640   0.001341  -0.000603   0.000762  -0.000205   0.000319
              7          8          9         10         11         12
     1  C   -0.000593  -0.003950   0.000941   0.000497  -0.003535   0.001998
     2  C    0.000204  -0.059128   0.000204  -0.002093   0.000691  -0.002095
     3  C    0.000941  -0.003937  -0.000593   0.001995  -0.003532   0.000499
     4  C   -0.000593   0.002045  -0.000999  -0.004469  -0.002021  -0.002034
     5  C    0.001754  -0.002120   0.001752   0.007114   0.023304   0.007119
     6  C   -0.000999   0.002047  -0.000592  -0.002030  -0.002018  -0.004475
     7  H   -0.000830  -0.000226   0.000002  -0.000003  -0.000007   0.000130
     8  N   -0.000226   0.171652  -0.000226   0.000070   0.000048   0.000070
     9  H    0.000002  -0.000226  -0.000835   0.000130  -0.000007  -0.000003
    10  H   -0.000003   0.000070   0.000130  -0.006156  -0.000384   0.000006
    11  H   -0.000007   0.000048  -0.000007  -0.000384  -0.001376  -0.000384
    12  H    0.000130   0.000070  -0.000003   0.000006  -0.000384  -0.006157
    13  Cl  -0.000044  -0.000828  -0.000044   0.001034  -0.011332   0.001037
    14  H   -0.000011   0.000683  -0.000044  -0.000005   0.000000  -0.000002
    15  H   -0.000044   0.000684  -0.000011  -0.000002   0.000000  -0.000005
             13         14         15
     1  C    0.035844  -0.000603  -0.002640
     2  C   -0.027494   0.001355   0.001341
     3  C    0.035865  -0.002658  -0.000603
     4  C   -0.078063   0.000321   0.000762
     5  C    0.000799  -0.000208  -0.000205
     6  C   -0.078105   0.000766   0.000319
     7  H   -0.000044  -0.000011  -0.000044
     8  N   -0.000828   0.000683   0.000684
     9  H   -0.000044  -0.000044  -0.000011
    10  H    0.001034  -0.000005  -0.000002
    11  H   -0.011332   0.000000   0.000000
    12  H    0.001037  -0.000002  -0.000005
    13  Cl   0.651601  -0.000041  -0.000041
    14  H   -0.000041  -0.004263   0.000302
    15  H   -0.000041   0.000302  -0.004269
 Mulliken atomic spin densities:
              1
     1  C   -0.010331
     2  C    0.124606
     3  C   -0.010249
     4  C    0.074299
     5  C    0.128885
     6  C    0.074321
     7  H   -0.000320
     8  N    0.106884
     9  H   -0.000324
    10  H   -0.004296
    11  H   -0.000552
    12  H   -0.004296
    13  Cl   0.530190
    14  H   -0.004408
    15  H   -0.004411
 Sum of Mulliken spin densities=   1.00000
 Electronic spatial extent (au):  <R**2>=  1296.6411
 Charge=     0.0000 electrons
 Dipole moment (field-independent basis, Debye):
    X=     7.0899    Y=     0.0002    Z=     0.9117  Tot=     7.1483
 Quadrupole moment (field-independent basis, Debye-Ang):
   XX=   -55.8131   YY=   -48.1571   ZZ=   -55.9684
   XY=    -0.0064   XZ=   -12.5439   YZ=    -0.0028
 Traceless Quadrupole moment (field-independent basis, Debye-Ang):
   XX=    -2.5002   YY=     5.1558   ZZ=    -2.6556
   XY=    -0.0064   XZ=   -12.5439   YZ=    -0.0028
 Octapole moment (field-independent basis, Debye-Ang**2):
  XXX=    70.8977  YYY=    -0.0020  ZZZ=    -5.6837  XYY=    11.1937
  XXY=    -0.0127  XXZ=   -14.0057  XZZ=     3.6767  YZZ=     0.0012
  YYZ=    -0.5729  XYZ=    -0.0045
 Hexadecapole moment (field-independent basis, Debye-Ang**3):
 XXXX= -1147.6264 YYYY=  -293.3579 ZZZZ=  -255.6132 XXXY=    -0.0731
 XXXZ=  -105.4110 YYYX=    -0.0302 YYYZ=    -0.0056 ZZZX=   -22.0084
 ZZZY=    -0.0078 XXYY=  -224.0160 XXZZ=  -213.7517 YYZZ=   -95.3929
 XXYZ=    -0.0043 YYXZ=   -20.3680 ZZXY=     0.0129
 N-N= 3.943449578962D+02 E-N=-2.551170924369D+03  KE= 7.455452704988D+02
                          Isotropic Fermi Contact Couplings
        Atom                 a.u.       MegaHertz       Gauss      10(-4) cm-1
     1  C(13)             -0.00502      -5.64074      -2.01276      -1.88155
     2  C(13)              0.00338       3.80340       1.35715       1.26868
     3  C(13)             -0.00501      -5.63296      -2.00998      -1.87895
     4  C(13)              0.00085       0.95816       0.34189       0.31961
     5  C(13)              0.03329      37.42594      13.35450      12.48395
     6  C(13)              0.00086       0.96652       0.34488       0.32240
     7  H(1)              -0.00012      -0.52172      -0.18616      -0.17403
     8  N(14)              0.01321       4.26901       1.52329       1.42399
     9  H(1)              -0.00012      -0.52566      -0.18757      -0.17534
    10  H(1)              -0.00128      -5.70599      -2.03604      -1.90331
    11  H(1)               0.00138       6.18627       2.20741       2.06352
    12  H(1)              -0.00128      -5.70838      -2.03689      -1.90411
    13  Cl(35)             0.06766      29.66716      10.58598       9.89590
    14  H(1)              -0.00157      -7.00447      -2.49937      -2.33644
    15  H(1)              -0.00157      -7.01274      -2.50232      -2.33920
 --------------------------------------------------------
       Center         ----  Spin Dipole Couplings  ----
                      3XX-RR        3YY-RR        3ZZ-RR
 --------------------------------------------------------
     1   Atom       -0.001352     -0.001591      0.002943
     2   Atom       -0.016955     -0.082958      0.099913
     3   Atom       -0.001358     -0.001629      0.002987
     4   Atom       -0.018476     -0.046860      0.065336
     5   Atom        0.022344     -0.100677      0.078333
     6   Atom       -0.018490     -0.046886      0.065376
     7   Atom       -0.000738      0.003885     -0.003147
     8   Atom       -0.014794     -0.142087      0.156881
     9   Atom       -0.000741      0.003888     -0.003147
    10   Atom       -0.005385      0.009069     -0.003684
    11   Atom        0.000540     -0.015756      0.015216
    12   Atom       -0.005384      0.009062     -0.003678
    13   Atom        0.910280     -1.685678      0.775398
    14   Atom       -0.003774      0.007125     -0.003351
    15   Atom       -0.003772      0.007145     -0.003373
 --------------------------------------------------------
                        XY            XZ            YZ
 --------------------------------------------------------
     1   Atom       -0.000080     -0.002584     -0.000644
     2   Atom        0.000040      0.099625      0.000078
     3   Atom        0.000070     -0.002524      0.000628
     4   Atom        0.004541      0.063990      0.002067
     5   Atom        0.000063      0.150467      0.000077
     6   Atom       -0.004512      0.064024     -0.002024
     7   Atom       -0.001126     -0.000537     -0.000085
     8   Atom        0.000152      0.189516      0.000243
     9   Atom        0.001129     -0.000537      0.000078
    10   Atom       -0.002664      0.002761      0.004233
    11   Atom       -0.000006     -0.011642      0.000016
    12   Atom        0.002671      0.002760     -0.004245
    13   Atom        0.001296      2.534378      0.001260
    14   Atom        0.010478     -0.000283     -0.007634
    15   Atom       -0.010478     -0.000267      0.007621
 --------------------------------------------------------


 ---------------------------------------------------------------------------------
              Anisotropic Spin Dipole Couplings in Principal Axis System
 ---------------------------------------------------------------------------------

       Atom             a.u.   MegaHertz   Gauss  10(-4) cm-1        Axes

              Baa    -0.0027    -0.360    -0.128    -0.120  0.8484  0.3143  0.4259
     1 C(13)  Bbb    -0.0015    -0.205    -0.073    -0.068 -0.3242  0.9446 -0.0512
              Bcc     0.0042     0.565     0.201     0.188 -0.4184 -0.0946  0.9033
 
              Baa    -0.0830   -11.132    -3.972    -3.713  0.0002  1.0000 -0.0005
     2 C(13)  Bbb    -0.0740    -9.933    -3.544    -3.313  0.8677 -0.0004 -0.4970
              Bcc     0.1570    21.065     7.516     7.026  0.4970  0.0004  0.8677
 
              Baa    -0.0026    -0.352    -0.126    -0.118  0.8492 -0.3227  0.4179
     3 C(13)  Bbb    -0.0016    -0.211    -0.075    -0.070  0.3315  0.9419  0.0537
              Bcc     0.0042     0.563     0.201     0.188 -0.4110  0.0929  0.9069
 
              Baa    -0.0543    -7.286    -2.600    -2.430  0.8184 -0.3798 -0.4312
     4 C(13)  Bbb    -0.0457    -6.137    -2.190    -2.047  0.3222  0.9247 -0.2029
              Bcc     0.1000    13.423     4.790     4.477  0.4758  0.0271  0.8792
 
              Baa    -0.1027   -13.783    -4.918    -4.597  0.7691  0.0007 -0.6392
     5 C(13)  Bbb    -0.1007   -13.510    -4.821    -4.506 -0.0007  1.0000  0.0002
              Bcc     0.2034    27.293     9.739     9.104  0.6392  0.0003  0.7691
 
              Baa    -0.0543    -7.290    -2.601    -2.432  0.8186  0.3792 -0.4314
     6 C(13)  Bbb    -0.0458    -6.140    -2.191    -2.048 -0.3219  0.9249  0.2023
              Bcc     0.1001    13.430     4.792     4.480  0.4757 -0.0267  0.8792
 
              Baa    -0.0033    -1.748    -0.624    -0.583  0.2269  0.0473  0.9728
     7 H(1)   Bbb    -0.0009    -0.464    -0.165    -0.155  0.9475  0.2202 -0.2317
              Bcc     0.0041     2.211     0.789     0.738 -0.2252  0.9743  0.0052
 
              Baa    -0.1421    -5.480    -1.955    -1.828  0.0002  1.0000 -0.0009
     8 N(14)  Bbb    -0.1370    -5.284    -1.885    -1.763  0.8404 -0.0007 -0.5419
              Bcc     0.2791    10.764     3.841     3.590  0.5419  0.0007  0.8404
 
              Baa    -0.0033    -1.748    -0.624    -0.583  0.2266 -0.0463  0.9729
     9 H(1)   Bbb    -0.0009    -0.466    -0.166    -0.155  0.9475 -0.2209 -0.2312
              Bcc     0.0041     2.214     0.790     0.738  0.2256  0.9742 -0.0062
 
              Baa    -0.0087    -4.631    -1.652    -1.545  0.7350  0.2597 -0.6264
    10 H(1)   Bbb    -0.0019    -0.998    -0.356    -0.333  0.6683 -0.1213  0.7340
              Bcc     0.0105     5.628     2.008     1.877 -0.1147  0.9580  0.2627
 
              Baa    -0.0158    -8.407    -3.000    -2.804  0.0000  1.0000 -0.0005
    11 H(1)   Bbb    -0.0059    -3.139    -1.120    -1.047  0.8756  0.0002  0.4831
              Bcc     0.0216    11.546     4.120     3.851 -0.4831  0.0004  0.8756
 
              Baa    -0.0087    -4.632    -1.653    -1.545  0.7349 -0.2604 -0.6262
    12 H(1)   Bbb    -0.0019    -0.997    -0.356    -0.332  0.6684  0.1217  0.7338
              Bcc     0.0106     5.629     2.009     1.878  0.1149  0.9578 -0.2635
 
              Baa    -1.6924   -88.578   -31.607   -29.546 -0.6976  0.0003  0.7164
    13 Cl(35) Bbb    -1.6857   -88.224   -31.481   -29.429 -0.0001  1.0000 -0.0004
              Bcc     3.3781   176.803    63.088    58.975  0.7164  0.0004  0.6976
 
              Baa    -0.0121    -6.460    -2.305    -2.155  0.6868 -0.5587 -0.4650
    14 H(1)   Bbb    -0.0038    -2.007    -0.716    -0.669  0.5731  0.0228  0.8191
              Bcc     0.0159     8.467     3.021     2.824  0.4471  0.8290 -0.3359
 
              Baa    -0.0121    -6.460    -2.305    -2.155  0.6866  0.5581 -0.4660
    15 H(1)   Bbb    -0.0038    -2.006    -0.716    -0.669  0.5733 -0.0215  0.8190
              Bcc     0.0159     8.467     3.021     2.824 -0.4471  0.8295  0.3347
 

 ---------------------------------------------------------------------------------

 No NMR shielding tensors so no spin-rotation constants.
 Leave Link  601 at Tue Aug 22 13:32:18 2006, MaxMem=    6291456 cpu:       2.4
 (Enter /usr/local/Gaussian/g03/l701.exe)
 Compute integral first derivatives.
 ... and contract with generalized density number  0.
 Leave Link  701 at Tue Aug 22 13:32:23 2006, MaxMem=    6291456 cpu:       1.2
 (Enter /usr/local/Gaussian/g03/l702.exe)
 L702 exits ... SP integral derivatives will be done elsewhere.
 Leave Link  702 at Tue Aug 22 13:32:23 2006, MaxMem=    6291456 cpu:       0.0
 (Enter /usr/local/Gaussian/g03/l703.exe)
 Compute integral first derivatives, UseDBF=F.
 Integral derivatives from FoFDir, PRISM(SPDF).
 Symmetry not used in FoFDir.
 MinBra= 0 MaxBra= 2 Meth= 1.
 IRaf=       0 NMat=   1 IRICut=       1 DoRegI=T DoRafI=F ISym2E= 0 JSym2E=0.
 Leave Link  703 at Tue Aug 22 14:04:30 2006, MaxMem=    6291456 cpu:     611.2
 (Enter /usr/local/Gaussian/g03/l716.exe)
 Dipole        = 2.78938027D+00 7.64492220D-05 3.58709182D-01
 ***** Axes restored to original set *****
 -------------------------------------------------------------------
 Center     Atomic                   Forces (Hartrees/Bohr)
 Number     Number              X              Y              Z
 -------------------------------------------------------------------
    1          6          -0.002818668    0.000045501    0.000064165
    2          6           0.002834075   -0.000010123   -0.001657762
    3          6          -0.001432664    0.000042033    0.002431147
    4          6           0.002666709    0.000035074    0.000630061
    5          6           0.001934957   -0.000406761   -0.001136611
    6          6           0.000748014    0.000030201   -0.002639678
    7          1          -0.000163805    0.000013951   -0.000173991
    8          7          -0.003094497    0.000590607    0.001812655
    9          1           0.000073529    0.000011690    0.000227940
   10          1           0.000180539   -0.000024067    0.000150007
   11          1           0.000188600    0.000059357   -0.000110321
   12          1          -0.000047214   -0.000018644   -0.000230471
   13         17          -0.000015828    0.000107294    0.000011428
   14          1          -0.000186667   -0.000232848    0.000887553
   15          1          -0.000867079   -0.000243265   -0.000266120
 -------------------------------------------------------------------
 Cartesian Forces:  Max     0.003094497 RMS     0.001175621
 Leave Link  716 at Tue Aug 22 14:04:31 2006, MaxMem=    6291456 cpu:       0.0
 (Enter /usr/local/Gaussian/g03/l103.exe)

 GradGradGradGradGradGradGradGradGradGradGradGradGradGradGradGradGradGrad
 Berny optimization.
 Internal  Forces:  Max     0.004811851 RMS     0.000856905
 Search for a local minimum.
 Step number   1 out of a maximum of  96
 All quantities printed in internal units (Hartrees-Bohrs-Radians)
 Second derivative matrix not updated -- first step.
     Eigenvalues ---    0.01957   0.02037   0.02097   0.02102   0.02218
     Eigenvalues ---    0.02221   0.02271   0.02293   0.02562   0.02887
     Eigenvalues ---    0.03132   0.03231   0.03538   0.06609   0.09437
     Eigenvalues ---    0.11698   0.12643   0.15685   0.15999   0.15999
     Eigenvalues ---    0.16000   0.16000   0.17895   0.22823   0.24995
     Eigenvalues ---    0.32417   0.34214   0.35449   0.35449   0.35680
     Eigenvalues ---    0.35680   0.38359   0.41735   0.42018   0.46733
     Eigenvalues ---    0.46733   0.46889   0.50599   0.529511000.00000
     Eigenvalues --- 1000.000001000.000001000.000001000.000001000.00000
     Eigenvalues --- 1000.000001000.000001000.000001000.000001000.00000
     Eigenvalues --- 1000.000001000.000001000.000001000.000001000.00000
     Eigenvalues --- 1000.000001000.000001000.000001000.000001000.00000
     Eigenvalues --- 1000.000001000.000001000.000001000.000001000.00000
     Eigenvalues --- 1000.000001000.000001000.000001000.000001000.00000
     Eigenvalues --- 1000.000001000.000001000.000001000.000001000.00000
     Eigenvalues --- 1000.000001000.000001000.000001000.000001000.00000
     Eigenvalues --- 1000.000001000.000001000.000001000.000001000.00000
     Eigenvalues --- 1000.00000
 RFO step:  Lambda=-1.34260660D-04.
 Linear search not attempted -- first point.
 Iteration  1 RMS(Cart)=  0.00338958 RMS(Int)=  0.00000276
 Iteration  2 RMS(Cart)=  0.00000291 RMS(Int)=  0.00000124
 Iteration  3 RMS(Cart)=  0.00000000 RMS(Int)=  0.00000124
 Variable       Old X    -DE/DX   Delta X   Delta X   Delta X     New X
                                 (Linear)    (Quad)   (Total)
    R1        2.67154   0.00185   0.00000   0.00407   0.00407   2.67560
    R2        2.59266   0.00328   0.00000   0.00649   0.00649   2.59914
    R3        2.04953   0.00023   0.00000   0.00064   0.00064   2.05017
    R4        2.67156   0.00184   0.00000   0.00406   0.00406   2.67562
    R5        2.57000   0.00481   0.00000   0.00909   0.00909   2.57908
    R6        2.59265   0.00329   0.00000   0.00649   0.00649   2.59914
    R7        2.04952   0.00023   0.00000   0.00064   0.00064   2.05017
    R8        2.66628   0.00200   0.00000   0.00538   0.00538   2.67167
    R9        2.04584   0.00023   0.00000   0.00065   0.00065   2.04649
   R10        5.91090   0.00030   0.00000   0.00208   0.00208   5.91298
   R11        2.66629   0.00200   0.00000   0.00539   0.00539   2.67167
   R12        2.03955   0.00012   0.00000   0.00051   0.00051   2.04006
   R13        4.87368  -0.00052   0.00000  -0.00213  -0.00213   4.87154
   R14        2.04584   0.00023   0.00000   0.00065   0.00065   2.04649
   R15        5.91015   0.00030   0.00000   0.00212   0.00212   5.91227
   R16        1.90014   0.00091   0.00000   0.00195   0.00195   1.90209
   R17        1.90014   0.00091   0.00000   0.00196   0.00196   1.90209
   R18        4.99873   0.00013   0.00000  -0.00027  -0.00028   4.99846
    A1        2.09859  -0.00012   0.00000  -0.00017  -0.00017   2.09843
    A2        2.08190   0.00013   0.00000   0.00054   0.00054   2.08244
    A3        2.10264  -0.00001   0.00000  -0.00037  -0.00037   2.10227
    A4        2.07895   0.00019   0.00000   0.00074   0.00074   2.07969
    A5        2.10205  -0.00010   0.00000  -0.00036  -0.00036   2.10169
    A6        2.10201  -0.00009   0.00000  -0.00034  -0.00034   2.10167
    A7        2.09861  -0.00012   0.00000  -0.00017  -0.00017   2.09844
    A8        2.08187   0.00013   0.00000   0.00055   0.00055   2.08242
    A9        2.10265  -0.00001   0.00000  -0.00037  -0.00038   2.10227
   A10        2.10834   0.00008   0.00000  -0.00010  -0.00010   2.10824
   A11        2.09393  -0.00001   0.00000  -0.00015  -0.00015   2.09378
   A12        2.04443  -0.00013   0.00000   0.00021   0.00021   2.04464
   A13        2.08068  -0.00007   0.00000   0.00023   0.00023   2.08091
   A14        1.67670   0.00022   0.00000   0.00023   0.00023   1.67693
   A15        2.07256  -0.00010   0.00000  -0.00022  -0.00022   2.07234
   A16        2.09730   0.00006   0.00000  -0.00005  -0.00005   2.09725
   A17        2.09729   0.00006   0.00000  -0.00004  -0.00004   2.09725
   A18        2.10836   0.00008   0.00000  -0.00010  -0.00010   2.10825
   A19        2.09396  -0.00001   0.00000  -0.00016  -0.00016   2.09380
   A20        2.04450  -0.00013   0.00000   0.00020   0.00020   2.04471
   A21        2.08063  -0.00007   0.00000   0.00024   0.00024   2.08087
   A22        1.67628   0.00022   0.00000   0.00028   0.00028   1.67656
   A23        2.09951   0.00010   0.00000   0.00007   0.00007   2.09958
   A24        2.09947   0.00010   0.00000   0.00009   0.00009   2.09956
   A25        2.03990  -0.00024   0.00000  -0.00203  -0.00204   2.03786
   A26        0.79732   0.00056   0.00000   0.00135   0.00135   0.79867
   A27        0.75115   0.00036   0.00000   0.00084   0.00084   0.75199
   A28        0.75124   0.00036   0.00000   0.00083   0.00083   0.75207
    D1        0.02089  -0.00007   0.00000  -0.00033  -0.00033   0.02056
    D2       -3.14060   0.00003   0.00000   0.00158   0.00158  -3.13902
    D3       -3.13141  -0.00012   0.00000  -0.00050  -0.00050  -3.13191
    D4       -0.00971  -0.00001   0.00000   0.00140   0.00140  -0.00831
    D5        0.01081   0.00001   0.00000   0.00062   0.00062   0.01143
    D6        3.12874  -0.00005   0.00000  -0.00032  -0.00032   3.12842
    D7        1.11094  -0.00024   0.00000  -0.00077  -0.00077   1.11017
    D8       -3.11995   0.00005   0.00000   0.00079   0.00079  -3.11915
    D9       -0.00202   0.00000   0.00000  -0.00015  -0.00015  -0.00217
   D10       -2.01982  -0.00020   0.00000  -0.00060  -0.00060  -2.02041
   D11       -0.02089   0.00007   0.00000   0.00032   0.00032  -0.02057
   D12        3.13126   0.00012   0.00000   0.00055   0.00055   3.13181
   D13        3.14060  -0.00003   0.00000  -0.00158  -0.00158   3.13902
   D14        0.00956   0.00001   0.00000  -0.00135  -0.00135   0.00821
   D15        2.98862  -0.00014   0.00000  -0.00427  -0.00427   2.98435
[...]
   A16        2.09666   0.00000   0.00000   0.00004   0.00004   2.09670
   A17        2.09666   0.00000   0.00000   0.00004   0.00004   2.09670
   A18        2.10785   0.00000   0.00000  -0.00001  -0.00001   2.10784
   A19        2.09393   0.00000   0.00000   0.00001   0.00001   2.09394
   A20        2.04600  -0.00001   0.00000  -0.00063  -0.00063   2.04538
   A21        2.08115   0.00000   0.00000   0.00000   0.00000   2.08115
   A22        1.67731   0.00000   0.00000   0.00018   0.00018   1.67749
   A23        2.08945   0.00001   0.00000  -0.00019  -0.00019   2.08926
   A24        2.08946   0.00001   0.00000  -0.00020  -0.00020   2.08925
   A25        2.02886  -0.00001   0.00000  -0.00041  -0.00041   2.02845
   A26        0.80020   0.00000   0.00000  -0.00007  -0.00007   0.80012
   A27        0.75336   0.00000   0.00000  -0.00010  -0.00010   0.75326
   A28        0.75337   0.00000   0.00000  -0.00011  -0.00011   0.75326
    D1        0.02248   0.00000   0.00000  -0.00003  -0.00003   0.02245
    D2        3.13875   0.00000   0.00000  -0.00012  -0.00012   3.13863
    D3       -3.12912   0.00000   0.00000  -0.00011  -0.00011  -3.12923
    D4       -0.01285   0.00000   0.00000  -0.00020  -0.00020  -0.01305
    D5        0.01126   0.00000   0.00000   0.00007   0.00007   0.01133
    D6        3.12830   0.00000   0.00000  -0.00010  -0.00010   3.12820
    D7        1.10773   0.00000   0.00000   0.00019   0.00019   1.10792
    D8       -3.12022   0.00000   0.00000   0.00015   0.00015  -3.12007
    D9       -0.00318   0.00000   0.00000  -0.00002  -0.00002  -0.00320
   D10       -2.02375   0.00000   0.00000   0.00027   0.00027  -2.02348
   D11       -0.02247   0.00000   0.00000   0.00002   0.00002  -0.02245
   D12        3.12914   0.00000   0.00000   0.00009   0.00009   3.12923
   D13       -3.13874   0.00000   0.00000   0.00011   0.00011  -3.13863
   D14        0.01286   0.00000   0.00000   0.00018   0.00018   0.01305
   D15        2.94325  -0.00001   0.00000  -0.00118  -0.00118   2.94207
   D16        0.22415   0.00000   0.00000   0.00106   0.00106   0.22521
   D17       -0.22394  -0.00001   0.00000  -0.00127  -0.00127  -0.22521
   D18       -2.94303   0.00001   0.00000   0.00096   0.00096  -2.94207
   D19       -0.01127   0.00000   0.00000  -0.00006  -0.00006  -0.01133
   D20       -3.12830   0.00000   0.00000   0.00010   0.00010  -3.12820
   D21       -1.10770   0.00000   0.00000  -0.00022  -0.00022  -1.10792
   D22        3.12020   0.00000   0.00000  -0.00013  -0.00013   3.12007
   D23        0.00317   0.00000   0.00000   0.00003   0.00003   0.00320
   D24        2.02377   0.00000   0.00000  -0.00029  -0.00029   2.02348
   D25        0.04442   0.00000   0.00000   0.00010   0.00010   0.04453
   D26        2.98762   0.00001   0.00000   0.00062   0.00062   2.98823
   D27       -3.12155   0.00000   0.00000  -0.00005  -0.00005  -3.12161
   D28       -0.17836   0.00000   0.00000   0.00046   0.00046  -0.17790
   D29        1.35515   0.00000   0.00000   0.00037   0.00037   1.35552
   D30        2.45817   0.00000   0.00000   0.00030   0.00030   2.45847
   D31       -2.68840   0.00000   0.00000   0.00016   0.00016  -2.68824
   D32       -1.58537   0.00000   0.00000   0.00009   0.00009  -1.58528
   D33       -0.04442   0.00000   0.00000  -0.00011  -0.00011  -0.04453
   D34        3.12155   0.00000   0.00000   0.00006   0.00006   3.12161
   D35       -2.98761  -0.00001   0.00000  -0.00062  -0.00062  -2.98823
   D36        0.17835   0.00000   0.00000  -0.00045  -0.00045   0.17790
   D37       -1.35517   0.00000   0.00000  -0.00035  -0.00035  -1.35552
   D38       -2.45817   0.00000   0.00000  -0.00031  -0.00031  -2.45847
   D39        2.68839   0.00000   0.00000  -0.00016  -0.00016   2.68824
   D40        1.58539   0.00000   0.00000  -0.00011  -0.00011   1.58528
         Item               Value     Threshold  Converged?
 Maximum Force            0.000040     0.000450     YES
 RMS     Force            0.000009     0.000300     YES
 Maximum Displacement     0.002078     0.001800     NO 
 RMS     Displacement     0.000426     0.001200     YES
 Predicted change in Energy=-4.958098D-08
 GradGradGradGradGradGradGradGradGradGradGradGradGradGradGradGradGradGrad

 Leave Link  103 at Thu Aug 24 15:10:57 2006, MaxMem=    6291456 cpu:       0.2
 (Enter /usr/local/Gaussian/g03/l9999.exe)
 1\1\GINC-PUBLIX\Freq\UB3LYP\6-311+G(d,p)\C6H7Cl1N1(2)\NOBODY\24-Aug-20
 06\0\\#P GEOM=ALLCHECK GUESS=READ SCRF=CHECK GENCHK UB3LYP/6-311+G(D,P
 ) FREQ\\aniline/cl complex basis\\0,2\C,-1.3594875363,0.6624684896,-0.
 6169591709\C,-1.357588112,0.6646245452,0.7978988912\C,-0.1224253403,0.
 6623716097,1.4879694524\C,1.0609702113,0.6314252582,0.7877487633\C,1.0
 643290994,0.5877980776,-0.6254602785\C,-0.1719520614,0.6315126559,-1.3
 101324626\H,-2.3054113559,0.6759782603,-1.147734823\N,-2.5360572162,0.
 6987050244,1.4904790539\H,-0.1189592735,0.6757902074,2.5726286951\H,2.
 0040923231,0.6173408692,1.3196436006\H,1.9893805283,0.7069964512,-1.16
 91060017\H,-0.1777550976,0.6175012058,-2.3928880127\Cl,1.6246117856,-1
 .8989061234,-0.9549165741\H,-2.536949044,0.5278869759,2.4828612188\H,-
 3.4034754865,0.5277711399,1.0084325351\\Version=Sun64-SVR4-Unix-G03Rev
 B.04\State=2-A\HF=-747.8811098\S2=0.756408\S2-1=0.\S2A=0.750025\RMSD=7
 .524e-09\RMSF=2.074e-05\Dipole=-1.928858,1.5788671,1.1337208\DipoleDer
 iv=-0.2089614,0.1784584,0.1444042,-0.0208836,-0.1239674,0.0176119,0.73
 72968,-0.4305927,-0.439026,1.5407695,-0.4567399,-0.8317341,-0.0525731,
 0.1277554,0.0308771,-0.8316929,0.2683955,0.6143737,-0.7593161,0.463017
 3,0.4308109,-0.0255629,-0.1239568,0.0096777,-0.1621353,0.0535865,0.111
 3772,0.3439426,-0.2217735,-0.1876583,-0.1181954,-0.0812686,0.0261323,-
 0.2583491,0.4952177,0.3014547,-0.0846797,0.162628,-0.0372127,0.0395989
 ,-0.0532578,-0.0232601,-0.0372261,-0.0955723,-0.1261415,0.5010909,-0.5
 405702,-0.1708858,-0.0803725,-0.0812318,0.0905411,-0.1001398,-0.047212
 ,0.1442977,-0.0822428,0.0209515,-0.0519894,-0.0036337,0.146863,-0.0056
 224,-0.0445138,-0.0007439,0.0405862,-1.4918085,0.5122953,0.7962038,0.3
 483691,-0.600145,-0.2047168,0.7961317,-0.3010302,-0.6049678,0.0525293,
 0.0108467,0.0305481,0.0031435,0.1468657,0.0059344,0.0230666,-0.0179222
 ,-0.0941872,0.0074336,-0.0245972,-0.0622877,0.031128,0.1051886,-0.0077
 586,-0.046292,-0.0198265,0.0404505,0.0555986,-0.0468699,0.0063598,-0.0
 198977,0.1245967,0.0116948,0.0063618,0.027547,0.0626861,0.0787893,0.00
 53566,-0.0065515,0.021918,0.1051904,-0.0234093,-0.0225468,0.0311485,-0
 .0308998,-0.3974793,0.0083428,0.0304771,0.1079605,-0.3439976,-0.063449
 6,0.0304819,-0.0048999,-0.3635339,0.1439574,0.004223,-0.0461839,-0.101
 4787,0.3256744,0.0916795,-0.131384,0.0888445,0.2499659,0.3003768,-0.07
 55689,-0.0443003,-0.1295206,0.3256907,0.044068,0.040941,-0.0469399,0.0
 935642\Polar=144.5044618,-47.4949021,115.3056684,-32.2361672,27.915498
 4,108.6052138\PG=C01 [X(C6H7Cl1N1)]\NImag=0\\0.75638119,-0.01295145,0.
 12096147,0.00279479,0.00407788,0.64362359,-0.12525025,0.00058673,0.011
 02205,0.69938752,0.00084241,-0.06728084,0.00061835,-0.00002964,0.16018
 985,-0.05299224,-0.00049250,-0.27217399,-0.02892072,0.00000246,0.66717
 135,0.02597217,-0.00074817,-0.05393481,-0.21955302,-0.00012395,-0.0414
 9685,0.66794071,0.00001939,0.00745151,0.00087180,0.00073000,-0.0672804
 1,-0.00026523,-0.00987986,0.12096027,-0.02818389,-0.00043752,-0.019761
 44,-0.10551116,-0.00102618,-0.17787408,-0.04645721,0.00928470,0.732063
 31,-0.01215912,0.00036113,0.01800190,-0.06248334,0.00074543,-0.0154823
 3,-0.31279762,0.00669309,0.13919570,0.74888259,-0.00017289,-0.00333662
 ,-0.00037181,0.00308239,0.00212637,0.00274239,0.00389771,-0.05567501,-
 0.00519843,-0.00992220,0.13610844,0.02025717,0.00020776,-0.03529535,0.
 02324583,0.00044522,0.05667613,0.08448402,-0.00428716,-0.19261055,0.01
 500653,0.00884436,0.65225148,-0.05402446,0.00130568,0.01582528,-0.0055
 8677,-0.00014025,-0.02265652,0.01872323,0.00182479,0.03051738,-0.12072
 353,-0.00627982,0.01783180,0.68819791,0.00543183,0.00730627,-0.0059904
 7,-0.00325666,-0.00814467,0.00191628,0.00787091,0.00730614,-0.00182942
 ,-0.00638937,-0.05491176,0.00765246,0.03913486,0.10805874,-0.00999747,
 -0.00136472,0.04453191,-0.02265630,0.00008412,-0.03082233,0.05634138,-
 0.00047584,-0.02821572,-0.02670591,-0.00794879,-0.29724895,-0.05277840
 ,-0.02302068,0.62940782,-0.31614793,0.00700851,0.08262070,0.02516615,-
 0.00003233,0.07206153,-0.04608175,-0.00000411,0.00136534,0.02310692,0.
 00193085,-0.05488410,-0.25168589,-0.00978546,-0.05510527,0.66237114,0.
 00643953,-0.05567524,-0.00087006,-0.00089971,0.00212697,-0.00402816,0.
 00024285,-0.00333673,0.00033169,-0.00084071,0.00653969,-0.00267517,0.0
 0390213,-0.05491099,0.00936344,-0.01257304,0.13610857,0.13733261,-0.00
 375799,-0.18926359,0.03333244,-0.00086712,-0.03097362,-0.00089022,-0.0
 0041731,-0.00137352,-0.03104410,0.00203938,-0.02474882,-0.09964113,0.0
 0186980,-0.16628482,-0.03317864,0.00432765,0.73876543,-0.26543503,0.00
 320633,-0.11836727,0.00074218,0.00004572,0.00301757,0.00146187,0.00010
 122,0.00068440,0.00015164,0.00000249,0.00033971,-0.00261160,-0.0001293
 3,0.00422921,-0.01960518,0.00063354,-0.01553734,0.28255482,0.00289349,
 -0.03319120,0.00194214,-0.00035852,0.00301699,-0.00064236,0.00036129,0
 .00456324,0.00007443,-0.00019276,-0.00078211,0.00022379,0.00083759,0.0
 0791004,-0.00050014,0.00039015,0.00330403,-0.00001344,-0.00373364,0.02
 274998,-0.11804412,0.00190746,-0.12623648,-0.02879889,0.00028304,-0.01
 084649,0.00149968,-0.00005393,-0.00536466,0.00092411,-0.00007937,-0.00
 062062,0.00322368,-0.00010138,-0.00117613,0.01538026,-0.00040196,0.012
 07789,0.12663856,-0.00179414,0.13003885,-0.00424270,-0.00048951,0.0206
 2510,-0.28884412,0.00876509,0.09415685,-0.06194154,0.00079302,0.019949
 00,0.00689718,-0.00122636,-0.01058631,-0.00433581,0.00104589,0.0044852
 4,0.00392081,-0.00095809,-0.00588285,0.00200873,0.00052047,-0.00104227
 ,0.76790153,0.00015960,0.00856775,-0.00349870,-0.01288057,-0.03699356,
 0.00756435,0.00313764,0.00856813,0.00156274,-0.00176509,0.00435187,0.0
 0037158,0.00065409,-0.00111512,-0.00038506,-0.00118145,0.00435141,0.00
 136113,-0.00006266,-0.00248417,-0.00023754,0.08026798,0.04802833,0.052
 08385,-0.00118135,-0.03934538,0.09416005,-0.00515478,-0.18396467,-0.01
 151012,0.00100301,0.01835382,-0.00422449,0.00041461,-0.00525175,0.0044
 8524,-0.00061496,0.00066049,-0.01224459,0.00087033,-0.00227502,0.00062
 784,0.00022917,0.00202767,0.04567848,-0.04711735,0.81879105,-0.0046769
 3,0.00009683,-0.00191925,0.00285583,-0.00022286,-0.02762129,-0.0586963
 6,-0.00010522,-0.00290627,0.00464409,0.00065714,0.02888529,-0.00468399
 ,0.00002594,0.00206950,-0.00097506,0.00007056,0.00029664,0.00013283,0.
 00003865,-0.00140440,0.00219946,0.00017686,-0.00093638,0.05848234,0.00
 011125,0.00456325,-0.00035166,0.00038686,0.00301689,0.00062777,-0.0002
 8837,-0.03319043,-0.00344700,0.00020190,0.00330405,-0.00033456,0.00084
 479,0.00791006,-0.00048786,-0.00028942,-0.00078212,0.00005943,0.000006
 78,0.00027610,-0.00004038,0.00005288,-0.00248431,-0.00056607,-0.000250
 85,0.02274927,-0.00273451,-0.00006183,0.00077417,0.00419503,-0.0001765
 1,-0.01296050,-0.00322936,-0.00370401,-0.33297526,-0.00203228,-0.00035
 669,-0.01217149,0.00307511,0.00016295,0.00089630,-0.00028777,0.0000363
 5,0.00050606,0.00008280,0.00001375,-0.00060322,0.00073402,0.00017007,0
 .00183706,0.00184684,0.00410703,0.35411176,0.00024308,-0.00000661,0.00
 052413,-0.00251448,0.00042187,0.00360627,-0.01798420,0.00039561,-0.014
 73569,-0.27313840,0.00319794,-0.12058192,0.00433145,0.00022259,0.00222
 279,0.00127657,0.00016373,0.00073319,-0.00003213,-0.00003357,-0.000064
 26,-0.00079796,-0.00014472,-0.00102411,0.00095664,-0.00022822,0.000122
 44,0.28731181,0.00000960,-0.00092874,0.00011923,-0.00016710,0.00868481
 ,-0.00042076,0.00082822,0.00516583,0.00018030,0.00392872,-0.03857450,0
 .00341135,-0.00125674,0.00310147,-0.00144084,0.00026592,0.00518935,-0.
 00038447,-0.00002663,-0.00072381,0.00001531,0.00021008,-0.00015381,-0.
 00003584,-0.00005003,-0.00488537,0.00004281,-0.00402596,0.02536235,0.0
 0076108,0.00002883,-0.00037755,0.00338004,-0.00014849,-0.00145971,0.01
 589895,-0.00017876,0.01145550,-0.12109498,0.00114120,-0.12660569,-0.02
 842371,0.00039197,-0.01065023,0.00103819,-0.00046036,-0.00584902,-0.00
 007671,0.00003024,0.00007981,0.00061681,0.00007914,0.00069220,-0.00034
 515,0.00005235,0.00085307,0.12896030,-0.00148251,0.13124838,-0.0023581
 2,-0.00039533,-0.00413356,-0.00067701,0.00006359,-0.00065884,0.0019919
 3,-0.00057073,-0.00084065,0.00473174,0.00161574,-0.00183921,-0.2718182
 2,-0.03105722,0.12583081,-0.01837860,-0.00214767,0.01493275,-0.0008926
 5,0.00016859,0.00072197,0.00072627,-0.00011910,-0.00012065,0.00015096,
 -0.00026396,-0.00024707,0.00051870,0.00039245,0.00029844,0.28484378,-0
 .00041484,0.00455554,0.00092876,0.00045718,-0.00035661,-0.00026877,-0.
 00101304,0.00455568,-0.00008873,0.00217131,0.00251144,-0.00355921,-0.0
 3332658,-0.02956743,0.01958747,0.00416768,0.00251143,-0.00016650,0.000
 07633,0.00017159,0.00003047,-0.00019836,-0.00030243,0.00011661,0.00001
 045,0.00017160,-0.00008143,-0.00006373,-0.00269216,0.00016705,0.029458
 85,0.03187544,-0.00326322,0.00043330,-0.00077830,-0.00065888,-0.000037
 28,-0.00141087,-0.00171086,0.00013519,-0.00512833,0.02780373,0.0033579
 0,-0.01108642,0.12583076,0.01825340,-0.13165774,-0.01470993,-0.0030454
 8,0.01202378,-0.00082829,0.00039607,0.00041545,-0.00012069,0.00006995,
 0.00059179,0.00130317,-0.00033999,-0.00062824,-0.00029256,-0.00027376,
 0.00102420,-0.13366361,-0.01731389,0.13595923,0.00399153,0.00034654,0.
 02813782,-0.00467914,0.00033543,0.00217450,-0.00077697,-0.00002840,0.0
 0019301,-0.00491505,0.00048239,-0.00241011,0.00403402,-0.00023225,-0.0
 2858933,-0.05856356,0.00056004,-0.00159189,0.00097225,-0.00015704,-0.0
 0033647,0.00051259,-0.00013952,0.00134669,0.00011323,-0.00004279,0.000
 00425,0.00009773,-0.00005937,-0.00140456,0.00090205,-0.00017713,0.0005
 1192,0.05855764,0.00024587,0.00516594,-0.00081128,0.00028696,0.0086848
 2,0.00035100,-0.00009965,-0.00092871,-0.00006651,0.00046582,0.00518920
 ,-0.00004470,0.00064676,0.00310136,0.00180058,-0.00106773,-0.03857399,
 -0.00507170,-0.00006213,-0.00488539,0.00002246,0.00013336,-0.00015374,
 -0.00016593,-0.00002636,-0.00072380,0.00001577,-0.00002502,0.00036253,
 0.00005414,0.00043001,-0.00269211,-0.00020990,-0.00066507,0.02536190,-
 0.00249687,-0.00025741,-0.01052014,0.00240070,-0.00029595,0.00070496,-
 0.00004398,-0.00000840,0.00064246,-0.00271504,0.00008139,0.00034260,0.
 00205718,-0.00038431,-0.01035274,-0.00107889,-0.00332881,-0.34118161,0
 .00013115,0.00017359,0.00083747,-0.00029429,0.00008790,-0.00061835,0.0
 0001670,0.00001456,-0.00006557,0.00019738,-0.00000443,-0.00057458,-0.0
 0007904,-0.00002585,0.00064084,0.00156038,0.00421613,0.36000353,0.0004
 8628,0.00107386,0.00042726,-0.00052106,-0.00012160,-0.00173397,0.00113
 615,0.00032448,-0.00020875,-0.00083486,0.00233480,0.00190124,-0.000380
 46,-0.00263041,0.00071345,-0.00444739,0.00463951,-0.00055563,0.0001604
 3,-0.00034562,-0.00000270,-0.00013935,0.00024668,0.00048468,0.00006842
 ,-0.00011278,-0.00000897,0.00001080,-0.00003067,0.00012964,0.00028328,
 -0.00109179,-0.00015700,0.00006480,-0.00018548,0.00021926,0.00399059,-
 0.00257485,-0.00014292,0.00193124,0.00028935,0.00048289,-0.00017002,-0
 .00293994,-0.00014265,0.00130984,0.00355346,-0.00756857,-0.00991438,-0
 .00766755,0.00365995,0.00450618,0.01039123,-0.00757016,0.00171889,-0.0
 0007098,0.00008929,0.00009564,0.00108326,-0.00039716,-0.00063658,-0.00
 011808,0.00008922,0.00001544,0.00005859,0.00039010,0.00036728,0.002308
 71,-0.01067116,-0.00135732,-0.00029237,0.00039011,-0.00022995,-0.00388
 920,0.02120622,-0.00057094,0.00022642,0.00125797,-0.00173376,0.0000717
 3,-0.00245228,0.00078858,-0.00104834,0.00060802,0.00145629,-0.00401044
 ,-0.00369890,0.00071279,0.00154664,0.00041459,-0.00010966,-0.00008943,
 -0.00008562,0.00004233,-0.00006338,0.00006199,0.00048466,-0.00014510,0
 .00040037,-0.00005391,0.00033279,0.00015403,0.00018917,0.00019536,0.00
 025917,-0.00015678,0.00064094,0.00010824,0.00015970,-0.00006811,0.0002
 0516,-0.00109546,0.00228640,0.00277074,-0.00552434,-0.00013127,0.00092
 596,0.00638886,-0.00557782,0.03218925,0.00149068,0.00026521,0.00199012
 ,-0.00024681,0.00010381,-0.00039154,0.00013115,-0.00005378,-0.00003781
 ,0.00090621,0.00010336,0.00133340,0.00018521,0.00000218,0.00022330,-0.
 07300345,-0.00572445,-0.00682343,-0.00073683,-0.00006754,-0.00141726,0
 .00001871,-0.00003047,-0.00001520,-0.00000811,0.00000757,-0.00012540,-
 0.00037374,0.00000896,0.00014496,-0.00002657,0.00003066,-0.00008845,0.
 06510880,0.00026868,0.00390448,0.00062535,0.00412606,-0.00413688,-0.00
 645019,-0.00083023,-0.00192088,-0.00011055,0.00019876,-0.00075842,-0.0
 0005701,-0.00032834,0.00014796,-0.00000976,0.00063249,0.00147613,-0.00
 055149,0.00003462,-0.00057289,0.00006859,-0.00825897,-0.01488382,0.088
 91053,-0.00025985,0.00055838,-0.00011995,0.00001832,0.00017816,-0.0000
 0132,0.00003670,-0.00003540,-0.00007036,0.00005943,-0.00047627,-0.0000
 2309,-0.00009537,0.00009239,0.00008015,0.00367232,0.01863239,0.0023653
 2,0.00056529,0.00238622,0.00152014,0.00258182,-0.01521703,-0.00324833,
 -0.00069526,0.00243284,0.00070339,-0.00070182,-0.00087946,-0.00018983,
 0.00019605,0.00039964,-0.00013269,-0.00028087,-0.00107366,-0.00009218,
 0.00007045,0.00023225,-0.00724173,0.06844633,-0.44488749,0.00055623,0.
 00040981,0.00001974,-0.00004407,0.00008182,0.00004324,0.00008521,0.000
 07731,-0.00004074,0.00023485,-0.00000873,-0.00006338,-0.00012233,0.000
 20283,0.00008602,0.00133648,-0.07423194,0.46477980,0.00274465,0.000736
 72,-0.00255008,-0.02443135,-0.00497108,-0.01564323,-0.00088528,-0.0005
 5851,0.00494868,-0.00111544,0.00029599,-0.00125838,0.00043298,-0.00019
 754,-0.00002189,-0.00086244,0.00066395,0.00036075,0.00020665,-0.000391
 25,0.00108155,-0.35086164,-0.06262529,-0.16198306,0.00016537,-0.000060
 53,-0.00010327,-0.00029831,0.00001198,0.00027685,-0.00001600,-0.000063
 89,0.00008088,0.00006261,-0.00008633,-0.00001960,0.00014894,-0.0001623
 1,-0.00002457,0.00569023,0.00072538,0.00426955,0.36901906,-0.00030762,
 -0.00192064,0.00077922,0.00764666,-0.00413662,-0.00046626,-0.00041542,
 0.00390403,-0.00053936,0.00079050,0.00147593,-0.00028433,-0.00015141,0
 .00014798,0.00029190,0.00014672,-0.00075837,-0.00014624,-0.00002166,0.
 00055831,0.00028572,-0.08174073,-0.01489938,-0.03607140,-0.00004318,-0
 .00057279,-0.00006376,0.00004917,-0.00047622,-0.00004076,0.00007936,-0
 .00003541,0.00000217,0.00001011,0.00017816,-0.00001538,-0.00011644,0.0
 0009243,0.00004437,0.00739126,-0.00220534,0.00328690,0.06668271,0.0186
 4794,0.00268844,0.00010638,0.00117836,0.01502340,0.00361959,0.01560311
 ,0.00350913,-0.00016045,-0.00225239,0.00020750,0.00004610,0.00094778,0
 .00013037,-0.00004833,0.00009793,-0.00073446,0.00025084,-0.00026387,-0
 .00089176,-0.00014017,-0.00092380,-0.16156200,-0.02832945,-0.16701180,
 0.00021226,-0.00003622,0.00025208,0.00018695,-0.00000358,-0.00013881,-
 0.00012978,-0.00004423,-0.00003291,0.00000925,-0.00001322,-0.00000067,
 0.00000927,-0.00012551,-0.00008950,-0.02924439,-0.00805896,-0.00821798
 ,0.17058581,0.03293721,0.16085247\\-0.00000590,0.00000670,0.00002463,0
 .00008819,-0.00000484,-0.00005054,-0.00002518,0.00000525,-0.00000716,-
 0.00001314,-0.00001067,-0.00000685,-0.00001964,-0.00000701,0.00001181,
 -0.00000091,-0.00001156,0.00001524,0.00000640,0.00000004,-0.00000132,-
 0.00005209,-0.00003073,0.00002895,0.00000441,-0.00000032,-0.00000490,-
 0.00000505,0.00000756,0.00000051,0.00000038,0.00001287,-0.00000011,-0.
 00000281,0.00000747,0.00000416,0.00000923,0.00003233,-0.00000573,0.000
 01086,-0.00000243,0.00000009,0.00000525,-0.00000467,-0.00000878\\\@


 GOORD'S AXIOM:  A MEETING IS AN EVENT AT WHICH
 THE MINUTES ARE KEPT AND THE HOURS ARE LOST.
 Job cpu time:  0 days  8 hours 58 minutes  3.2 seconds.
 File lengths (MBytes):  RWF=    176 Int=      0 D2E=      0 Chk=     13 Scr=      1
 Normal termination of Gaussian 03 at Thu Aug 24 15:10:59 2006.
