 Entering Gaussian System, Link 0=g03
 Initial command:
 /apps/apps64/g03/l1.exe /tmp/Gau-6793.inp -scrdir=/tmp/
 Entering Link 1 = /apps/apps64/g03/l1.exe PID=      6794.
  
 Copyright (c) 1988,1990,1992,1993,1995,1998,2003,2004, Gaussian, Inc.
                  All Rights Reserved.
  
 This is the Gaussian(R) 03 program.  It is based on the
 the Gaussian(R) 98 system (copyright 1998, Gaussian, Inc.),
 the Gaussian(R) 94 system (copyright 1995, Gaussian, Inc.),
 the Gaussian 92(TM) system (copyright 1992, Gaussian, Inc.),
 the Gaussian 90(TM) system (copyright 1990, Gaussian, Inc.),
 the Gaussian 88(TM) system (copyright 1988, Gaussian, Inc.),
 the Gaussian 86(TM) system (copyright 1986, Carnegie Mellon
 University), and the Gaussian 82(TM) system (copyright 1983,
 Carnegie Mellon University). Gaussian is a federally registered
 trademark of Gaussian, Inc.
  
 This software contains proprietary and confidential information,
 including trade secrets, belonging to Gaussian, Inc.
  
 This software is provided under written license and may be
 used, copied, transmitted, or stored only in accord with that
 written license.
  
 The following legend is applicable only to US Government
 contracts under FAR:
  
                    RESTRICTED RIGHTS LEGEND
  
 Use, reproduction and disclosure by the US Government is
 subject to restrictions as set forth in subparagraphs (a)
 and (c) of the Commercial Computer Software - Restricted
 Rights clause in FAR 52.227-19.
  
 Gaussian, Inc.
 340 Quinnipiac St., Bldg. 40, Wallingford CT 06492
  
  
 ---------------------------------------------------------------
 Warning -- This program may not be used in any manner that
 competes with the business of Gaussian, Inc. or will provide
 assistance to any competitor of Gaussian, Inc.  The licensee
 of this program is prohibited from giving any competitor of
 Gaussian, Inc. access to this program.  By using this program,
 the user acknowledges that Gaussian, Inc. is engaged in the
 business of creating and licensing software in the field of
 computational chemistry and represents and warrants to the
 licensee that it is not a competitor of Gaussian, Inc. and that
 it will not use this program in any manner prohibited above.
 ---------------------------------------------------------------
  

 Cite this work as:
 Gaussian 03, Revision D.02,
 M. J. Frisch, G. W. Trucks, H. B. Schlegel, G. E. Scuseria, 
 M. A. Robb, J. R. Cheeseman, J. A. Montgomery, Jr., T. Vreven, 
 K. N. Kudin, J. C. Burant, J. M. Millam, S. S. Iyengar, J. Tomasi, 
 V. Barone, B. Mennucci, M. Cossi, G. Scalmani, N. Rega, 
 G. A. Petersson, H. Nakatsuji, M. Hada, M. Ehara, K. Toyota, 
 R. Fukuda, J. Hasegawa, M. Ishida, T. Nakajima, Y. Honda, O. Kitao, 
 H. Nakai, M. Klene, X. Li, J. E. Knox, H. P. Hratchian, J. B. Cross, 
 V. Bakken, C. Adamo, J. Jaramillo, R. Gomperts, R. E. Stratmann, 
 O. Yazyev, A. J. Austin, R. Cammi, C. Pomelli, J. W. Ochterski, 
 P. Y. Ayala, K. Morokuma, G. A. Voth, P. Salvador, J. J. Dannenberg, 
 V. G. Zakrzewski, S. Dapprich, A. D. Daniels, M. C. Strain, 
 O. Farkas, D. K. Malick, A. D. Rabuck, K. Raghavachari, 
 J. B. Foresman, J. V. Ortiz, Q. Cui, A. G. Baboul, S. Clifford, 
 J. Cioslowski, B. B. Stefanov, G. Liu, A. Liashenko, P. Piskorz, 
 I. Komaromi, R. L. Martin, D. J. Fox, T. Keith, M. A. Al-Laham, 
 C. Y. Peng, A. Nanayakkara, M. Challacombe, P. M. W. Gill, 
 B. Johnson, W. Chen, M. W. Wong, C. Gonzalez, and J. A. Pople, 
 Gaussian, Inc., Wallingford CT, 2004.
 
 ******************************************
 Gaussian 03:  AM64L-G03RevD.02  1-Mar-2006
                17-Feb-2011 
 ******************************************
 %Mem=900MB
 ----------------------------------------------------------------------
 #T B3LYP/6-31G(d,p) 5D 7F SCF=(Conver=10) TrackIO GFInput MaxDisk=16GB
 ----------------------------------------------------------------------
 ----------------------------------------------------------------------
 HCO-L-Ala-NH2 B3LYP/6-31(d,p) single point calculation close to the po
 lyproline
 ----------------------------------------------------------------------
 Symbolic Z-matrix:
 Charge =  0 Multiplicity = 1
 H1
 C2                   1    rC2H1
 N3                   2    rN3C2    1    aN3C2H1
 O4                   2    rO4C2    3    aO4C2N3  1    pO4C2N3H1 0
 C5                   3    rC5N3    2    aC5N3C2  1    dC5N3C2H1 0
 H6                   3    rH6N3    2    aH6N3C2  5    pH6N3C2C5 0
 C7                   5    rC7C5    3    aC7C5N3  2    dC7C5N3C2 0
 C8                   5    rC8C5    3    aC8C5N3  7    pC8C5N3C7 0
 H9                   5    rH9C5    3    aH9C5N3  7    pH9C5N3C7 0
 H10                  8    rH10C8   5    aH10C8C5 3    dH10C8C5N3 0
 H11                  8    rH11C8   5    aH11C8C5 10   pH11C8C5H10 0
 H12                  8    rH12C8   5    aH12C8C5 10   pH12C8C5H10 0
 N13                  7    rN13C7   5    aN13C7C5 3    dN13C7C5N3 0
 O14                  7    rO14C7   5    aO14C7C5 13   pO14C7C5N13 0
 H15                  13   rH15N13  7    aH15N13C7 5    dH15N13C7C5 0
 H16                  13   rH16N13  7    aH16N13C7 15   pH16N13C7H15 0
       Variables:
  rC2H1                 1.08829                  
  rN3C2                 1.34028                  
  rO4C2                 1.19529                  
  rC5N3                 1.45836                  
  rH6N3                 0.99156                  
  rC7C5                 1.53694                  
  rC8C5                 1.51712                  
  rH9C5                 1.08068                  
  rH10C8                1.08134                  
  rH11C8                1.07969                  
  rH12C8                1.0822                   
  rN13C7                1.34565                  
  rO14C7                1.19502                  
  rH15N13               0.99134                  
  rH16N13               0.9924                   
  aN3C2H1             112.90692                  
  aO4C2N3             125.36333                  
  aC5N3C2             124.60327                  
  aH6N3C2             116.96612                  
  aC7C5N3             111.30338                  
  aC8C5N3             109.75653                  
  aH9C5N3             106.69658                  
  aH10C8C5            111.03448                  
  aH11C8C5            110.20028                  
  aH12C8C5            109.81734                  
  aN13C7C5            115.40289                  
  aO14C7C5            121.47751                  
  aH15N13C7           117.07975                  
  aH16N13C7           120.33054                  
  pO4C2N3H1           178.63036                  
  dC5N3C2H1           176.20285                  
  pH6N3C2C5          -167.26951                  
  dC7C5N3C2           -75.                       
  pC8C5N3C7          -123.9391                   
  pH9C5N3C7           117.25286                  
  dH10C8C5N3           62.51695                  
  pH11C8C5H10         118.9032                   
  pH12C8C5H10        -121.14629                  
  dN13C7C5N3           75.                       
  pO14C7C5N13         179.17101                  
  dH15N13C7C5        -171.96675                  
  pH16N13C7H15        158.44988                  
 
                    Distance matrix (angstroms):
                    1          2          3          4          5
     1  H    0.000000
     2  C    1.088294   0.000000
     3  N    2.028852   1.340284   0.000000
     4  O    1.995190   1.195288   2.253763   0.000000
     5  C    3.400900   2.478546   1.458360   2.870799   0.000000
     6  H    2.221546   1.996204   0.991559   3.098050   2.105886
     7  C    4.093450   3.188468   2.473389   3.350093   1.536945
     8  C    4.436677   3.701488   2.433971   4.281171   1.517117
     9  H    3.675725   2.645526   2.049459   2.646758   1.080683
    10  H    4.616465   4.051738   2.715746   4.813733   2.156062
    11  H    5.391870   4.559490   3.371851   4.953231   2.144435
    12  H    4.474066   3.846259   2.667480   4.475584   2.141499
    13  N    4.177035   3.241402   3.075654   2.961097   2.438732
    14  O    4.964987   4.181379   3.298560   4.485127   2.389222
    15  H    4.865012   4.029234   3.920947   3.729371   3.341651
    16  H    3.656105   2.701957   2.911526   2.134515   2.574747
                    6          7          8          9         10
     6  H    0.000000
     7  C    3.005208   0.000000
     8  C    2.560584   2.524699   0.000000
     9  H    2.894586   2.130916   2.139033   0.000000
    10  H    2.472887   2.787920   1.081341   3.042840   0.000000
    11  H    3.604553   2.745701   1.079691   2.482954   1.741902
    12  H    2.725095   3.461346   1.082195   2.457410   1.765957
    13  N    3.796127   1.345653   3.723732   2.575869   4.100903
    14  O    3.541351   1.195024   2.768575   3.137731   2.664155
    15  H    4.539471   2.002021   4.513809   3.552349   4.754314
    16  H    3.764574   2.035779   4.037263   2.447668   4.536921
                   11         12         13         14         15
    11  H    0.000000
    12  H    1.758805   0.000000
    13  N    3.902290   4.540374   0.000000
    14  O    2.796346   3.835173   2.235148   0.000000
    15  H    4.612050   5.408640   0.991339   2.456956   0.000000
    16  H    4.343367   4.672133   0.992403   3.107543   1.709302
                   16
    16  H    0.000000
 Framework group  C1[X(C4H8N2O2)]
 Deg. of freedom    42
                         Standard orientation:                         
 ---------------------------------------------------------------------
 Center     Atomic     Atomic              Coordinates (Angstroms)
 Number     Number      Type              X           Y           Z
 ---------------------------------------------------------------------
    1          1             0        2.673167   -0.694356    1.176039
    2          6             0        1.989614   -0.338797    0.407458
    3          7             0        0.791716   -0.937921    0.456971
    4          8             0        2.319149    0.483587   -0.394917
    5          6             0       -0.339048   -0.600594   -0.399998
    6          1             0        0.610190   -1.515976    1.241885
    7          6             0       -0.994872    0.719648    0.034807
    8          6             0       -1.337584   -1.742762   -0.404729
    9          1             0        0.057189   -0.458737   -1.395361
   10          1             0       -1.740991   -1.909721    0.584556
   11          1             0       -2.166228   -1.510831   -1.056871
   12          1             0       -0.858424   -2.647544   -0.755331
   13          7             0       -0.313114    1.835227   -0.283739
   14          8             0       -2.046346    0.736816    0.602425
   15          1             0       -0.647826    2.690611    0.089141
   16          1             0        0.631638    1.777215   -0.581971
 ---------------------------------------------------------------------
 Rotational constants (GHZ):      2.9412883      1.7541705      1.2354314
 AO basis set in the form of general basis input:
      1 0
 S   3 1.00       0.000000000000
      0.1873113696D+02  0.3349460434D-01
      0.2825394365D+01  0.2347269535D+00
      0.6401216923D+00  0.8137573261D+00
 S   1 1.00       0.000000000000
      0.1612777588D+00  0.1000000000D+01
 P   1 1.00       0.000000000000
      0.1100000000D+01  0.1000000000D+01
 ****
      2 0
 S   6 1.00       0.000000000000
      0.3047524880D+04  0.1834737132D-02
      0.4573695180D+03  0.1403732281D-01
      0.1039486850D+03  0.6884262226D-01
      0.2921015530D+02  0.2321844432D+00
      0.9286662960D+01  0.4679413484D+00
      0.3163926960D+01  0.3623119853D+00
 SP   3 1.00       0.000000000000
      0.7868272350D+01 -0.1193324198D+00  0.6899906659D-01
      0.1881288540D+01 -0.1608541517D+00  0.3164239610D+00
      0.5442492580D+00  0.1143456438D+01  0.7443082909D+00
 SP   1 1.00       0.000000000000
      0.1687144782D+00  0.1000000000D+01  0.1000000000D+01
 D   1 1.00       0.000000000000
      0.8000000000D+00  0.1000000000D+01
 ****
      3 0
 S   6 1.00       0.000000000000
      0.4173511460D+04  0.1834772160D-02
      0.6274579110D+03  0.1399462700D-01
      0.1429020930D+03  0.6858655181D-01
      0.4023432930D+02  0.2322408730D+00
      0.1282021290D+02  0.4690699481D+00
      0.4390437010D+01  0.3604551991D+00
 SP   3 1.00       0.000000000000
      0.1162636186D+02 -0.1149611817D+00  0.6757974388D-01
      0.2716279807D+01 -0.1691174786D+00  0.3239072959D+00
      0.7722183966D+00  0.1145851947D+01  0.7408951398D+00
 SP   1 1.00       0.000000000000
      0.2120314975D+00  0.1000000000D+01  0.1000000000D+01
 D   1 1.00       0.000000000000
      0.8000000000D+00  0.1000000000D+01
 ****
      4 0
 S   6 1.00       0.000000000000
      0.5484671660D+04  0.1831074430D-02
      0.8252349460D+03  0.1395017220D-01
      0.1880469580D+03  0.6844507810D-01
      0.5296450000D+02  0.2327143360D+00
      0.1689757040D+02  0.4701928980D+00
      0.5799635340D+01  0.3585208530D+00
 SP   3 1.00       0.000000000000
      0.1553961625D+02 -0.1107775495D+00  0.7087426823D-01
      0.3599933586D+01 -0.1480262627D+00  0.3397528391D+00
      0.1013761750D+01  0.1130767015D+01  0.7271585773D+00
 SP   1 1.00       0.000000000000
      0.2700058226D+00  0.1000000000D+01  0.1000000000D+01
 D   1 1.00       0.000000000000
      0.8000000000D+00  0.1000000000D+01
 ****
      5 0
 S   6 1.00       0.000000000000
      0.3047524880D+04  0.1834737132D-02
      0.4573695180D+03  0.1403732281D-01
      0.1039486850D+03  0.6884262226D-01
      0.2921015530D+02  0.2321844432D+00
      0.9286662960D+01  0.4679413484D+00
      0.3163926960D+01  0.3623119853D+00
 SP   3 1.00       0.000000000000
      0.7868272350D+01 -0.1193324198D+00  0.6899906659D-01
      0.1881288540D+01 -0.1608541517D+00  0.3164239610D+00
      0.5442492580D+00  0.1143456438D+01  0.7443082909D+00
 SP   1 1.00       0.000000000000
      0.1687144782D+00  0.1000000000D+01  0.1000000000D+01
 D   1 1.00       0.000000000000
      0.8000000000D+00  0.1000000000D+01
 ****
      6 0
 S   3 1.00       0.000000000000
      0.1873113696D+02  0.3349460434D-01
      0.2825394365D+01  0.2347269535D+00
      0.6401216923D+00  0.8137573261D+00
 S   1 1.00       0.000000000000
      0.1612777588D+00  0.1000000000D+01
 P   1 1.00       0.000000000000
      0.1100000000D+01  0.1000000000D+01
 ****
      7 0
 S   6 1.00       0.000000000000
      0.3047524880D+04  0.1834737132D-02
      0.4573695180D+03  0.1403732281D-01
      0.1039486850D+03  0.6884262226D-01
      0.2921015530D+02  0.2321844432D+00
      0.9286662960D+01  0.4679413484D+00
      0.3163926960D+01  0.3623119853D+00
 SP   3 1.00       0.000000000000
      0.7868272350D+01 -0.1193324198D+00  0.6899906659D-01
      0.1881288540D+01 -0.1608541517D+00  0.3164239610D+00
      0.5442492580D+00  0.1143456438D+01  0.7443082909D+00
 SP   1 1.00       0.000000000000
      0.1687144782D+00  0.1000000000D+01  0.1000000000D+01
 D   1 1.00       0.000000000000
      0.8000000000D+00  0.1000000000D+01
 ****
      8 0
 S   6 1.00       0.000000000000
      0.3047524880D+04  0.1834737132D-02
      0.4573695180D+03  0.1403732281D-01
      0.1039486850D+03  0.6884262226D-01
      0.2921015530D+02  0.2321844432D+00
      0.9286662960D+01  0.4679413484D+00
      0.3163926960D+01  0.3623119853D+00
 SP   3 1.00       0.000000000000
      0.7868272350D+01 -0.1193324198D+00  0.6899906659D-01
      0.1881288540D+01 -0.1608541517D+00  0.3164239610D+00
      0.5442492580D+00  0.1143456438D+01  0.7443082909D+00
 SP   1 1.00       0.000000000000
      0.1687144782D+00  0.1000000000D+01  0.1000000000D+01
 D   1 1.00       0.000000000000
      0.8000000000D+00  0.1000000000D+01
 ****
      9 0
 S   3 1.00       0.000000000000
      0.1873113696D+02  0.3349460434D-01
      0.2825394365D+01  0.2347269535D+00
      0.6401216923D+00  0.8137573261D+00
 S   1 1.00       0.000000000000
      0.1612777588D+00  0.1000000000D+01
 P   1 1.00       0.000000000000
      0.1100000000D+01  0.1000000000D+01
 ****
     10 0
 S   3 1.00       0.000000000000
      0.1873113696D+02  0.3349460434D-01
      0.2825394365D+01  0.2347269535D+00
      0.6401216923D+00  0.8137573261D+00
 S   1 1.00       0.000000000000
      0.1612777588D+00  0.1000000000D+01
 P   1 1.00       0.000000000000
      0.1100000000D+01  0.1000000000D+01
 ****
     11 0
 S   3 1.00       0.000000000000
      0.1873113696D+02  0.3349460434D-01
      0.2825394365D+01  0.2347269535D+00
      0.6401216923D+00  0.8137573261D+00
 S   1 1.00       0.000000000000
      0.1612777588D+00  0.1000000000D+01
 P   1 1.00       0.000000000000
      0.1100000000D+01  0.1000000000D+01
 ****
     12 0
 S   3 1.00       0.000000000000
      0.1873113696D+02  0.3349460434D-01
      0.2825394365D+01  0.2347269535D+00
      0.6401216923D+00  0.8137573261D+00
 S   1 1.00       0.000000000000
      0.1612777588D+00  0.1000000000D+01
 P   1 1.00       0.000000000000
      0.1100000000D+01  0.1000000000D+01
 ****
     13 0
 S   6 1.00       0.000000000000
      0.4173511460D+04  0.1834772160D-02
      0.6274579110D+03  0.1399462700D-01
      0.1429020930D+03  0.6858655181D-01
      0.4023432930D+02  0.2322408730D+00
      0.1282021290D+02  0.4690699481D+00
      0.4390437010D+01  0.3604551991D+00
 SP   3 1.00       0.000000000000
      0.1162636186D+02 -0.1149611817D+00  0.6757974388D-01
      0.2716279807D+01 -0.1691174786D+00  0.3239072959D+00
      0.7722183966D+00  0.1145851947D+01  0.7408951398D+00
 SP   1 1.00       0.000000000000
      0.2120314975D+00  0.1000000000D+01  0.1000000000D+01
 D   1 1.00       0.000000000000
      0.8000000000D+00  0.1000000000D+01
 ****
     14 0
 S   6 1.00       0.000000000000
      0.5484671660D+04  0.1831074430D-02
      0.8252349460D+03  0.1395017220D-01
      0.1880469580D+03  0.6844507810D-01
      0.5296450000D+02  0.2327143360D+00
      0.1689757040D+02  0.4701928980D+00
      0.5799635340D+01  0.3585208530D+00
 SP   3 1.00       0.000000000000
      0.1553961625D+02 -0.1107775495D+00  0.7087426823D-01
      0.3599933586D+01 -0.1480262627D+00  0.3397528391D+00
      0.1013761750D+01  0.1130767015D+01  0.7271585773D+00
 SP   1 1.00       0.000000000000
      0.2700058226D+00  0.1000000000D+01  0.1000000000D+01
 D   1 1.00       0.000000000000
      0.8000000000D+00  0.1000000000D+01
 ****
     15 0
 S   3 1.00       0.000000000000
      0.1873113696D+02  0.3349460434D-01
      0.2825394365D+01  0.2347269535D+00
      0.6401216923D+00  0.8137573261D+00
 S   1 1.00       0.000000000000
      0.1612777588D+00  0.1000000000D+01
 P   1 1.00       0.000000000000
      0.1100000000D+01  0.1000000000D+01
 ****
     16 0
 S   3 1.00       0.000000000000
      0.1873113696D+02  0.3349460434D-01
      0.2825394365D+01  0.2347269535D+00
      0.6401216923D+00  0.8137573261D+00
 S   1 1.00       0.000000000000
      0.1612777588D+00  0.1000000000D+01
 P   1 1.00       0.000000000000
      0.1100000000D+01  0.1000000000D+01
 ****

   152 basis functions,   280 primitive gaussians,   160 cartesian basis functions
    31 alpha electrons       31 beta electrons
       nuclear repulsion energy       390.4956316048 Hartrees.
 NAtoms=   16 NActive=   16 NUniq=   16 SFac= 7.50D-01 NAtFMM=   80 NAOKFM=F Big=F
 Harris functional with IExCor=  402 diagonalized for initial guess.
 ExpMin= 1.61D-01 ExpMax= 5.48D+03 ExpMxC= 8.25D+02 IAcc=1 IRadAn=         1 AccDes= 1.00D-06
 HarFok:  IExCor= 402 AccDes= 1.00D-06 IRadAn=         1 IDoV=1
 ScaDFX=  1.000000  1.000000  1.000000  1.000000
 Initial guess orbital symmetries:
       Occupied  (A) (A) (A) (A) (A) (A) (A) (A) (A) (A) (A) (A)
                 (A) (A) (A) (A) (A) (A) (A) (A) (A) (A) (A) (A)
                 (A) (A) (A) (A) (A) (A) (A)
       Virtual   (A) (A) (A) (A) (A) (A) (A) (A) (A) (A) (A) (A)
                 (A) (A) (A) (A) (A) (A) (A) (A) (A) (A) (A) (A)
                 (A) (A) (A) (A) (A) (A) (A) (A) (A) (A) (A) (A)
                 (A) (A) (A) (A) (A) (A) (A) (A) (A) (A) (A) (A)
                 (A) (A) (A) (A) (A) (A) (A) (A) (A) (A) (A) (A)
                 (A) (A) (A) (A) (A) (A) (A) (A) (A) (A) (A) (A)
                 (A) (A) (A) (A) (A) (A) (A) (A) (A) (A) (A) (A)
                 (A) (A) (A) (A) (A) (A) (A) (A) (A) (A) (A) (A)
                 (A) (A) (A) (A) (A) (A) (A) (A) (A) (A) (A) (A)
                 (A) (A) (A) (A) (A) (A) (A) (A) (A) (A) (A) (A)
                 (A)
 The electronic state of the initial guess is 1-A.
 Integral accuracy reduced to 1.0D-05 until final iterations.
 Initial convergence to 1.0D-05 achieved.  Increase integral accuracy.
 SCF Done:  E(RB+HF-LYP) =  -417.223184676     A.U. after   19 cycles
             Convg  =    0.2681D-10             -V/T =  2.0055
             S**2   =   0.0000

 **********************************************************************

            Population analysis using the SCF density.

 **********************************************************************

 Orbital symmetries:
       Occupied  (A) (A) (A) (A) (A) (A) (A) (A) (A) (A) (A) (A)
                 (A) (A) (A) (A) (A) (A) (A) (A) (A) (A) (A) (A)
                 (A) (A) (A) (A) (A) (A) (A)
       Virtual   (A) (A) (A) (A) (A) (A) (A) (A) (A) (A) (A) (A)
                 (A) (A) (A) (A) (A) (A) (A) (A) (A) (A) (A) (A)
                 (A) (A) (A) (A) (A) (A) (A) (A) (A) (A) (A) (A)
                 (A) (A) (A) (A) (A) (A) (A) (A) (A) (A) (A) (A)
                 (A) (A) (A) (A) (A) (A) (A) (A) (A) (A) (A) (A)
                 (A) (A) (A) (A) (A) (A) (A) (A) (A) (A) (A) (A)
                 (A) (A) (A) (A) (A) (A) (A) (A) (A) (A) (A) (A)
                 (A) (A) (A) (A) (A) (A) (A) (A) (A) (A) (A) (A)
                 (A) (A) (A) (A) (A) (A) (A) (A) (A) (A) (A) (A)
                 (A) (A) (A) (A) (A) (A) (A) (A) (A) (A) (A) (A)
                 (A)
 The electronic state is 1-A.
 Alpha  occ. eigenvalues --  -19.12834 -19.10730 -14.37215 -14.33965 -10.29015
 Alpha  occ. eigenvalues --  -10.27763 -10.23386 -10.18135  -1.06333  -1.04542
 Alpha  occ. eigenvalues --   -0.94790  -0.90457  -0.78349  -0.67346  -0.62686
 Alpha  occ. eigenvalues --   -0.58398  -0.55001  -0.53864  -0.49502  -0.48562
 Alpha  occ. eigenvalues --   -0.42990  -0.42553  -0.41875  -0.39754  -0.39291
 Alpha  occ. eigenvalues --   -0.38508  -0.36915  -0.29063  -0.27203  -0.26596
 Alpha  occ. eigenvalues --   -0.24105
 Alpha virt. eigenvalues --    0.01402   0.03591   0.07816   0.10361   0.11359
 Alpha virt. eigenvalues --    0.14195   0.15437   0.16571   0.17441   0.19447
 Alpha virt. eigenvalues --    0.21768   0.24167   0.25612   0.29034   0.34149
 Alpha virt. eigenvalues --    0.35848   0.40109   0.47803   0.50049   0.52476
 Alpha virt. eigenvalues --    0.53834   0.56258   0.60195   0.62968   0.64198
 Alpha virt. eigenvalues --    0.68293   0.68591   0.69285   0.70654   0.75432
 Alpha virt. eigenvalues --    0.75692   0.77709   0.81393   0.82172   0.83905
 Alpha virt. eigenvalues --    0.84402   0.85019   0.86617   0.87322   0.88875
 Alpha virt. eigenvalues --    0.89549   0.94723   0.96216   0.98669   1.01442
 Alpha virt. eigenvalues --    1.05425   1.10795   1.14886   1.15754   1.19538
 Alpha virt. eigenvalues --    1.22452   1.26016   1.29977   1.33072   1.36779
 Alpha virt. eigenvalues --    1.39390   1.42955   1.46762   1.51852   1.56039
 Alpha virt. eigenvalues --    1.60833   1.66128   1.67554   1.73470   1.73653
 Alpha virt. eigenvalues --    1.77567   1.80230   1.82873   1.86313   1.87616
 Alpha virt. eigenvalues --    1.89040   1.91766   1.94464   1.96964   1.99971
 Alpha virt. eigenvalues --    2.03988   2.05051   2.06211   2.08330   2.10630
 Alpha virt. eigenvalues --    2.12653   2.12991   2.17254   2.18900   2.21954
 Alpha virt. eigenvalues --    2.27325   2.28803   2.33076   2.36013   2.40127
 Alpha virt. eigenvalues --    2.41846   2.43575   2.48508   2.52384   2.55456
 Alpha virt. eigenvalues --    2.57950   2.61365   2.63410   2.67176   2.71888
 Alpha virt. eigenvalues --    2.73435   2.75759   2.79619   2.82718   2.87799
 Alpha virt. eigenvalues --    2.90983   2.92539   2.93097   2.98548   3.03223
 Alpha virt. eigenvalues --    3.09156   3.12692   3.22286   3.24045   3.31950
 Alpha virt. eigenvalues --    3.39014   3.46606   3.48617   3.53174   3.62985
 Alpha virt. eigenvalues --    3.67526
          Condensed to atoms (all electrons):
 Mulliken atomic charges:
              1
     1  H    0.070278
     2  C    0.359373
     3  N   -0.440771
     4  O   -0.438581
     5  C   -0.022569
     6  H    0.264496
     7  C    0.497281
     8  C   -0.320507
     9  H    0.134124
    10  H    0.123700
    11  H    0.130913
    12  H    0.106416
    13  N   -0.573613
    14  O   -0.444576
    15  H    0.267381
    16  H    0.286656
 Sum of Mulliken charges=   0.00000
 Atomic charges with hydrogens summed into heavy atoms:
              1
     1  H    0.000000
     2  C    0.429651
     3  N   -0.176275
     4  O   -0.438581
     5  C    0.111555
     6  H    0.000000
     7  C    0.497281
     8  C    0.040522
     9  H    0.000000
    10  H    0.000000
    11  H    0.000000
    12  H    0.000000
    13  N   -0.019577
    14  O   -0.444576
    15  H    0.000000
    16  H    0.000000
 Sum of Mulliken charges=   0.00000
 Electronic spatial extent (au):  <R**2>=   971.6052
 Charge=     0.0000 electrons
 Dipole moment (field-independent basis, Debye):
    X=     1.0380    Y=    -1.6191    Z=     0.7868  Tot=     2.0780
 1\1\GINC-NODE191\SP\RB3LYP\6-31G(d,p)\C4H8N2O2\PABLO\17-Feb-2011\0\\#T
  B3LYP/6-31G(d,p) 5D 7F SCF=(Conver=10) TrackIO GFInput MaxDisk=16GB\\
 HCO-L-Ala-NH2 B3LYP/6-31(d,p) single point calculation close to the po
 lyproline\\0,1\H\C,1,1.0882942483\N,2,1.3402838218,1,112.90692003\O,2,
 1.1952884172,3,125.36332624,1,178.63036317,0\C,3,1.4583595563,2,124.60
 326976,1,176.20284735,0\H,3,0.9915590043,2,116.96612109,5,-167.2695102
 7,0\C,5,1.5369448414,3,111.30337797,2,-75.,0\C,5,1.5171170904,3,109.75
 652922,7,-123.93909608,0\H,5,1.0806825021,3,106.69658097,7,117.2528576
 ,0\H,8,1.0813405229,5,111.03447653,3,62.51695207,0\H,8,1.0796907222,5,
 110.20028241,10,118.90319899,0\H,8,1.0821952391,5,109.81734435,10,-121
 .14629254,0\N,7,1.3456530125,5,115.40289302,3,75.,0\O,7,1.1950240612,5
 ,121.47750599,13,179.17100577,0\H,13,0.9913391977,7,117.07974532,5,-17
 1.96675092,0\H,13,0.9924031739,7,120.33053535,15,158.44988396,0\\Versi
 on=AM64L-G03RevD.02\State=1-A\HF=-417.2231847\RMSD=2.681e-11\Thermal=0
 .\Dipole=0.2140119,-0.3946736,-0.6832272\PG=C01 [X(C4H8N2O2)]\\@


 COMMON SENSE IS NOT SO COMMON.   -- VOLTAIRE
 Job cpu time:  0 days  0 hours  1 minutes 59.4 seconds.
 File lengths (MBytes):  RWF=     22 Int=      0 D2E=      0 Chk=     10 Scr=      1
 Normal termination of Gaussian 03 at Thu Feb 17 18:24:24 2011.
